 Gaussian 16, Revision C.01,

 ----------------------------------------------------------------------
 #t hf aug-cc-pvdz symm=none int=(grid=ultrafine) guess=(read,tcheck) s
 table=opt
 ----------------------------------------------------------------------
 -----
 title
 -----
 Symbolic Z-matrix:
 Charge =  0 Multiplicity = 2

 SCF Done:  E(UHF) =  -1248.73795084     A.U. after   19 cycles
 Normal termination of Gaussian 16 at Tue Apr  8 23:33:36 2025.
 Gaussian 16:  ES64L-G16RevC.01  3-Jul-2019

 ----------------------------------------------------------------------
 #t hf aug-cc-pvdz iop(5/13=1,5/36=2,99/5=2) pseudo=read geom=check gue
 ss=(read,tcheck) scf=(maxcycle=1)
 ----------------------------------------------------------------------
 -----
 title
 -----
 Structure from the checkpoint file:  "BDE49_nonexpt_1359_mol2.chk"
 Charge =  0 Multiplicity = 2

                         Standard orientation:
 ---------------------------------------------------------------------
 Center     Atomic      Atomic             Coordinates (Angstroms)
 Number     Number       Type             X           Y           Z
 ---------------------------------------------------------------------
      1          9           0       -1.731079   -1.785141   -0.165208
      2          9           0       -2.495841    0.443842   -0.829098
      3          8           0        1.210325    2.721494   -0.174115
      4          6           0       -0.033356    2.131614   -0.608623
      5          1           0       -0.118170    2.099455   -1.697846
      6          1           0       -0.901181    2.657707   -0.194268
      7          6           0        0.302385    0.788947    0.097291
      8         15           0       -2.319792   -0.433463    0.529954
      9          6           0       -0.730902    0.288087    1.117475
     10          1           0       -1.025209    1.113878    1.777131
     11          1           0       -0.303031   -0.481362    1.774201
     12          6           0        1.477391    1.607706    0.706287
     13          1           0        1.333489    1.879811    1.759340
     14          1           0        2.478785    1.197829    0.567582
     15          6           0        0.779696   -0.284439   -0.905366
     16         15           0        1.519235   -1.835083   -0.222422
     17          9           0        2.962515   -1.209262    0.266898
     18          1           0        1.525602    0.164835   -1.570910
     19          1           0       -0.056176   -0.612362   -1.531006
 ---------------------------------------------------------------------

 SCF Done:  E(UHF) =  -1249.36637883     A.U. after    2 cycles

 The electronic state is 2-A.
 Alpha  occ. eigenvalues --  -84.42339 -84.34793 -26.49116 -26.49070 -26.46439
 Alpha  occ. eigenvalues --  -20.54797 -11.29892 -11.29690 -11.28246 -11.27487
 Alpha  occ. eigenvalues --  -11.26053  -6.87942  -6.81264  -4.40663  -4.40229
 Alpha  occ. eigenvalues --   -4.39358  -4.33845  -4.33623  -4.32735  -1.62553
 Alpha  occ. eigenvalues --   -1.58385  -1.57448  -1.46971  -1.12141  -1.01111
 Alpha  occ. eigenvalues --   -0.95576  -0.95156  -0.85291  -0.82323  -0.76136
 Alpha  occ. eigenvalues --   -0.72274  -0.71273  -0.70344  -0.69284  -0.68137
 Alpha  occ. eigenvalues --   -0.66925  -0.65791  -0.65545  -0.63293  -0.62293
 Alpha  occ. eigenvalues --   -0.61285  -0.59738  -0.59043  -0.57149  -0.55787
 Alpha  occ. eigenvalues --   -0.53295  -0.48775  -0.48102  -0.42607  -0.39814
 Alpha  occ. eigenvalues --   -0.38494  -0.32784
 Alpha virt. eigenvalues --    0.03264   0.04062   0.04413   0.04825   0.05873
 Alpha virt. eigenvalues --    0.06159   0.06360   0.07134   0.07397   0.08939
 Alpha virt. eigenvalues --    0.09213   0.10704   0.10835   0.12151   0.12803

  Beta  occ. eigenvalues --  -84.42339 -84.34105 -26.49115 -26.49063 -26.46048
  Beta  occ. eigenvalues --  -20.54795 -11.29898 -11.29700 -11.28121 -11.27475
  Beta  occ. eigenvalues --  -11.26184  -6.87942  -6.80390  -4.40663  -4.40229
  Beta  occ. eigenvalues --   -4.39358  -4.33199  -4.32396  -4.30349  -1.62545
  Beta  occ. eigenvalues --   -1.58376  -1.56420  -1.46964  -1.11866  -1.00688
  Beta  occ. eigenvalues --   -0.95161  -0.94835  -0.85205  -0.78979  -0.75607
  Beta  occ. eigenvalues --   -0.72240  -0.71212  -0.70254  -0.69040  -0.67795
  Beta  occ. eigenvalues --   -0.66827  -0.65491  -0.63245  -0.62440  -0.62047
  Beta  occ. eigenvalues --   -0.60152  -0.59272  -0.58973  -0.56980  -0.55186
  Beta  occ. eigenvalues --   -0.52782  -0.48061  -0.48011  -0.42397  -0.38462
  Beta  occ. eigenvalues --   -0.38207
  Beta virt. eigenvalues --    0.03158   0.03913   0.04404   0.04810   0.04857
  Beta virt. eigenvalues --    0.05912   0.06314   0.06829   0.07316   0.07928
  Beta virt. eigenvalues --    0.09104   0.09232   0.10796   0.11096   0.12688

 Mulliken charges and spin densities:
               1          2
     1  F   -0.773617  -0.007166
     2  F   -0.808923   0.000801
     3  O   -1.303791  -0.000163
     4  C    0.899298   0.004310
     5  H    0.126214   0.002258
     6  H    0.021654   0.000215
     7  C   -1.106978  -0.080047
     8  P    2.165886   0.005327
     9  C   -0.682654   0.030546
    10  H    0.151091  -0.001827
    11  H    0.155942   0.001186
    12  C    0.845353   0.015504
    13  H    0.033164   0.002224
    14  H    0.107920  -0.002832
    15  C   -0.416829  -0.066446
    16  P    1.183715   1.084620
    17  F   -0.798601   0.013356
    18  H    0.071251   0.008061
    19  H    0.129906  -0.009926
 Sum of Mulliken charges =  -0.00000   1.00000

 Dipole moment (field-independent basis, Debye):
    X=             -1.6756    Y=             -0.3381    Z=              1.2259  Tot=              2.1035
                          Isotropic Fermi Contact Couplings
        Atom                 a.u.       MegaHertz       Gauss      10(-4) cm-1
     1  F(19)              0.00181       7.61916       2.71871       2.54148
     2  F(19)              0.00010       0.43412       0.15490       0.14481
     3  O(17)              0.00010      -0.06138      -0.02190      -0.02047
     4  C(13)             -0.00165      -1.85755      -0.66282      -0.61961
     5  H(1)               0.00002       0.10991       0.03922       0.03666
     6  H(1)               0.00014       0.63466       0.22646       0.21170
     7  C(13)              0.02899      32.58994      11.62890      10.87083
     8  P(31)             -0.00029      -0.52782      -0.18834      -0.17606

 Normal termination of Gaussian 16 at Tue Apr  8 23:33:51 2025.
