 Gaussian 16, Revision C.01,

 ----------------------------------------------------------------------
 #t hf aug-cc-pvdz symm=none int=(grid=ultrafine) guess=(read,tcheck) s
 table=(opt,rrhf)
 ----------------------------------------------------------------------
 -----
 title
 -----
 Symbolic Z-matrix:
 Charge =  0 Multiplicity = 1

 SCF Done:  E(RHF) =  -2201.95076760     A.U. after   14 cycles
 Normal termination of Gaussian 16 at Tue Apr  8 23:16:53 2025.
 Gaussian 16:  ES64L-G16RevC.01  3-Jul-2019

 ----------------------------------------------------------------------
 #t hf aug-cc-pvdz iop(5/13=1,5/36=2,99/5=2) pseudo=read geom=check gue
 ss=(read,tcheck) scf=(maxcycle=1)
 ----------------------------------------------------------------------
 -----
 title
 -----
 Structure from the checkpoint file:  "BDE49_nonexpt_1025_mol1.chk"
 Charge =  0 Multiplicity = 1

                         Standard orientation:
 ---------------------------------------------------------------------
 Center     Atomic      Atomic             Coordinates (Angstroms)
 Number     Number       Type             X           Y           Z
 ---------------------------------------------------------------------
      1         17           0       -2.490601    0.000000   -0.517899
      2          8           0       -0.879234    0.000000   -1.135320
      3         14           0        0.355585    0.000000   -0.031843
      4         17           0        2.006711    0.000000   -1.218334
      5         17           0        0.302406    1.662203    1.148362
      6         17           0        0.302406   -1.662203    1.148363
 ---------------------------------------------------------------------

 SCF Done:  E(RHF) =  -2202.35599359     A.U. after    2 cycles

 The electronic state is 1-A.
 Alpha  occ. eigenvalues -- -105.65546-105.59579-105.59579-105.59543 -69.71443
 Alpha  occ. eigenvalues --  -20.64670 -10.69684 -10.64641 -10.64630 -10.64603
 Alpha  occ. eigenvalues --   -7.86681  -7.86104  -7.86079  -7.81531  -7.81526
 Alpha  occ. eigenvalues --   -7.81499  -7.81184  -7.81184  -7.81181  -7.81177
 Alpha  occ. eigenvalues --   -7.81148  -7.81145  -6.36866  -4.12281  -4.12255
 Alpha  occ. eigenvalues --   -4.12223  -1.50216  -1.12980  -1.08151  -1.07834
 Alpha  occ. eigenvalues --   -1.05112  -0.76141  -0.66295  -0.65650  -0.65300
 Alpha  occ. eigenvalues --   -0.58679  -0.58667  -0.53066  -0.52591  -0.52402
 Alpha  occ. eigenvalues --   -0.49879  -0.49868  -0.49027  -0.48582  -0.47460
 Alpha virt. eigenvalues --    0.03652   0.05220   0.06192   0.06282   0.06801
 Alpha virt. eigenvalues --    0.10642   0.11747   0.12222   0.13466   0.13703
 Alpha virt. eigenvalues --    0.13999   0.15572   0.16687   0.17184   0.17269

 Mulliken charges:
               1
     1  Cl   0.374403
     2  O   -1.335134
     3  Si   2.328820
     4  Cl  -0.445454
     5  Cl  -0.461317
     6  Cl  -0.461317
 Sum of Mulliken charges =  -0.00000

 Dipole moment (field-independent basis, Debye):
    X=             -0.2834    Y=              0.0000    Z=              0.3412  Tot=              0.4435

 Test job not archived.
 1\1\GINC-SE132\SP\RHF\Aug-CC-pVDZ\Cl4O1Si1\OHZDE\08-Apr-2025\0\\#t hf
 aug-cc-pvdz iop(5/13=1,5/36=2,99/5=2) pseudo=read geom=check guess=(re
 ad,tcheck) scf=(maxcycle=1)\\title\\0,1\Cl,0,-2.490601,0.,-0.517899\O,
 0,-0.879234,0.,-1.13532\Si,0,0.355585,0.,-0.031843\Cl,0,2.006711,0.,-1
 .218334\Cl,0,0.302406,1.662203,1.148362\Cl,0,0.302406,-1.662203,1.1483
 63\\Version=ES64L-G16RevC.01\State=1-A\HF=-2202.3559936\RMSD=3.287e-03
 \Dipole=-0.1114912,0.0000006,0.1342372\Quadrupole=1.6208352,-0.4640506
 ,-1.1567847,0.0000005,-0.7114055,0.0000018\PG=C01 [X(Cl4O1Si1)]\\@

 Normal termination of Gaussian 16 at Tue Apr  8 23:16:57 2025.
