 Gaussian 16, Revision C.01,

 ----------------------------------------------------------------------
 #t hf aug-cc-pvdz symm=none int=(grid=ultrafine) guess=(read,tcheck) s
 table=(opt,rrhf)
 ----------------------------------------------------------------------
 -----
 title
 -----
 Symbolic Z-matrix:
 Charge =  0 Multiplicity = 1

 SCF Done:  E(RHF) =  -979.652604910     A.U. after   16 cycles
 Normal termination of Gaussian 16 at Tue Apr  8 22:54:38 2025.
 Gaussian 16:  ES64L-G16RevC.01  3-Jul-2019

 ----------------------------------------------------------------------
 #t hf aug-cc-pvdz iop(5/13=1,5/36=2,99/5=2) pseudo=read geom=check gue
 ss=(read,tcheck) scf=(maxcycle=1)
 ----------------------------------------------------------------------
 -----
 title
 -----
 Structure from the checkpoint file:  "BDE49_expt_1832_mol1.chk"
 Charge =  0 Multiplicity = 1

                         Standard orientation:
 ---------------------------------------------------------------------
 Center     Atomic      Atomic             Coordinates (Angstroms)
 Number     Number       Type             X           Y           Z
 ---------------------------------------------------------------------
      1         16           0        2.448775    0.390531   -0.000041
      2          6           0        1.125499   -0.441158    0.000098
      3          7           0        0.145079   -1.155099    0.000043
      4         16           0       -1.526777   -0.883568   -0.000046
      5          6           0       -1.663696    0.811825    0.000013
      6          7           0       -1.791191    1.964326    0.000061
 ---------------------------------------------------------------------

 SCF Done:  E(RHF) =  -979.939661147     A.U. after    2 cycles

 The electronic state is 1-A.
 Alpha  occ. eigenvalues --  -94.09066 -93.99188 -15.59156 -15.55826 -11.42271
 Alpha  occ. eigenvalues --  -11.32994  -8.36463  -8.27446  -6.34290  -6.34050
 Alpha  occ. eigenvalues --   -6.33758  -6.25316  -6.24931  -6.24844  -1.34085
 Alpha  occ. eigenvalues --   -1.26856  -1.14598  -1.09276  -0.85950  -0.67225
 Alpha  occ. eigenvalues --   -0.66083  -0.65777  -0.64582  -0.59090  -0.57417
 Alpha  occ. eigenvalues --   -0.53732  -0.46757  -0.43606  -0.38805
 Alpha virt. eigenvalues --    0.00649   0.04355   0.06309   0.06650   0.07449
 Alpha virt. eigenvalues --    0.07836   0.09405   0.09805   0.10935   0.11076
 Alpha virt. eigenvalues --    0.13140   0.13218   0.14140   0.15198   0.15910

 Mulliken charges:
               1
     1  S    0.481209
     2  C   -0.967582
     3  N    0.205780
     4  S    0.859767
     5  C   -1.156572
     6  N    0.577398
 Sum of Mulliken charges =  -0.00000

 Dipole moment (field-independent basis, Debye):
    X=              0.3854    Y=             -2.5608    Z=             -0.0001  Tot=              2.5896

 Test job not archived.
 1\1\GINC-SE041\SP\RHF\Aug-CC-pVDZ\C2N2S2\OHZDE\08-Apr-2025\0\\#t hf au
 g-cc-pvdz iop(5/13=1,5/36=2,99/5=2) pseudo=read geom=check guess=(read
 ,tcheck) scf=(maxcycle=1)\\title\\0,1\S,0,2.448775,0.390531,-0.000041\
 C,0,1.125499,-0.441158,0.000098\N,0,0.145079,-1.155099,0.000043\S,0,-1
 .526777,-0.883568,-0.000046\C,0,-1.663696,0.811825,0.000013\N,0,-1.791
 191,1.964326,0.000061\\Version=ES64L-G16RevC.01\State=1-A\HF=-979.9396
 611\RMSD=1.419e-02\Dipole=0.1516105,-1.0074995,-0.0000496\Quadrupole=3
 .5508051,-3.9548066,0.4040014,5.3407159,0.0001461,-0.0002159\PG=C01 [X

 Normal termination of Gaussian 16 at Tue Apr  8 22:54:41 2025.
