 Gaussian 16, Revision C.01,

 ----------------------------------------------------------------------
 #t hf aug-cc-pvdz symm=none int=(grid=ultrafine) guess=(read,tcheck) s
 table=opt
 ----------------------------------------------------------------------
 -----
 title
 -----
 Symbolic Z-matrix:
 Charge =  0 Multiplicity = 2

 SCF Done:  E(UHF) =  -899.309923230     A.U. after   26 cycles
 Normal termination of Gaussian 16 at Tue Apr  8 23:17:43 2025.
 Gaussian 16:  ES64L-G16RevC.01  3-Jul-2019

 ----------------------------------------------------------------------
 #t hf aug-cc-pvdz iop(5/13=1,5/36=2,99/5=2) pseudo=read geom=check gue
 ss=(read,tcheck) scf=(maxcycle=1)
 ----------------------------------------------------------------------
 -----
 title
 -----
 Structure from the checkpoint file:  "BDE49_expt_694_mol2.chk"
 Charge =  0 Multiplicity = 2

                         Standard orientation:
 ---------------------------------------------------------------------
 Center     Atomic      Atomic             Coordinates (Angstroms)
 Number     Number       Type             X           Y           Z
 ---------------------------------------------------------------------
      1          6           0        1.436373   -0.665850    0.000000
      2          6           0        0.131090   -1.426548   -0.000001
      3          6           0       -0.914954   -0.608871   -0.000001
      4          6           0       -0.559629    0.862905    0.000000
      5          7           0        0.926010    0.734500    0.000002
      6          6           0        2.275966   -0.911423    1.265166
      7          1           0        1.675032   -0.770257    2.165583
      8          1           0        3.108559   -0.205595    1.287516
      9          1           0        2.676341   -1.928436    1.268127
     10          6           0        2.275966   -0.911421   -1.265166
     11          1           0        1.675033   -0.770252   -2.165583
     12          1           0        2.676341   -1.928433   -1.268128
     13          1           0        3.108559   -0.205592   -1.287514
     14          6           0       -1.018543    1.603137   -1.265818
     15          1           0       -0.725298    1.058285   -2.165284
     16          1           0       -0.549788    2.588558   -1.286370
     17          1           0       -2.103532    1.724973   -1.267889
     18          6           0       -1.018545    1.603136    1.265819
     19          1           0       -0.725301    1.058282    2.165285
     20          1           0       -2.103534    1.724972    1.267888
     21          1           0       -0.549789    2.588557    1.286372
     22          8           0        1.694114    1.743456    0.000002
     23         17           0       -2.584181   -1.105141   -0.000002
     24          1           0        0.087128   -2.507195   -0.000001
 ---------------------------------------------------------------------

 SCF Done:  E(UHF) =  -899.842598219     A.U. after    2 cycles

 The electronic state is 2-A.
 Alpha  occ. eigenvalues -- -105.58475 -20.57047 -15.59492 -11.31367 -11.30189
 Alpha  occ. eigenvalues --  -11.29864 -11.26168 -11.23714 -11.23698 -11.23545
 Alpha  occ. eigenvalues --  -11.23527 -10.63239  -7.80213  -7.79813  -7.79800
 Alpha  occ. eigenvalues --   -1.53510  -1.23708  -1.12458  -1.09466  -1.00902
 Alpha  occ. eigenvalues --   -1.00222  -0.95485  -0.95265  -0.86100  -0.80010
 Alpha  occ. eigenvalues --   -0.76969  -0.72601  -0.69867  -0.64543  -0.64064
 Alpha  occ. eigenvalues --   -0.62128  -0.60572  -0.60267  -0.58537  -0.57892
 Alpha  occ. eigenvalues --   -0.55721  -0.55589  -0.55256  -0.53600  -0.52593
 Alpha  occ. eigenvalues --   -0.51222  -0.50598  -0.49829  -0.46831  -0.44387
 Alpha  occ. eigenvalues --   -0.39881  -0.37199
 Alpha virt. eigenvalues --    0.03276   0.04105   0.04183   0.04213   0.04802
 Alpha virt. eigenvalues --    0.04908   0.05801   0.06586   0.06596   0.08466
 Alpha virt. eigenvalues --    0.09001   0.09237   0.09876   0.11107   0.11623

  Beta  occ. eigenvalues -- -105.58477 -20.54197 -15.57287 -11.31382 -11.30397
  Beta  occ. eigenvalues --  -11.30076 -11.26136 -11.23642 -11.23626 -11.23474
  Beta  occ. eigenvalues --  -11.23457 -10.63242  -7.80222  -7.79815  -7.79803
  Beta  occ. eigenvalues --   -1.46787  -1.21475  -1.11724  -1.08904  -1.00628
  Beta  occ. eigenvalues --   -0.96784  -0.95082  -0.94994  -0.85927  -0.79116
  Beta  occ. eigenvalues --   -0.75741  -0.68885  -0.64103  -0.63729  -0.63504
  Beta  occ. eigenvalues --   -0.61609  -0.60489  -0.58384  -0.57246  -0.56998
  Beta  occ. eigenvalues --   -0.55691  -0.54807  -0.53487  -0.52943  -0.51331
  Beta  occ. eigenvalues --   -0.50644  -0.49762  -0.46761  -0.44020  -0.41891
  Beta  occ. eigenvalues --   -0.37115
  Beta virt. eigenvalues --    0.03281   0.04106   0.04195   0.04216   0.04807
  Beta virt. eigenvalues --    0.04911   0.05805   0.06549   0.06601   0.08431
  Beta virt. eigenvalues --    0.09003   0.09235   0.09895   0.11086   0.11214

 Mulliken charges and spin densities:
               1          2
     1  C   -2.796959  -0.125596
     2  C    0.987597   0.064575
     3  C    0.375579  -0.012746
     4  C   -2.161151  -0.077365
     5  N    3.276531   0.431433
     6  C    0.115444   0.023628
     7  H    0.152533  -0.002921
     8  H    0.269471  -0.004863
     9  H    0.190128  -0.000358
    10  C    0.115444   0.023627
    11  H    0.152533  -0.002921
    12  H    0.190126  -0.000358
    13  H    0.269473  -0.004863
    14  C   -0.082793   0.018253
    15  H    0.152427  -0.002449
    16  H    0.264019  -0.005471
    17  H    0.202548  -0.000457
    18  C   -0.082796   0.018253
    19  H    0.152429  -0.002449
    20  H    0.202547  -0.000457
    21  H    0.264021  -0.005471
    22  O   -1.849938   0.672438
    23  Cl  -0.184439  -0.001447
    24  H   -0.174774  -0.002016
 Sum of Mulliken charges =  -0.00000   1.00000

 Dipole moment (field-independent basis, Debye):
    X=             -0.0410    Y=             -1.7025    Z=             -0.0000  Tot=              1.7030
                          Isotropic Fermi Contact Couplings
        Atom                 a.u.       MegaHertz       Gauss      10(-4) cm-1
     1  C(13)             -0.03451     -38.79255     -13.84215     -12.93980
     2  C(13)              0.00306       3.44398       1.22890       1.14879
     3  C(13)             -0.00271      -3.04150      -1.08528      -1.01454
     4  C(13)             -0.03422     -38.47151     -13.72759     -12.83271
     5  N(14)              0.24838      80.25364      28.63649      26.76973
     6  C(13)              0.01190      13.38295       4.77537       4.46407
     7  H(1)              -0.00053      -2.37097      -0.84602      -0.79087
     8  H(1)              -0.00069      -3.10115      -1.10657      -1.03443

 Normal termination of Gaussian 16 at Tue Apr  8 23:18:06 2025.
