 Gaussian 16, Revision C.01,

 ----------------------------------------------------------------------
 #t hf aug-cc-pvdz symm=none int=(grid=ultrafine) guess=(read,tcheck) s
 table=(opt,rrhf)
 ----------------------------------------------------------------------
 -----
 title
 -----
 Symbolic Z-matrix:
 Charge =  0 Multiplicity = 1

 SCF Done:  E(RHF) =  -1199.65496890     A.U. after   16 cycles
 Normal termination of Gaussian 16 at Tue Apr  8 23:26:32 2025.
 Gaussian 16:  ES64L-G16RevC.01  3-Jul-2019

 ----------------------------------------------------------------------
 #t hf aug-cc-pvdz iop(5/13=1,5/36=2,99/5=2) pseudo=read geom=check gue
 ss=(read,tcheck) scf=(maxcycle=1)
 ----------------------------------------------------------------------
 -----
 title
 -----
 Structure from the checkpoint file:  "BDE49_nonexpt_1239_mol1.chk"
 Charge =  0 Multiplicity = 1

                         Standard orientation:
 ---------------------------------------------------------------------
 Center     Atomic      Atomic             Coordinates (Angstroms)
 Number     Number       Type             X           Y           Z
 ---------------------------------------------------------------------
      1         17           0        3.932200    0.459108    0.129998
      2          7           0       -0.097830   -1.014645   -0.042431
      3         15           0        2.493424   -1.066091   -0.178602
      4          6           0        0.888527   -0.144763   -0.068946
      5          6           0        0.706881    1.258969   -0.086842
      6          1           0        1.562421    1.920487   -0.111551
      7          6           0       -0.577270    1.742679   -0.061702
      8          1           0       -0.765670    2.811548   -0.071400
      9          6           0       -3.025953    1.265778    0.014067
     10          1           0       -3.246823    2.328017    0.006389
     11          6           0       -4.040254    0.340580    0.055434
     12          1           0       -5.073345    0.667566    0.080507
     13          6           0       -3.746611   -1.044464    0.065546
     14          1           0       -4.559815   -1.760625    0.097766
     15          6           0       -2.446141   -1.484872    0.034148
     16          1           0       -2.196882   -2.538869    0.039874
     17          6           0       -1.378560   -0.553468   -0.008028
     18          6           0       -1.672250    0.845328   -0.018236
     19          1           0        2.465948   -1.493664    1.171856
 ---------------------------------------------------------------------

 SCF Done:  E(RHF) =  -1200.17876147     A.U. after    2 cycles

 The electronic state is 1-A.
 Alpha  occ. eigenvalues -- -105.56223 -84.33649 -15.52050 -11.30733 -11.29276
 Alpha  occ. eigenvalues --  -11.28041 -11.26568 -11.26213 -11.26159 -11.26078
 Alpha  occ. eigenvalues --  -11.25766 -11.25252 -10.61080  -7.77987  -7.77644
 Alpha  occ. eigenvalues --   -7.77613  -6.80278  -4.32824  -4.32316  -4.31808
 Alpha  occ. eigenvalues --   -1.28069  -1.16065  -1.10797  -1.07200  -1.03467
 Alpha  occ. eigenvalues --   -1.02480  -0.91478  -0.89272  -0.84602  -0.81939
 Alpha  occ. eigenvalues --   -0.75292  -0.73103  -0.69656  -0.65997  -0.63596
 Alpha  occ. eigenvalues --   -0.62531  -0.59971  -0.59937  -0.57346  -0.54485
 Alpha  occ. eigenvalues --   -0.54126  -0.51714  -0.49822  -0.48467  -0.47363
 Alpha  occ. eigenvalues --   -0.44343  -0.43924  -0.37634  -0.33994  -0.32871
 Alpha virt. eigenvalues --    0.02910   0.03187   0.03673   0.03822   0.04665
 Alpha virt. eigenvalues --    0.05329   0.06831   0.07159   0.07501   0.07920
 Alpha virt. eigenvalues --    0.08778   0.09270   0.10132   0.10621   0.11655

 Mulliken charges:
               1
     1  Cl  -0.558127
     2  N    1.834234
     3  P    0.433882
     4  C   -1.320609
     5  C   -0.534749
     6  H   -0.240616
     7  C    0.301118
     8  H   -0.280473
     9  C    0.483712
    10  H   -0.299082
    11  C    0.190004
    12  H   -0.249424
    13  C    0.096060
    14  H   -0.227514
    15  C    1.418618
    16  H   -0.284231
    17  C   -2.727658
    18  C    1.443527
    19  H    0.521327
 Sum of Mulliken charges =  -0.00000

 Dipole moment (field-independent basis, Debye):
    X=             -3.0571    Y=              1.3527    Z=              0.2230  Tot=              3.3504

 Test job not archived.
 1\1\GINC-SE092\SP\RHF\Aug-CC-pVDZ\C9H7Cl1N1P1\OHZDE\08-Apr-2025\0\\#t
 hf aug-cc-pvdz iop(5/13=1,5/36=2,99/5=2) pseudo=read geom=check guess=
 (read,tcheck) scf=(maxcycle=1)\\title\\0,1\Cl,0,3.9322,0.459108,0.1299
 98\N,0,-0.09783,-1.014645,-0.042431\P,0,2.493424,-1.066091,-0.178602\C
 ,0,0.888527,-0.144763,-0.068946\C,0,0.706881,1.258969,-0.086842\H,0,1.
 562421,1.920487,-0.111551\C,0,-0.57727,1.742679,-0.061702\H,0,-0.76567
 ,2.811548,-0.0714\C,0,-3.025953,1.265778,0.014067\H,0,-3.246823,2.3280
 17,0.006389\C,0,-4.040254,0.34058,0.055434\H,0,-5.073345,0.667566,0.08

 Normal termination of Gaussian 16 at Tue Apr  8 23:26:47 2025.
