 Gaussian 16, Revision C.01,

 ----------------------------------------------------------------------
 #t hf aug-cc-pvdz symm=none int=(grid=ultrafine) guess=(read,tcheck) s
 table=(opt,rrhf)
 ----------------------------------------------------------------------
 -----
 title
 -----
 Symbolic Z-matrix:
 Charge =  0 Multiplicity = 1

 SCF Done:  E(RHF) =  -823.066480323     A.U. after   14 cycles
 Normal termination of Gaussian 16 at Tue Apr  8 22:51:34 2025.
 Gaussian 16:  ES64L-G16RevC.01  3-Jul-2019

 ----------------------------------------------------------------------
 #t hf aug-cc-pvdz iop(5/13=1,5/36=2,99/5=2) pseudo=read geom=check gue
 ss=(read,tcheck) scf=(maxcycle=1)
 ----------------------------------------------------------------------
 -----
 title
 -----
 Structure from the checkpoint file:  "BDE49_expt_1725_mol1.chk"
 Charge =  0 Multiplicity = 1

                         Standard orientation:
 ---------------------------------------------------------------------
 Center     Atomic      Atomic             Coordinates (Angstroms)
 Number     Number       Type             X           Y           Z
 ---------------------------------------------------------------------
      1          6           0       -1.620917    0.054459    0.795316
      2          6           0       -0.226923   -0.576738    0.758592
      3         17           0       -2.509308   -0.174802   -0.774814
      4          1           0       -1.621082    1.122890    1.000189
      5          1           0       -2.191144   -0.478623    1.548724
      6          7           0        0.776406    0.111920    0.141137
      7          6           0        0.623975    1.412762   -0.516682
      8          8           0       -0.055294   -1.659166    1.298010
      9          6           0        2.107405   -0.511837    0.113282
     10          6           0        1.018002    2.596720    0.372279
     11          1           0       -0.399976    1.522810   -0.871550
     12          1           0        1.247593    1.399300   -1.415409
     13          1           0        0.377102    2.658721    1.255635
     14          1           0        0.924751    3.534675   -0.182170
     15          1           0        2.051748    2.510405    0.715765
     16          6           0        2.292245   -1.463020   -1.070749
     17          1           0        2.238568   -1.055390    1.048778
     18          1           0        2.848192    0.291277    0.082848
     19          1           0        1.580282   -2.287211   -1.005208
     20          1           0        3.302716   -1.881340   -1.064913
     21          1           0        2.144267   -0.950078   -2.025120
 ---------------------------------------------------------------------

 SCF Done:  E(RHF) =  -823.525074644     A.U. after    2 cycles

 The electronic state is 1-A.
 Alpha  occ. eigenvalues -- -105.57070 -20.51340 -15.53042 -11.36717 -11.32063
 Alpha  occ. eigenvalues --  -11.28723 -11.27177 -11.24569 -11.22818 -10.61818
 Alpha  occ. eigenvalues --   -7.78762  -7.78385  -7.78374  -1.46275  -1.25985
 Alpha  occ. eigenvalues --   -1.11434  -1.05030  -1.02434  -0.95034  -0.89460
 Alpha  occ. eigenvalues --   -0.87475  -0.75531  -0.71936  -0.69810  -0.65478
 Alpha  occ. eigenvalues --   -0.63103  -0.62460  -0.60736  -0.59627  -0.57875
 Alpha  occ. eigenvalues --   -0.56596  -0.54594  -0.53439  -0.52055  -0.51798
 Alpha  occ. eigenvalues --   -0.50175  -0.47301  -0.45616  -0.42071  -0.40077
 Alpha virt. eigenvalues --    0.03123   0.03605   0.03786   0.04268   0.05214
 Alpha virt. eigenvalues --    0.05635   0.06009   0.06509   0.06867   0.08654
 Alpha virt. eigenvalues --    0.09536   0.09678   0.10145   0.12217   0.12617

 Mulliken charges:
               1
     1  C   -0.480015
     2  C    0.711903
     3  Cl  -0.030342
     4  H    0.230104
     5  H    0.144612
     6  N    1.086058
     7  C   -0.654281
     8  O   -1.263809
     9  C   -0.513059
    10  C   -0.260056
    11  H    0.098654
    12  H    0.055186
    13  H    0.149327
    14  H    0.132865
    15  H    0.128685
    16  C   -0.186367
    17  H    0.136356
    18  H    0.079842
    19  H    0.167299
    20  H    0.122404
    21  H    0.144632
 Sum of Mulliken charges =  -0.00000

 Dipole moment (field-independent basis, Debye):
    X=              1.6221    Y=              3.5720    Z=             -0.3250  Tot=              3.9365

 Test job not archived.
 1\1\GINC-SE336\SP\RHF\Aug-CC-pVDZ\C6H12Cl1N1O1\OHZDE\08-Apr-2025\0\\#t
  hf aug-cc-pvdz iop(5/13=1,5/36=2,99/5=2) pseudo=read geom=check guess
 =(read,tcheck) scf=(maxcycle=1)\\title\\0,1\C,0,-1.620917,0.054459,0.7
 95316\C,0,-0.226923,-0.576738,0.758592\Cl,0,-2.509308,-0.174801,-0.774
 814\H,0,-1.621082,1.12289,1.000189\H,0,-2.191144,-0.478623,1.548724\N,
 0,0.776406,0.11192,0.141137\C,0,0.623975,1.412762,-0.516682\O,0,-0.055
 294,-1.659166,1.29801\C,0,2.107405,-0.511837,0.113282\C,0,1.018002,2.5
 9672,0.372279\H,0,-0.399976,1.52281,-0.87155\H,0,1.247593,1.3993,-1.41

 Normal termination of Gaussian 16 at Tue Apr  8 22:51:46 2025.
