 Gaussian 16, Revision C.01,

 ----------------------------------------------------------------------
 #t hf aug-cc-pvdz symm=none int=(grid=ultrafine) guess=(read,tcheck) s
 table=(opt,rrhf)
 ----------------------------------------------------------------------
 -----
 title
 -----
 Symbolic Z-matrix:
 Charge =  0 Multiplicity = 1

 SCF Done:  E(RHF) =  -633.160019891     A.U. after   13 cycles
 Normal termination of Gaussian 16 at Wed Apr  9 00:03:01 2025.
 Gaussian 16:  ES64L-G16RevC.01  3-Jul-2019

 ----------------------------------------------------------------------
 #t hf aug-cc-pvdz iop(5/13=1,5/36=2,99/5=2) pseudo=read geom=check gue
 ss=(read,tcheck) scf=(maxcycle=1)
 ----------------------------------------------------------------------
 -----
 title
 -----
 Structure from the checkpoint file:  "BDE49_nonexpt_2175_mol1.chk"
 Charge =  0 Multiplicity = 1

                         Standard orientation:
 ---------------------------------------------------------------------
 Center     Atomic      Atomic             Coordinates (Angstroms)
 Number     Number       Type             X           Y           Z
 ---------------------------------------------------------------------
      1         14           0        0.651270   -0.001579    0.004239
      2          8           0        0.661894   -0.000821    1.648232
      3          8           0        1.458961   -1.318430   -0.558646
      4          1           0        1.474455   -0.258797    2.090182
      5          6           0       -1.147569   -0.005247   -0.500163
      6          6           0       -1.891063    1.254616   -0.014131
      7          6           0       -1.858346   -1.292406   -0.038058
      8          1           0       -1.142925    0.005620   -1.598852
      9          1           0       -1.880288   -1.355716    1.053463
     10          1           0       -1.352384   -2.185660   -0.413047
     11          1           0       -2.893520   -1.315898   -0.395769
     12          1           0       -1.894908    1.312748    1.078119
     13          1           0       -2.933630    1.246230   -0.349579
     14          1           0       -1.434448    2.172583   -0.397972
     15          1           0        2.138605   -1.154832   -1.216499
     16          8           0        1.491332    1.276252   -0.625472
     17          1           0        1.285645    2.158038   -0.308204
 ---------------------------------------------------------------------

 SCF Done:  E(RHF) =  -633.549000726     A.U. after    2 cycles

 The electronic state is 1-A.
 Alpha  occ. eigenvalues --  -69.58335 -20.54739 -20.54374 -20.54241 -11.22818
 Alpha  occ. eigenvalues --  -11.22141 -11.21877  -6.24486  -3.99990  -3.99978
 Alpha  occ. eigenvalues --   -3.99742  -1.45843  -1.42407  -1.41983  -1.05586
 Alpha  occ. eigenvalues --   -0.92850  -0.81919  -0.75739  -0.71412  -0.69886
 Alpha  occ. eigenvalues --   -0.61679  -0.61135  -0.58619  -0.56244  -0.55541
 Alpha  occ. eigenvalues --   -0.54441  -0.53993  -0.52305  -0.50199  -0.48810
 Alpha  occ. eigenvalues --   -0.48141  -0.48023  -0.42179
 Alpha virt. eigenvalues --    0.03243   0.04085   0.04226   0.04564   0.06247
 Alpha virt. eigenvalues --    0.06570   0.06723   0.07291   0.07629   0.09304
 Alpha virt. eigenvalues --    0.09751   0.09994   0.10611   0.12661   0.14741

 Mulliken charges:
               1
     1  Si   3.977991
     2  O   -1.497303
     3  O   -1.549534
     4  H    0.375005
     5  C   -1.273221
     6  C   -0.086878
     7  C   -0.158951
     8  H    0.096988
     9  H    0.179554
    10  H    0.099752
    11  H    0.147823
    12  H    0.166425
    13  H    0.145958
    14  H    0.081023
    15  H    0.418336
    16  O   -1.487092
    17  H    0.364125
 Sum of Mulliken charges =  -0.00000

 Dipole moment (field-independent basis, Debye):
    X=              0.5535    Y=              1.1573    Z=             -0.1976  Tot=              1.2980

 Test job not archived.
 1\1\GINC-SE460\SP\RHF\Aug-CC-pVDZ\C3H10O3Si1\OHZDE\09-Apr-2025\0\\#t h
 f aug-cc-pvdz iop(5/13=1,5/36=2,99/5=2) pseudo=read geom=check guess=(
 read,tcheck) scf=(maxcycle=1)\\title\\0,1\Si,0,0.65127,-0.001579,0.004
 239\O,0,0.661894,-0.000821,1.648232\O,0,1.45896,-1.318431,-0.558646\H,
 0,1.474455,-0.258798,2.090182\C,0,-1.147569,-0.005247,-0.500163\C,0,-1
 .891063,1.254617,-0.014131\C,0,-1.858347,-1.292405,-0.038058\H,0,-1.14
 2925,0.00562,-1.598852\H,0,-1.880289,-1.355715,1.053463\H,0,-1.352385,
 -2.18566,-0.413047\H,0,-2.893521,-1.315897,-0.395769\H,0,-1.894908,1.3

 Normal termination of Gaussian 16 at Wed Apr  9 00:03:07 2025.
