 Gaussian 16, Revision C.01,

 ----------------------------------------------------------------------
 #t hf aug-cc-pvdz symm=none int=(grid=ultrafine) guess=(read,tcheck) s
 table=(opt,rrhf)
 ----------------------------------------------------------------------
 -----
 title
 -----
 Symbolic Z-matrix:
 Charge =  0 Multiplicity = 1

 SCF Done:  E(RHF) =  -633.859242150     A.U. after   13 cycles
 Normal termination of Gaussian 16 at Tue Apr  8 23:51:08 2025.
 Gaussian 16:  ES64L-G16RevC.01  3-Jul-2019

 ----------------------------------------------------------------------
 #t hf aug-cc-pvdz iop(5/13=1,5/36=2,99/5=2) pseudo=read geom=check gue
 ss=(read,tcheck) scf=(maxcycle=1)
 ----------------------------------------------------------------------
 -----
 title
 -----
 Structure from the checkpoint file:  "BDE49_nonexpt_1870_mol1.chk"
 Charge =  0 Multiplicity = 1

                         Standard orientation:
 ---------------------------------------------------------------------
 Center     Atomic      Atomic             Coordinates (Angstroms)
 Number     Number       Type             X           Y           Z
 ---------------------------------------------------------------------
      1         14           0       -0.326525    1.451028    0.190345
      2          6           0        0.794441    0.434869    1.332933
      3          6           0        2.055309   -0.843631   -0.499668
      4          8           0        1.987764    0.086317   -1.269156
      5          6           0        1.343113   -0.906364    0.821824
      6          1           0        2.020213   -1.369098    1.551002
      7          1           0        0.523878   -1.628304    0.685318
      8          1           0        2.648295   -1.745511   -0.764027
      9          6           0       -1.383767    0.349459   -0.962888
     10          1           0        0.391020    2.440523   -0.636786
     11          1           0       -1.273092    2.199284    1.060803
     12          6           0       -2.237194   -0.600470   -0.187818
     13          1           0       -2.001339    1.016094   -1.572124
     14          1           0       -0.690830   -0.196083   -1.607554
     15          8           0       -1.870645   -1.676809    0.230232
     16          1           0       -3.267426   -0.245487    0.032293
     17          1           0        0.227049    0.245809    2.249357
     18          1           0        1.625215    1.089134    1.621981
 ---------------------------------------------------------------------

 SCF Done:  E(RHF) =  -634.243898770     A.U. after    2 cycles

 The electronic state is 1-A.
 Alpha  occ. eigenvalues --  -69.53381 -20.55410 -20.54521 -11.34920 -11.34890
 Alpha  occ. eigenvalues --  -11.25479 -11.23645 -11.23401  -6.20319  -3.95704
 Alpha  occ. eigenvalues --   -3.95664  -3.95645  -1.48552  -1.47627  -1.06811
 Alpha  occ. eigenvalues --   -1.02233  -0.92209  -0.80902  -0.78742  -0.71239
 Alpha  occ. eigenvalues --   -0.69241  -0.67939  -0.65078  -0.62972  -0.61822
 Alpha  occ. eigenvalues --   -0.56616  -0.55974  -0.55379  -0.53983  -0.50561
 Alpha  occ. eigenvalues --   -0.48020  -0.45854  -0.44176  -0.42134  -0.41572
 Alpha virt. eigenvalues --    0.03308   0.03332   0.03872   0.04362   0.05391
 Alpha virt. eigenvalues --    0.05950   0.06119   0.07301   0.07801   0.08779
 Alpha virt. eigenvalues --    0.09323   0.09929   0.10618   0.11328   0.12201

 Mulliken charges:
               1
     1  Si   1.272379
     2  C   -0.642212
     3  C    1.019793
     4  O   -1.149159
     5  C   -0.401971
     6  H    0.156715
     7  H    0.241045
     8  H    0.116442
     9  C   -0.736442
    10  H   -0.107415
    11  H   -0.160902
    12  C    1.094944
    13  H    0.020421
    14  H    0.143665
    15  O   -1.210506
    16  H    0.120506
    17  H    0.203161
    18  H    0.019536
 Sum of Mulliken charges =   0.00000

 Dipole moment (field-independent basis, Debye):
    X=              0.1284    Y=              0.2620    Z=              0.9255  Tot=              0.9704

 Test job not archived.
 1\1\GINC-SE361\SP\RHF\Aug-CC-pVDZ\C5H10O2Si1\OHZDE\08-Apr-2025\0\\#t h
 f aug-cc-pvdz iop(5/13=1,5/36=2,99/5=2) pseudo=read geom=check guess=(
 read,tcheck) scf=(maxcycle=1)\\title\\0,1\Si,0,-0.326525,1.451028,0.19
 0345\C,0,0.794441,0.434869,1.332933\C,0,2.055309,-0.843631,-0.499668\O
 ,0,1.987764,0.086317,-1.269156\C,0,1.343113,-0.906364,0.821824\H,0,2.0
 20213,-1.369098,1.551002\H,0,0.523878,-1.628304,0.685318\H,0,2.648295,
 -1.745511,-0.764027\C,0,-1.383767,0.349459,-0.962888\H,0,0.39102,2.440
 523,-0.636786\H,0,-1.273092,2.199284,1.060803\C,0,-2.237194,-0.60047,-

 Normal termination of Gaussian 16 at Tue Apr  8 23:51:16 2025.
