 Gaussian 16, Revision C.01,

 ----------------------------------------------------------------------
 #t hf aug-cc-pvdz symm=none int=(grid=ultrafine) guess=(read,tcheck) s
 table=(opt,rrhf)
 ----------------------------------------------------------------------
 -----
 title
 -----
 Symbolic Z-matrix:
 Charge =  0 Multiplicity = 1

 SCF Done:  E(RHF) =  -941.014773054     A.U. after   13 cycles
 Normal termination of Gaussian 16 at Wed Apr  9 00:02:40 2025.
 Gaussian 16:  ES64L-G16RevC.01  3-Jul-2019

 ----------------------------------------------------------------------
 #t hf aug-cc-pvdz iop(5/13=1,5/36=2,99/5=2) pseudo=read geom=check gue
 ss=(read,tcheck) scf=(maxcycle=1)
 ----------------------------------------------------------------------
 -----
 title
 -----
 Structure from the checkpoint file:  "BDE49_nonexpt_2170_mol1.chk"
 Charge =  0 Multiplicity = 1

                         Standard orientation:
 ---------------------------------------------------------------------
 Center     Atomic      Atomic             Coordinates (Angstroms)
 Number     Number       Type             X           Y           Z
 ---------------------------------------------------------------------
      1          6           0        2.746220    0.483769   -0.000006
      2          8           0        1.405915    0.742225    0.000004
      3         14           0        0.118880   -0.313719    0.000005
      4          6           0       -1.394978    0.801045   -0.000005
      5          6           0        3.325100   -0.713269   -0.000003
      6          1           0        3.321535    1.403586   -0.000017
      7          1           0        2.764108   -1.640764    0.000009
      8          1           0        4.404337   -0.782560   -0.000012
      9         17           0       -2.871440   -0.264797   -0.000001
     10          1           0       -1.454496    1.431056   -0.886547
     11          1           0       -1.454499    1.431067    0.886529
     12          1           0        0.131895   -1.157919    1.212360
     13          1           0        0.131904   -1.157931   -1.212340
 ---------------------------------------------------------------------

 SCF Done:  E(RHF) =  -941.322835189     A.U. after    2 cycles

 The electronic state is 1-A.
 Alpha  occ. eigenvalues -- -105.56500 -69.57541 -20.56889 -11.31825 -11.29695
 Alpha  occ. eigenvalues --  -11.23570 -10.61237  -7.78178  -7.77812  -7.77799
 Alpha  occ. eigenvalues --   -6.24154  -3.99645  -3.99490  -3.99444  -1.48304
 Alpha  occ. eigenvalues --   -1.09737  -1.03925  -0.91276  -0.84298  -0.72151
 Alpha  occ. eigenvalues --   -0.69425  -0.65584  -0.63969  -0.59656  -0.56948
 Alpha  occ. eigenvalues --   -0.56004  -0.53743  -0.49688  -0.48570  -0.45188
 Alpha  occ. eigenvalues --   -0.43486  -0.36511
 Alpha virt. eigenvalues --    0.03409   0.03887   0.04468   0.04770   0.05878
 Alpha virt. eigenvalues --    0.06667   0.07742   0.08185   0.09845   0.09957
 Alpha virt. eigenvalues --    0.10721   0.11697   0.13018   0.14288   0.15018

 Mulliken charges:
               1
     1  C    1.078473
     2  O   -1.718121
     3  Si   1.773924
     4  C   -0.756663
     5  C    0.019804
     6  H   -0.081293
     7  H   -0.098242
     8  H   -0.080844
     9  Cl  -0.156944
    10  H    0.161910
    11  H    0.161909
    12  H   -0.151959
    13  H   -0.151956
 Sum of Mulliken charges =  -0.00000

 Dipole moment (field-independent basis, Debye):
    X=              1.6257    Y=              0.9422    Z=             -0.0000  Tot=              1.8790

 Test job not archived.
 1\1\GINC-SE368\SP\RHF\Aug-CC-pVDZ\C3H7Cl1O1Si1\OHZDE\09-Apr-2025\0\\#t
  hf aug-cc-pvdz iop(5/13=1,5/36=2,99/5=2) pseudo=read geom=check guess
 =(read,tcheck) scf=(maxcycle=1)\\title\\0,1\C,0,2.74622,0.483769,-0.00
 0006\O,0,1.405915,0.742225,0.000004\Si,0,0.11888,-0.313719,0.000005\C,
 0,-1.394978,0.801045,-0.000005\C,0,3.3251,-0.713269,-0.000003\H,0,3.32
 1535,1.403586,-0.000017\H,0,2.764108,-1.640764,0.000009\H,0,4.404337,-
 0.78256,-0.000012\Cl,0,-2.87144,-0.264797,-0.000001\H,0,-1.454496,1.43
 1056,-0.886547\H,0,-1.454499,1.431067,0.886529\H,0,0.131895,-1.157919,

 Normal termination of Gaussian 16 at Wed Apr  9 00:02:44 2025.
