 Gaussian 16, Revision C.01,

 ----------------------------------------------------------------------
 #t hf aug-cc-pvdz symm=none int=(grid=ultrafine) guess=(read,tcheck) s
 table=(opt,rrhf)
 ----------------------------------------------------------------------
 -----
 title
 -----
 Symbolic Z-matrix:
 Charge =  0 Multiplicity = 1

 SCF Done:  E(RHF) =  -896.126062217     A.U. after   16 cycles
 Normal termination of Gaussian 16 at Tue Apr  8 23:56:09 2025.
 Gaussian 16:  ES64L-G16RevC.01  3-Jul-2019

 ----------------------------------------------------------------------
 #t hf aug-cc-pvdz iop(5/13=1,5/36=2,99/5=2) pseudo=read geom=check gue
 ss=(read,tcheck) scf=(maxcycle=1)
 ----------------------------------------------------------------------
 -----
 title
 -----
 Structure from the checkpoint file:  "BDE49_nonexpt_1997_mol1.chk"
 Charge =  0 Multiplicity = 1

                         Standard orientation:
 ---------------------------------------------------------------------
 Center     Atomic      Atomic             Coordinates (Angstroms)
 Number     Number       Type             X           Y           Z
 ---------------------------------------------------------------------
      1          9           0       -0.068905    1.461383    1.290888
      2         14           0        0.000000    0.578538   -0.000000
      3          7           0       -1.458216   -0.509781   -0.131314
      4          7           0        1.458212   -0.509788    0.131306
      5          8           0        2.431317   -0.365580   -0.584870
      6          8           0        1.315946   -1.338638    1.029322
      7          8           0       -1.315946   -1.338638   -1.029322
      8          8           0       -2.431317   -0.365581    0.584871
      9          9           0        0.068908    1.461390   -1.290882
 ---------------------------------------------------------------------

 SCF Done:  E(RHF) =  -896.718491879     A.U. after    2 cycles

 The electronic state is 1-A.
 Alpha  occ. eigenvalues --  -69.78311 -26.55928 -26.55927 -20.65234 -20.65233
 Alpha  occ. eigenvalues --  -20.64663 -20.64661 -15.81995 -15.81972  -6.44003
 Alpha  occ. eigenvalues --   -4.19385  -4.19287  -4.19186  -1.71871  -1.71396
 Alpha  occ. eigenvalues --   -1.68603  -1.66627  -1.56134  -1.55986  -1.09043
 Alpha  occ. eigenvalues --   -1.04255  -0.89059  -0.85793  -0.83433  -0.80739
 Alpha  occ. eigenvalues --   -0.79433  -0.78963  -0.78842  -0.77242  -0.74661
 Alpha  occ. eigenvalues --   -0.73820  -0.72453  -0.70885  -0.55363  -0.55046
 Alpha  occ. eigenvalues --   -0.53496  -0.51881  -0.49912  -0.49219
 Alpha virt. eigenvalues --   -0.00546   0.00115   0.04181   0.05427   0.05914
 Alpha virt. eigenvalues --    0.06807   0.11794   0.13448   0.13576   0.14889
 Alpha virt. eigenvalues --    0.15404   0.16899   0.16946   0.18359   0.18637

 Mulliken charges:
               1
     1  F   -0.846787
     2  Si   2.593619
     3  N    1.942233
     4  N    1.942234
     5  O   -1.160269
     6  O   -1.231987
     7  O   -1.231987
     8  O   -1.160269
     9  F   -0.846788
 Sum of Mulliken charges =  -0.00000

 Dipole moment (field-independent basis, Debye):
    X=              0.0000    Y=              2.3959    Z=             -0.0000  Tot=              2.3959

 Test job not archived.
 1\1\GINC-SE060\SP\RHF\Aug-CC-pVDZ\F2N2O4Si1\OHZDE\08-Apr-2025\0\\#t hf
  aug-cc-pvdz iop(5/13=1,5/36=2,99/5=2) pseudo=read geom=check guess=(r
 ead,tcheck) scf=(maxcycle=1)\\title\\0,1\F,0,0.068905,1.461383,-1.2908
 88\Si,0,0.,0.578538,0.\N,0,1.458216,-0.509781,0.131314\N,0,-1.458212,-
 0.509788,-0.131306\O,0,-2.431317,-0.36558,0.58487\O,0,-1.315946,-1.338
 638,-1.029322\O,0,1.315946,-1.338638,1.029322\O,0,2.431317,-0.365581,-
 0.584871\F,0,-0.068908,1.46139,1.290882\\Version=ES64L-G16RevC.01\Stat
 e=1-A\HF=-896.7184919\RMSD=1.356e-02\Dipole=-0.000001,0.94263,0.000005

 Normal termination of Gaussian 16 at Tue Apr  8 23:56:14 2025.
