 Gaussian 16, Revision C.01,

 ----------------------------------------------------------------------
 #t hf aug-cc-pvdz symm=none int=(grid=ultrafine) guess=(read,tcheck) s
 table=(opt,rrhf)
 ----------------------------------------------------------------------
 -----
 title
 -----
 Symbolic Z-matrix:
 Charge =  0 Multiplicity = 1

 SCF Done:  E(RHF) =  -1007.65419493     A.U. after   16 cycles
 Normal termination of Gaussian 16 at Tue Apr  8 23:20:53 2025.
 Gaussian 16:  ES64L-G16RevC.01  3-Jul-2019

 ----------------------------------------------------------------------
 #t hf aug-cc-pvdz iop(5/13=1,5/36=2,99/5=2) pseudo=read geom=check gue
 ss=(read,tcheck) scf=(maxcycle=1)
 ----------------------------------------------------------------------
 -----
 title
 -----
 Structure from the checkpoint file:  "BDE49_nonexpt_1148_mol1.chk"
 Charge =  0 Multiplicity = 1

                         Standard orientation:
 ---------------------------------------------------------------------
 Center     Atomic      Atomic             Coordinates (Angstroms)
 Number     Number       Type             X           Y           Z
 ---------------------------------------------------------------------
      1          9           0       -1.873089   -1.173591   -0.000012
      2          8           0       -0.302783   -1.238876    0.000008
      3          6           0        0.253129   -0.036578    0.000046
      4         16           0        1.882593   -0.199930   -0.000038
      5         16           0       -0.655413    1.439441    0.000022
      6          1           0       -1.873587    0.860626    0.000035
 ---------------------------------------------------------------------

 SCF Done:  E(RHF) =  -1007.96574270     A.U. after    2 cycles

 The electronic state is 1-A.
 Alpha  occ. eigenvalues --  -94.03015 -93.95878 -26.53540 -20.76638 -11.45534
 Alpha  occ. eigenvalues --   -8.31171  -8.24166  -6.28999  -6.28815  -6.28606
 Alpha  occ. eigenvalues --   -6.22009  -6.21673  -6.21570  -1.66577  -1.48100
 Alpha  occ. eigenvalues --   -1.14915  -1.05252  -0.84375  -0.74009  -0.73495
 Alpha  occ. eigenvalues --   -0.69969  -0.62878  -0.62787  -0.56292  -0.55167
 Alpha  occ. eigenvalues --   -0.48485  -0.38910  -0.38746
 Alpha virt. eigenvalues --    0.02307   0.03517   0.04690   0.07406   0.07969
 Alpha virt. eigenvalues --    0.09876   0.10704   0.11187   0.13412   0.13907
 Alpha virt. eigenvalues --    0.14819   0.15342   0.15915   0.17284   0.20457

 Mulliken charges:
               1
     1  F   -0.329143
     2  O   -0.472650
     3  C   -0.010456
     4  S    0.199381
     5  S    0.155574
     6  H    0.457294
 Sum of Mulliken charges =  -0.00000

 Dipole moment (field-independent basis, Debye):
    X=             -2.1077    Y=              1.5385    Z=              0.0001  Tot=              2.6094

 Test job not archived.
 1\1\GINC-SE099\SP\RHF\Aug-CC-pVDZ\C1H1F1O1S2\OHZDE\08-Apr-2025\0\\#t h
 f aug-cc-pvdz iop(5/13=1,5/36=2,99/5=2) pseudo=read geom=check guess=(
 read,tcheck) scf=(maxcycle=1)\\title\\0,1\F,0,-1.873089,-1.173591,-0.0
 00012\O,0,-0.302783,-1.238876,0.000008\C,0,0.253129,-0.036578,0.000046
 \S,0,1.882593,-0.19993,-0.000038\S,0,-0.655413,1.439441,0.000022\H,0,-
 1.873587,0.860626,0.000035\\Version=ES64L-G16RevC.01\State=1-A\HF=-100
 7.9657427\RMSD=5.971e-03\Dipole=-0.8292183,0.605286,0.0000274\Quadrupo
 le=0.759706,-0.3100896,-0.4496164,-2.3556021,-0.0001265,-0.0000687\PG=

 Normal termination of Gaussian 16 at Tue Apr  8 23:20:56 2025.
