 Gaussian 16, Revision C.01,

 ----------------------------------------------------------------------
 #t hf aug-cc-pvdz symm=none int=(grid=ultrafine) guess=(read,tcheck) s
 table=(opt,rrhf)
 ----------------------------------------------------------------------
 -----
 title
 -----
 Symbolic Z-matrix:
 Charge =  0 Multiplicity = 1

 SCF Done:  E(RHF) =  -636.356372073     A.U. after   16 cycles
 Normal termination of Gaussian 16 at Wed Apr  9 00:45:15 2025.
 Gaussian 16:  ES64L-G16RevC.01  3-Jul-2019

 ----------------------------------------------------------------------
 #t hf aug-cc-pvdz iop(5/13=1,5/36=2,99/5=2) pseudo=read geom=check gue
 ss=(read,tcheck) scf=(maxcycle=1)
 ----------------------------------------------------------------------
 -----
 title
 -----
 Structure from the checkpoint file:  "BDE49_nonexpt_760_mol1.chk"
 Charge =  0 Multiplicity = 1

                         Standard orientation:
 ---------------------------------------------------------------------
 Center     Atomic      Atomic             Coordinates (Angstroms)
 Number     Number       Type             X           Y           Z
 ---------------------------------------------------------------------
      1         15           0       -2.437631   -0.450418   -0.379292
      2          5           0       -0.969922    0.713158   -0.159024
      3          6           0        0.520283    0.310815   -0.064066
      4          6           0        1.506034    1.319773   -0.059343
      5          6           0        0.964903   -1.024885    0.027697
      6          6           0        2.315698   -1.336255    0.114464
      7          6           0        3.266596   -0.314085    0.119249
      8          6           0        2.860585    1.016276    0.033790
      9          1           0        4.321494   -0.556252    0.190056
     10          1           0        3.598597    1.810768    0.037234
     11          1           0        1.193887    2.356131   -0.131415
     12          1           0        0.238932   -1.830840    0.032369
     13          1           0        2.632822   -2.371078    0.181077
     14          6           0       -3.875880    0.345991    0.495739
     15          1           0       -3.694978    0.506339    1.558587
     16          1           0       -4.765006   -0.274372    0.372610
     17          1           0       -4.068532    1.310487    0.022055
     18          1           0       -1.237445    1.875419   -0.255655
     19          1           0       -2.155005   -1.541900    0.472410
 ---------------------------------------------------------------------

 SCF Done:  E(RHF) =  -636.710807327     A.U. after    2 cycles

 The electronic state is 1-A.
 Alpha  occ. eigenvalues --  -84.24714 -11.25729 -11.25345 -11.25318 -11.24595
 Alpha  occ. eigenvalues --  -11.24550 -11.24074 -11.22616  -7.59835  -6.72130
 Alpha  occ. eigenvalues --   -4.24761  -4.24652  -4.23865  -1.15627  -1.02256
 Alpha  occ. eigenvalues --   -1.02170  -0.98344  -0.84910  -0.83769  -0.80457
 Alpha  occ. eigenvalues --   -0.72708  -0.66922  -0.64571  -0.62818  -0.60410
 Alpha  occ. eigenvalues --   -0.58557  -0.57774  -0.55073  -0.51532  -0.50842
 Alpha  occ. eigenvalues --   -0.49357  -0.46084  -0.43362  -0.36149  -0.35052
 Alpha  occ. eigenvalues --   -0.30651
 Alpha virt. eigenvalues --    0.03281   0.03314   0.03522   0.04333   0.04752
 Alpha virt. eigenvalues --    0.04882   0.04997   0.06759   0.07152   0.07218
 Alpha virt. eigenvalues --    0.08247   0.09107   0.09573   0.10053   0.10554

 Mulliken charges:
               1
     1  P   -0.286421
     2  B    0.083095
     3  C    0.023525
     4  C    0.254399
     5  C    0.414923
     6  C    0.120898
     7  C    0.371035
     8  C    0.271265
     9  H   -0.209617
    10  H   -0.212235
    11  H   -0.339463
    12  H   -0.282755
    13  H   -0.233272
    14  C   -0.803218
    15  H    0.097265
    16  H    0.084611
    17  H    0.113075
    18  H    0.141170
    19  H    0.391718
 Sum of Mulliken charges =  -0.00000

 Dipole moment (field-independent basis, Debye):
    X=              0.6442    Y=              0.0036    Z=              0.9447  Tot=              1.1434

 Test job not archived.
 1\1\GINC-SE071\SP\RHF\Aug-CC-pVDZ\C7H10B1P1\OHZDE\09-Apr-2025\0\\#t hf
  aug-cc-pvdz iop(5/13=1,5/36=2,99/5=2) pseudo=read geom=check guess=(r
 ead,tcheck) scf=(maxcycle=1)\\title\\0,1\P,0,-2.437631,-0.450418,-0.37
 9292\B,0,-0.969922,0.713158,-0.159024\C,0,0.520283,0.310815,-0.064066\
 C,0,1.506034,1.319773,-0.059343\C,0,0.964903,-1.024885,0.027697\C,0,2.
 315698,-1.336255,0.114464\C,0,3.266596,-0.314085,0.119249\C,0,2.860585
 ,1.016276,0.03379\H,0,4.321494,-0.556252,0.190056\H,0,3.598597,1.81076
 8,0.037234\H,0,1.193887,2.356131,-0.131415\H,0,0.238932,-1.83084,0.032

 Normal termination of Gaussian 16 at Wed Apr  9 00:45:24 2025.
