 Gaussian 16, Revision C.01,

 ----------------------------------------------------------------------
 #t hf aug-cc-pvdz symm=none int=(grid=ultrafine) guess=(read,tcheck) s
 table=(opt,rrhf)
 ----------------------------------------------------------------------
 -----
 title
 -----
 Symbolic Z-matrix:
 Charge =  0 Multiplicity = 1

 SCF Done:  E(RHF) =  -631.750338855     A.U. after   12 cycles

 1\1\GINC-SE128\Stability\RHF\Aug-CC-pVDZ\C6H12S1\OHZDE\08-Apr-2025\0\\
 #t hf aug-cc-pvdz symm=none int=(grid=ultrafine) guess=(read,tcheck) s
 table=(opt,rrhf)\\title\\0,1\C,0,-0.002805,-0.161694,0.77841\C,0,-1.21
 2187,-1.101113,0.602243\C,0,-0.613412,1.229772,0.544104\C,0,-1.623884,
 1.030134,-0.602949\H,0,0.127175,2.003681,0.332527\H,0,-1.135263,1.5287
 3,1.461837\C,0,-2.106904,-0.442839,-0.481047\H,0,-1.129405,1.184715,-1
 .563829\H,0,-2.4474,1.745239,-0.545407\H,0,-3.160752,-0.500805,-0.1994
 61\H,0,-2.007287,-0.96026,-1.437193\H,0,-1.745955,-1.147681,1.556655\H

 Normal termination of Gaussian 16 at Tue Apr  8 22:46:31 2025.
 Gaussian 16:  ES64L-G16RevC.01  3-Jul-2019

 ----------------------------------------------------------------------
 #t hf aug-cc-pvdz iop(5/13=1,5/36=2,99/5=2) pseudo=read geom=check gue
 ss=(read,tcheck) scf=(maxcycle=1)
 ----------------------------------------------------------------------
 -----
 title
 -----
 Structure from the checkpoint file:  "BDE49_expt_1572_mol1.chk"
 Charge =  0 Multiplicity = 1

                         Standard orientation:
 ---------------------------------------------------------------------
 Center     Atomic      Atomic             Coordinates (Angstroms)
 Number     Number       Type             X           Y           Z
 ---------------------------------------------------------------------
      1          6           0       -0.002805   -0.161694    0.778410
      2          6           0       -1.212187   -1.101113    0.602243
      3          6           0       -0.613412    1.229772    0.544104
      4          6           0       -1.623884    1.030134   -0.602949
      5          1           0        0.127175    2.003681    0.332527
      6          1           0       -1.135263    1.528730    1.461837
      7          6           0       -2.106904   -0.442839   -0.481047
      8          1           0       -1.129405    1.184715   -1.563829
      9          1           0       -2.447400    1.745239   -0.545407
     10          1           0       -3.160752   -0.500805   -0.199461
     11          1           0       -2.007287   -0.960260   -1.437193
     12          1           0       -1.745955   -1.147681    1.556655
     13          1           0       -0.918166   -2.122669    0.352433
     14         16           0        1.293165   -0.624211   -0.451812
     15          1           0        0.450836   -0.260684    1.767403
     16          6           0        2.640156    0.505046    0.024084
     17          1           0        2.924402    0.354056    1.067505
     18          1           0        2.373674    1.549817   -0.141522
     19          1           0        3.491725    0.257402   -0.611022
 ---------------------------------------------------------------------

 SCF Done:  E(RHF) =  -632.070286881     A.U. after    2 cycles

 The electronic state is 1-A.
 Alpha  occ. eigenvalues --  -93.93097 -11.26317 -11.25931 -11.23132 -11.23082
 Alpha  occ. eigenvalues --  -11.22496 -11.22352  -8.21167  -6.18994  -6.18835
 Alpha  occ. eigenvalues --   -6.18625  -1.13678  -1.04854  -0.96788  -0.95911
 Alpha  occ. eigenvalues --   -0.86458  -0.78057  -0.75314  -0.67028  -0.65394
 Alpha  occ. eigenvalues --   -0.59914  -0.58996  -0.58177  -0.55400  -0.50763
 Alpha  occ. eigenvalues --   -0.50134  -0.48802  -0.48090  -0.46963  -0.45583
 Alpha  occ. eigenvalues --   -0.42039  -0.33893
 Alpha virt. eigenvalues --    0.03403   0.03626   0.03997   0.04402   0.05613
 Alpha virt. eigenvalues --    0.05943   0.06201   0.06673   0.06787   0.09080
 Alpha virt. eigenvalues --    0.09261   0.09604   0.11356   0.13265   0.13742

 Mulliken charges:
               1
     1  C   -0.410479
     2  C   -0.055125
     3  C   -0.088505
     4  C   -0.359682
     5  H    0.086246
     6  H    0.147985
     7  C   -0.128706
     8  H    0.121174
     9  H    0.091052
    10  H    0.133433
    11  H    0.134106
    12  H    0.137671
    13  H    0.101254
    14  S    0.322831
    15  H    0.043498
    16  C   -0.765831
    17  H    0.174678
    18  H    0.172596
    19  H    0.141804
 Sum of Mulliken charges =  -0.00000

 Dipole moment (field-independent basis, Debye):
    X=             -0.2311    Y=              1.2468    Z=              1.2639  Tot=              1.7904

 Test job not archived.
 1\1\GINC-SE128\SP\RHF\Aug-CC-pVDZ\C6H12S1\OHZDE\08-Apr-2025\0\\#t hf a
 ug-cc-pvdz iop(5/13=1,5/36=2,99/5=2) pseudo=read geom=check guess=(rea
 d,tcheck) scf=(maxcycle=1)\\title\\0,1\C,0,-0.002805,-0.161694,0.77841
 \C,0,-1.212187,-1.101113,0.602243\C,0,-0.613412,1.229772,0.544104\C,0,
 -1.623884,1.030134,-0.602949\H,0,0.127175,2.003681,0.332527\H,0,-1.135
 263,1.52873,1.461837\C,0,-2.106904,-0.442839,-0.481047\H,0,-1.129405,1
 .184715,-1.563829\H,0,-2.4474,1.745239,-0.545407\H,0,-3.160752,-0.5008
 05,-0.199461\H,0,-2.007287,-0.96026,-1.437193\H,0,-1.745955,-1.147681,

 Normal termination of Gaussian 16 at Tue Apr  8 22:46:40 2025.
