 Gaussian 16, Revision C.01,

 ----------------------------------------------------------------------
 #t hf aug-cc-pvdz symm=none int=(grid=ultrafine) guess=(read,tcheck) s
 table=(opt,rrhf)
 ----------------------------------------------------------------------
 -----
 title
 -----
 Symbolic Z-matrix:
 Charge =  0 Multiplicity = 1

 SCF Done:  E(RHF) =  -469.873856100     A.U. after   15 cycles
 Normal termination of Gaussian 16 at Wed Apr  9 00:34:21 2025.
 Gaussian 16:  ES64L-G16RevC.01  3-Jul-2019

 ----------------------------------------------------------------------
 #t hf aug-cc-pvdz iop(5/13=1,5/36=2,99/5=2) pseudo=read geom=check gue
 ss=(read,tcheck) scf=(maxcycle=1)
 ----------------------------------------------------------------------
 -----
 title
 -----
 Structure from the checkpoint file:  "BDE49_nonexpt_428_mol1.chk"
 Charge =  0 Multiplicity = 1

                         Standard orientation:
 ---------------------------------------------------------------------
 Center     Atomic      Atomic             Coordinates (Angstroms)
 Number     Number       Type             X           Y           Z
 ---------------------------------------------------------------------
      1          9           0        2.414091   -1.126211   -0.000103
      2          5           0        1.718106    0.005728    0.000140
      3          9           0        2.419943    1.135649   -0.000105
      4          6           0        0.176024    0.015064    0.000079
      5          6           0       -0.554478    1.212446    0.000053
      6          6           0       -0.558014   -1.181700    0.000053
      7          7           0       -1.890590   -1.249617    0.000007
      8          6           0       -1.941346    1.161497    0.000006
      9          6           0       -2.557177   -0.089731   -0.000016
     10          1           0       -0.035697    2.164737    0.000072
     11          1           0       -2.539993    2.064374   -0.000014
     12          1           0       -0.035997   -2.134389    0.000073
     13          1           0       -3.641075   -0.166442   -0.000053
 ---------------------------------------------------------------------

 SCF Done:  E(RHF) =  -470.326614049     A.U. after    2 cycles

 The electronic state is 1-A.
 Alpha  occ. eigenvalues --  -26.48088 -26.48009 -15.51865 -11.30424 -11.30307
 Alpha  occ. eigenvalues --  -11.28814 -11.26253 -11.24642  -7.72408  -1.63170
 Alpha  occ. eigenvalues --   -1.59169  -1.27496  -1.10906  -1.05614  -0.90038
 Alpha  occ. eigenvalues --   -0.88729  -0.80795  -0.76160  -0.74775  -0.71274
 Alpha  occ. eigenvalues --   -0.69901  -0.69521  -0.65330  -0.63499  -0.62495
 Alpha  occ. eigenvalues --   -0.60769  -0.59724  -0.57660  -0.53598  -0.46532
 Alpha  occ. eigenvalues --   -0.42277  -0.37796
 Alpha virt. eigenvalues --    0.02936   0.03874   0.04363   0.04683   0.05140
 Alpha virt. eigenvalues --    0.05274   0.05888   0.07568   0.07975   0.08919
 Alpha virt. eigenvalues --    0.11212   0.11795   0.12296   0.12917   0.13846

 Mulliken charges:
               1
     1  F   -0.759797
     2  B    1.272169
     3  F   -0.762246
     4  C    1.158593
     5  C   -0.052830
     6  C   -0.950642
     7  N    1.001255
     8  C    0.701033
     9  C   -0.756093
    10  H   -0.258925
    11  H   -0.170071
    12  H   -0.260242
    13  H   -0.162203
 Sum of Mulliken charges =  -0.00000

 Dipole moment (field-independent basis, Debye):
    X=             -1.1840    Y=              2.3274    Z=              0.0007  Tot=              2.6113

 Test job not archived.
 1\1\GINC-SE070\SP\RHF\Aug-CC-pVDZ\C5H4B1F2N1\OHZDE\09-Apr-2025\0\\#t h
 f aug-cc-pvdz iop(5/13=1,5/36=2,99/5=2) pseudo=read geom=check guess=(
 read,tcheck) scf=(maxcycle=1)\\title\\0,1\F,0,-2.414091,-1.126211,0.00
 0103\B,0,-1.718106,0.005728,-0.00014\F,0,-2.419943,1.135649,0.000105\C
 ,0,-0.176024,0.015064,-0.000079\C,0,0.554478,1.212446,-0.000053\C,0,0.
 558014,-1.1817,-0.000053\N,0,1.89059,-1.249617,-0.000007\C,0,1.941346,
 1.161497,-0.000006\C,0,2.557177,-0.089731,0.000016\H,0,0.035697,2.1647
 37,-0.000072\H,0,2.539993,2.064374,0.000014\H,0,0.035997,-2.134389,-0.

 Normal termination of Gaussian 16 at Wed Apr  9 00:34:26 2025.
