 Gaussian 16, Revision C.01,

 ----------------------------------------------------------------------
 #t hf aug-cc-pvdz symm=none int=(grid=ultrafine) guess=(read,tcheck) s
 table=(opt,rrhf)
 ----------------------------------------------------------------------
 -----
 title
 -----
 Symbolic Z-matrix:
 Charge =  0 Multiplicity = 1

 SCF Done:  E(RHF) =  -922.673337939     A.U. after   11 cycles

 1\1\GINC-SE343\Stability\RHF\Aug-CC-pVDZ\H7P1Si2\OHZDE\09-Apr-2025\0\\
 #t hf aug-cc-pvdz symm=none int=(grid=ultrafine) guess=(read,tcheck) s
 table=(opt,rrhf)\\title\\0,1\Si,0,-1.922865,-0.3872,-0.005206\Si,0,0.0
 70401,0.872384,0.014173\H,0,-1.997169,-1.214533,-1.233057\H,0,-3.09852
 8,0.515915,0.035473\H,0,-1.973661,-1.284089,1.175008\P,0,1.882461,-0.5
 18207,-0.107629\H,0,0.099733,1.747073,1.213658\H,0,0.115839,1.741336,-
 1.188388\H,0,1.733483,-1.0068,1.217239\H,0,2.817878,0.481627,0.268963\
 \Version=ES64L-G16RevC.01\HF=-922.6733379\RMSD=5.237e-09\Dipole=-0.060

 Normal termination of Gaussian 16 at Wed Apr  9 00:13:04 2025.
 Gaussian 16:  ES64L-G16RevC.01  3-Jul-2019

 ----------------------------------------------------------------------
 #t hf aug-cc-pvdz iop(5/13=1,5/36=2,99/5=2) pseudo=read geom=check gue
 ss=(read,tcheck) scf=(maxcycle=1)
 ----------------------------------------------------------------------
 -----
 title
 -----
 Structure from the checkpoint file:  "BDE49_nonexpt_2443_mol1.chk"
 Charge =  0 Multiplicity = 1

                         Standard orientation:
 ---------------------------------------------------------------------
 Center     Atomic      Atomic             Coordinates (Angstroms)
 Number     Number       Type             X           Y           Z
 ---------------------------------------------------------------------
      1         14           0       -1.922865   -0.387200   -0.005206
      2         14           0        0.070401    0.872384    0.014173
      3          1           0       -1.997169   -1.214533   -1.233057
      4          1           0       -3.098528    0.515915    0.035473
      5          1           0       -1.973661   -1.284089    1.175008
      6         15           0        1.882461   -0.518207   -0.107629
      7          1           0        0.099733    1.747073    1.213658
      8          1           0        0.115839    1.741336   -1.188388
      9          1           0        1.733483   -1.006800    1.217239
     10          1           0        2.817878    0.481627    0.268963
 ---------------------------------------------------------------------

 SCF Done:  E(RHF) =  -922.792103853     A.U. after    2 cycles

 The electronic state is 1-A.
 Alpha  occ. eigenvalues --  -84.27082 -69.53963 -69.53118  -6.74325  -6.21093
 Alpha  occ. eigenvalues --   -6.20326  -4.26598  -4.26457  -4.25948  -3.96421
 Alpha  occ. eigenvalues --   -3.96384  -3.96373  -3.95677  -3.95676  -3.95673
 Alpha  occ. eigenvalues --   -0.87550  -0.76892  -0.68281  -0.52351  -0.51136
 Alpha  occ. eigenvalues --   -0.49635  -0.48381  -0.44632  -0.40272  -0.34996
 Alpha virt. eigenvalues --    0.03852   0.03932   0.04517   0.06061   0.06736
 Alpha virt. eigenvalues --    0.07094   0.07643   0.08292   0.08702   0.09757
 Alpha virt. eigenvalues --    0.09906   0.10444   0.10929   0.11456   0.12054

 Mulliken charges:
               1
     1  Si   0.411355
     2  Si   0.676798
     3  H   -0.128972
     4  H   -0.133819
     5  H   -0.133227
     6  P   -1.159856
     7  H   -0.125008
     8  H   -0.141687
     9  H    0.370423
    10  H    0.363993
 Sum of Mulliken charges =  -0.00000

 Dipole moment (field-independent basis, Debye):
    X=              0.1124    Y=              0.1700    Z=              0.3246  Tot=              0.3832

 Test job not archived.
 1\1\GINC-SE343\SP\RHF\Aug-CC-pVDZ\H7P1Si2\OHZDE\09-Apr-2025\0\\#t hf a
 ug-cc-pvdz iop(5/13=1,5/36=2,99/5=2) pseudo=read geom=check guess=(rea
 d,tcheck) scf=(maxcycle=1)\\title\\0,1\Si,0,-1.922865,-0.3872,-0.00520
 6\Si,0,0.070401,0.872384,0.014173\H,0,-1.997169,-1.214533,-1.233057\H,
 0,-3.098528,0.515915,0.035473\H,0,-1.973661,-1.284089,1.175008\P,0,1.8
 82461,-0.518207,-0.107629\H,0,0.099733,1.747073,1.213658\H,0,0.115839,
 1.741336,-1.188388\H,0,1.733483,-1.0068,1.217239\H,0,2.817878,0.481627
 ,0.268963\\Version=ES64L-G16RevC.01\State=1-A\HF=-922.7921039\RMSD=2.0

 Normal termination of Gaussian 16 at Wed Apr  9 00:13:07 2025.
