 Gaussian 16, Revision C.01,

 ----------------------------------------------------------------------
 #t hf aug-cc-pvdz symm=none int=(grid=ultrafine) guess=(read,tcheck) s
 table=(opt,rrhf)
 ----------------------------------------------------------------------
 -----
 title
 -----
 Symbolic Z-matrix:
 Charge =  0 Multiplicity = 1

 SCF Done:  E(RHF) =  -775.269239230     A.U. after   14 cycles
 Normal termination of Gaussian 16 at Wed Apr  9 00:54:37 2025.
 Gaussian 16:  ES64L-G16RevC.01  3-Jul-2019

 ----------------------------------------------------------------------
 #t hf aug-cc-pvdz iop(5/13=1,5/36=2,99/5=2) pseudo=read geom=check gue
 ss=(read,tcheck) scf=(maxcycle=1)
 ----------------------------------------------------------------------
 -----
 title
 -----
 Structure from the checkpoint file:  "BDE49_nonexpt_956_mol1.chk"
 Charge =  0 Multiplicity = 1

                         Standard orientation:
 ---------------------------------------------------------------------
 Center     Atomic      Atomic             Coordinates (Angstroms)
 Number     Number       Type             X           Y           Z
 ---------------------------------------------------------------------
      1          9           0        2.580860   -1.759116    0.773206
      2          9           0        2.552513   -0.312144   -0.874806
      3          8           0       -0.169780    2.868443   -0.045543
      4          6           0       -0.650914    1.856226    0.863409
      5          1           0       -1.739412    1.838573    0.926154
      6          1           0       -0.229245    1.973710    1.868102
      7          6           0       -0.004622    0.719968    0.024279
      8          7           0        1.680692   -1.092276   -0.071953
      9          6           0        1.011143   -0.116230    0.804436
     10          1           0        0.509332   -0.727711    1.556829
     11          1           0        1.763253    0.513509    1.286685
     12          6           0        0.562308    1.894616   -0.818685
     13          1           0        1.643197    2.030223   -0.740156
     14          1           0        0.271977    1.904373   -1.873920
     15          6           0       -0.986845   -0.136823   -0.779945
     16          7           0       -1.608361   -1.174384    0.060547
     17          9           0       -2.460311   -1.866225   -0.814568
     18          9           0       -2.531805   -0.473383    0.877601
     19          1           0       -0.458620   -0.698221   -1.552881
     20          1           0       -1.766292    0.475895   -1.240472
 ---------------------------------------------------------------------

 SCF Done:  E(RHF) =  -776.008095506     A.U. after    2 cycles

 The electronic state is 1-A.
 Alpha  occ. eigenvalues --  -26.51553 -26.51478 -26.51321 -26.51270 -20.56198
 Alpha  occ. eigenvalues --  -15.72974 -15.72856 -11.31700 -11.31632 -11.31546
 Alpha  occ. eigenvalues --  -11.31451 -11.29680  -1.67364  -1.67256  -1.58745
 Alpha  occ. eigenvalues --   -1.58678  -1.48514  -1.21664  -1.18083  -1.07899
 Alpha  occ. eigenvalues --   -0.97132  -0.95852  -0.92610  -0.81606  -0.78719
 Alpha  occ. eigenvalues --   -0.78392  -0.77945  -0.77418  -0.76611  -0.73422
 Alpha  occ. eigenvalues --   -0.70706  -0.69140  -0.66976  -0.66479  -0.64475
 Alpha  occ. eigenvalues --   -0.64047  -0.63960  -0.62115  -0.61852  -0.60474
 Alpha  occ. eigenvalues --   -0.59974  -0.58998  -0.55676  -0.52707  -0.52052
 Alpha  occ. eigenvalues --   -0.49520  -0.48526  -0.43604
 Alpha virt. eigenvalues --    0.03591   0.03760   0.04478   0.04785   0.05685
 Alpha virt. eigenvalues --    0.06087   0.06584   0.08363   0.09566   0.11320
 Alpha virt. eigenvalues --    0.12363   0.12623   0.13044   0.13708   0.13949

 Mulliken charges:
               1
     1  F   -0.686309
     2  F   -0.680107
     3  O   -1.335215
     4  C    0.959988
     5  H    0.133491
     6  H    0.055302
     7  C   -1.166550
     8  N    1.620326
     9  C   -0.575820
    10  H    0.218808
    11  H    0.210777
    12  C    0.954424
    13  H    0.093854
    14  H    0.091690
    15  C   -0.601902
    16  N    1.643864
    17  F   -0.689183
    18  F   -0.685584
    19  H    0.225573
    20  H    0.212572
 Sum of Mulliken charges =  -0.00000

 Dipole moment (field-independent basis, Debye):
    X=              0.1460    Y=              1.4218    Z=              0.1825  Tot=              1.4409

 Test job not archived.
 1\1\GINC-SE343\SP\RHF\Aug-CC-pVDZ\C5H8F4N2O1\OHZDE\09-Apr-2025\0\\#t h
 f aug-cc-pvdz iop(5/13=1,5/36=2,99/5=2) pseudo=read geom=check guess=(
 read,tcheck) scf=(maxcycle=1)\\title\\0,1\F,0,2.58086,-1.759116,0.7732
 06\F,0,2.552513,-0.312144,-0.874806\O,0,-0.16978,2.868443,-0.045543\C,
 0,-0.650914,1.856226,0.863409\H,0,-1.739412,1.838573,0.926154\H,0,-0.2
 29245,1.97371,1.868102\C,0,-0.004622,0.719968,0.024279\N,0,1.680692,-1
 .092276,-0.071953\C,0,1.011143,-0.11623,0.804436\H,0,0.509332,-0.72771
 1,1.556829\H,0,1.763253,0.513509,1.286685\C,0,0.562308,1.894616,-0.818

 Normal termination of Gaussian 16 at Wed Apr  9 00:54:49 2025.
