 Gaussian 16, Revision C.01,

 ----------------------------------------------------------------------
 #t hf aug-cc-pvdz symm=none int=(grid=ultrafine) guess=(read,tcheck) s
 table=opt
 ----------------------------------------------------------------------
 -----
 title
 -----
 Symbolic Z-matrix:
 Charge =  0 Multiplicity = 2

 SCF Done:  E(UHF) =  -647.069618819     a.u. after   13 cycles

 1\1\GINC-SE435\Stability\UHF\Aug-CC-pVDZ\C1Cl1O2\OHZDE\08-Apr-2025\0\\
 #t hf aug-cc-pvdz symm=none int=(grid=ultrafine) guess=(read,tcheck) s
 table=opt\\title\\0,2\O,0,1.123052,-1.076803,-0.000047\C,0,0.523404,0.
 ,0.000191\O,0,1.123051,1.076804,-0.000047\Cl,0,-1.24172,0.,-0.000024\\
 Version=ES64L-G16RevC.01\HF=-647.0696188\S2=0.762308\S2-1=0.\S2A=0.750
 123\RMSD=1.802e-09\Dipole=-0.4836363,-0.7461246,0.0002196\Quadrupole=0
 .3512233,-1.4388053,1.087582,-1.7739868,0.0005331,-0.0001007\PG=Unknow
 n\\@

 Normal termination of Gaussian 16 at Tue Apr  8 23:19:54 2025.
 Gaussian 16:  ES64L-G16RevC.01  3-Jul-2019

 ----------------------------------------------------------------------
 #t hf aug-cc-pvdz iop(5/13=1,5/36=2,99/5=2) pseudo=read geom=check gue
 ss=(read,tcheck) scf=(maxcycle=1)
 ----------------------------------------------------------------------
 -----
 title
 -----
 Structure from the checkpoint file:  "BDE49_nonexpt_1133_mol2.chk"
 Charge =  0 Multiplicity = 2

                         Standard orientation:
 ---------------------------------------------------------------------
 Center     Atomic      Atomic             Coordinates (Angstroms)
 Number     Number       Type             X           Y           Z
 ---------------------------------------------------------------------
      1          8           0        1.123052   -1.076803   -0.000047
      2          6           0        0.523404   -0.000000    0.000191
      3          8           0        1.123051    1.076804   -0.000047
      4         17           0       -1.241720   -0.000000   -0.000024
 ---------------------------------------------------------------------

 SCF Done:  E(UHF) =  -647.316068782     A.U. after    2 cycles

 The electronic state is 2-A.
 Alpha  occ. eigenvalues -- -105.63168 -20.73999 -20.58458 -11.48998 -10.67969
 Alpha  occ. eigenvalues --   -7.85030  -7.84475  -7.84451  -1.68839  -1.49907
 Alpha  occ. eigenvalues --   -1.14267  -0.87968  -0.82153  -0.74547  -0.74123
 Alpha  occ. eigenvalues --   -0.62658  -0.55382  -0.54452  -0.49937  -0.48825
 Alpha virt. eigenvalues --    0.06180   0.08397   0.09592   0.09963   0.11083
 Alpha virt. eigenvalues --    0.12394   0.14858   0.15338   0.19522   0.21015
 Alpha virt. eigenvalues --    0.21575   0.24302   0.26919   0.28811   0.29861

  Beta  occ. eigenvalues -- -105.63084 -20.69930 -20.58033 -11.49363 -10.67887
  Beta  occ. eigenvalues --   -7.84750  -7.84413  -7.84332  -1.58479  -1.45903
  Beta  occ. eigenvalues --   -1.13193  -0.83902  -0.73495  -0.71803  -0.68207
  Beta  occ. eigenvalues --   -0.53733  -0.52848  -0.49384  -0.47515
  Beta virt. eigenvalues --   -0.01530   0.06480   0.08609   0.09613   0.10121
  Beta virt. eigenvalues --    0.11258   0.12496   0.14912   0.15290   0.19913
  Beta virt. eigenvalues --    0.21702   0.21793   0.25628   0.26978   0.29580

 Mulliken charges and spin densities:
               1          2
     1  O   -0.509940   1.043954
     2  C    1.310430  -0.178083
     3  O   -0.850546   0.073279
     4  Cl   0.050056   0.060849
 Sum of Mulliken charges =   0.00000   1.00000

 Dipole moment (field-independent basis, Debye):
    X=             -1.0838    Y=             -1.8141    Z=              0.0005  Tot=              2.1132
                          Isotropic Fermi Contact Couplings
        Atom                 a.u.       MegaHertz       Gauss      10(-4) cm-1
     1  O(17)              0.24842    -150.59139     -53.73475     -50.23188
     2  C(13)             -0.06028     -67.76153     -24.17900     -22.60281
     3  O(17)              0.02524     -15.30262      -5.46036      -5.10440
     4  Cl(35)            -0.00726      -3.18296      -1.13576      -1.06172
 --------------------------------------------------------
       Center         ----  Spin Dipole Couplings  ----
                      3XX-RR        3YY-RR        3ZZ-RR
 --------------------------------------------------------

 Normal termination of Gaussian 16 at Tue Apr  8 23:19:56 2025.
