 Gaussian 16, Revision C.01,

 ----------------------------------------------------------------------
 #t hf aug-cc-pvdz symm=none int=(grid=ultrafine) guess=(read,tcheck) s
 table=(opt,rrhf)
 ----------------------------------------------------------------------
 -----
 title
 -----
 Symbolic Z-matrix:
 Charge =  0 Multiplicity = 1

 SCF Done:  E(RHF) =  -798.234707889     A.U. after   12 cycles
 Normal termination of Gaussian 16 at Tue Apr  8 23:40:12 2025.
 Gaussian 16:  ES64L-G16RevC.01  3-Jul-2019

 ----------------------------------------------------------------------
 #t hf aug-cc-pvdz iop(5/13=1,5/36=2,99/5=2) pseudo=read geom=check gue
 ss=(read,tcheck) scf=(maxcycle=1)
 ----------------------------------------------------------------------
 -----
 title
 -----
 Structure from the checkpoint file:  "BDE49_nonexpt_1587_mol1.chk"
 Charge =  0 Multiplicity = 1

                         Standard orientation:
 ---------------------------------------------------------------------
 Center     Atomic      Atomic             Coordinates (Angstroms)
 Number     Number       Type             X           Y           Z
 ---------------------------------------------------------------------
      1          8           0        0.143564    0.600921    0.480574
      2         15           0        1.412295   -0.186503   -0.037029
      3          8           0        1.188505   -1.245917   -1.025839
      4          6           0       -0.825013    1.136870   -0.467250
      5          6           0       -2.192519    1.164366    0.194764
      6          1           0       -0.822988    0.511415   -1.362661
      7          6           0       -2.721652   -0.206754    0.641803
      8          1           0       -2.886864    1.615296   -0.525610
      9          1           0       -2.150604    1.839322    1.055790
     10          6           0       -2.864449   -1.233077   -0.487637
     11          1           0       -3.694353   -0.053307    1.121038
     12          1           0       -2.059035   -0.604163    1.416614
     13          1           0       -3.490617   -0.848019   -1.299471
     14          1           0       -3.331590   -2.150349   -0.119472
     15          1           0       -1.895392   -1.509665   -0.910902
     16          1           0       -0.497884    2.143462   -0.737812
     17          8           0        2.373575    1.000038   -0.510027
     18          1           0        3.060518    0.682462   -1.107855
     19          8           0        2.087957   -0.658301    1.330089
     20          1           0        1.857367   -1.571262    1.537331
 ---------------------------------------------------------------------

 SCF Done:  E(RHF) =  -798.749251822     A.U. after    2 cycles

 The electronic state is 1-A.
 Alpha  occ. eigenvalues --  -84.45596 -20.59490 -20.59432 -20.57810 -20.50653
 Alpha  occ. eigenvalues --  -11.30622 -11.23981 -11.23113 -11.22132  -6.90465
 Alpha  occ. eigenvalues --   -4.44665  -4.44013  -4.43955  -1.55997  -1.47921
 Alpha  occ. eigenvalues --   -1.47456  -1.38950  -1.08316  -0.99171  -0.89759
 Alpha  occ. eigenvalues --   -0.84947  -0.79075  -0.74130  -0.72340  -0.67721
 Alpha  occ. eigenvalues --   -0.66534  -0.64260  -0.61969  -0.60933  -0.58191
 Alpha  occ. eigenvalues --   -0.57305  -0.55832  -0.54838  -0.53121  -0.52288
 Alpha  occ. eigenvalues --   -0.50562  -0.48311  -0.47893  -0.47034  -0.46068
 Alpha  occ. eigenvalues --   -0.45390
 Alpha virt. eigenvalues --    0.03597   0.03642   0.03799   0.04400   0.05242
 Alpha virt. eigenvalues --    0.06041   0.06834   0.07175   0.08214   0.08295
 Alpha virt. eigenvalues --    0.10255   0.11116   0.11372   0.13410   0.14073

 Mulliken charges:
               1
     1  O   -1.915398
     2  P    4.441735
     3  O   -1.419703
     4  C    0.567340
     5  C   -0.476555
     6  H    0.144740
     7  C   -0.313200
     8  H    0.193159
     9  H    0.143866
    10  C   -0.284138
    11  H    0.138232
    12  H    0.163495
    13  H    0.159528
    14  H    0.098156
    15  H    0.133693
    16  H    0.035359
    17  O   -1.227771
    18  H    0.319884
    19  O   -1.241880
    20  H    0.339457
 Sum of Mulliken charges =  -0.00000

 Dipole moment (field-independent basis, Debye):
    X=             -0.5286    Y=              0.8717    Z=              0.3707  Tot=              1.0848

 Test job not archived.
 1\1\GINC-SE173\SP\RHF\Aug-CC-pVDZ\C4H11O4P1\OHZDE\08-Apr-2025\0\\#t hf
  aug-cc-pvdz iop(5/13=1,5/36=2,99/5=2) pseudo=read geom=check guess=(r
 ead,tcheck) scf=(maxcycle=1)\\title\\0,1\O,0,-0.143564,-0.600921,0.480
 574\P,0,-1.412295,0.186503,-0.037029\O,0,-1.188505,1.245917,-1.025839\
 C,0,0.825013,-1.13687,-0.46725\C,0,2.192519,-1.164366,0.194764\H,0,0.8
 22988,-0.511415,-1.362661\C,0,2.721652,0.206754,0.641803\H,0,2.886864,
 -1.615296,-0.52561\H,0,2.150604,-1.839322,1.05579\C,0,2.864449,1.23307
 7,-0.487637\H,0,3.694353,0.053307,1.121038\H,0,2.059035,0.604163,1.416

 Normal termination of Gaussian 16 at Tue Apr  8 23:40:23 2025.
