 Gaussian 16, Revision C.01,

 ----------------------------------------------------------------------
 #t hf aug-cc-pvdz symm=none int=(grid=ultrafine) guess=(read,tcheck) s
 table=(opt,rrhf)
 ----------------------------------------------------------------------
 -----
 title
 -----
 Symbolic Z-matrix:
 Charge =  0 Multiplicity = 1

 SCF Done:  E(RHF) =  -648.679167441     A.U. after   16 cycles
 Normal termination of Gaussian 16 at Tue Apr  8 23:18:49 2025.
 Gaussian 16:  ES64L-G16RevC.01  3-Jul-2019

 ----------------------------------------------------------------------
 #t hf aug-cc-pvdz iop(5/13=1,5/36=2,99/5=2) pseudo=read geom=check gue
 ss=(read,tcheck) scf=(maxcycle=1)
 ----------------------------------------------------------------------
 -----
 title
 -----
 Structure from the checkpoint file:  "BDE49_nonexpt_1091_mol1.chk"
 Charge =  0 Multiplicity = 1

                         Standard orientation:
 ---------------------------------------------------------------------
 Center     Atomic      Atomic             Coordinates (Angstroms)
 Number     Number       Type             X           Y           Z
 ---------------------------------------------------------------------
      1          8           0        0.040517   -0.798785    0.354592
      2         17           0        1.455605    0.262409   -0.048901
      3          8           0       -1.048689   -0.502401   -0.449346
      4          6           0       -1.789262    0.574826    0.136818
      5          1           0       -2.667037    0.677728   -0.501903
      6          1           0       -1.197132    1.493682    0.111078
      7          1           0       -2.080171    0.328163    1.159262
 ---------------------------------------------------------------------

 SCF Done:  E(RHF) =  -648.940228310     A.U. after    2 cycles

 The electronic state is 1-A.
 Alpha  occ. eigenvalues -- -105.62346 -20.69588 -20.64607 -11.30992 -10.66572
 Alpha  occ. eigenvalues --   -7.83514  -7.83012  -7.82984  -1.64118  -1.30032
 Alpha  occ. eigenvalues --   -1.02989  -0.94092  -0.70407  -0.69870  -0.69765
 Alpha  occ. eigenvalues --   -0.59043  -0.57218  -0.54419  -0.48687  -0.46373
 Alpha  occ. eigenvalues --   -0.45650
 Alpha virt. eigenvalues --    0.03540   0.04045   0.05400   0.06092   0.08785
 Alpha virt. eigenvalues --    0.12893   0.13845   0.14301   0.15711   0.16282
 Alpha virt. eigenvalues --    0.17081   0.18222   0.21652   0.24093   0.24837

 Mulliken charges:
               1
     1  O   -0.385417
     2  Cl   0.263548
     3  O   -0.633202
     4  C    0.378316
     5  H    0.066114
     6  H    0.159087
     7  H    0.151555
 Sum of Mulliken charges =  -0.00000

 Dipole moment (field-independent basis, Debye):
    X=             -1.7201    Y=              1.5372    Z=              0.4548  Tot=              2.3513

 Test job not archived.
 1\1\GINC-SE366\SP\RHF\Aug-CC-pVDZ\C1H3Cl1O2\OHZDE\08-Apr-2025\0\\#t hf
  aug-cc-pvdz iop(5/13=1,5/36=2,99/5=2) pseudo=read geom=check guess=(r
 ead,tcheck) scf=(maxcycle=1)\\title\\0,1\O,0,0.040517,-0.798785,0.3545
 92\Cl,0,1.455605,0.262409,-0.048901\O,0,-1.048689,-0.502401,-0.449346\
 C,0,-1.789262,0.574826,0.136818\H,0,-2.667037,0.677728,-0.501903\H,0,-
 1.197132,1.493682,0.111078\H,0,-2.080171,0.328163,1.159262\\Version=ES
 64L-G16RevC.01\State=1-A\HF=-648.9402283\RMSD=7.822e-03\Dipole=-0.6767
 427,0.6047815,0.1789206\Quadrupole=2.366861,-1.015324,-1.351537,-0.973

 Normal termination of Gaussian 16 at Tue Apr  8 23:18:51 2025.
