 Gaussian 16, Revision C.01,

 ----------------------------------------------------------------------
 #t hf aug-cc-pvdz symm=none int=(grid=ultrafine) guess=(read,tcheck) s
 table=opt
 ----------------------------------------------------------------------
 -----
 title
 -----
 Symbolic Z-matrix:
 Charge =  0 Multiplicity = 2

 SCF Done:  E(UHF) =  -199.641258713     A.U. after   14 cycles
 Normal termination of Gaussian 16 at Wed Apr  9 00:30:41 2025.
 Gaussian 16:  ES64L-G16RevC.01  3-Jul-2019

 ----------------------------------------------------------------------
 #t hf aug-cc-pvdz iop(5/13=1,5/36=2,99/5=2) pseudo=read geom=check gue
 ss=(read,tcheck) scf=(maxcycle=1)
 ----------------------------------------------------------------------
 -----
 title
 -----
 Structure from the checkpoint file:  "BDE49_nonexpt_350_mol2.chk"
 Charge =  0 Multiplicity = 2

                         Standard orientation:
 ---------------------------------------------------------------------
 Center     Atomic      Atomic             Coordinates (Angstroms)
 Number     Number       Type             X           Y           Z
 ---------------------------------------------------------------------
      1          9           0       -1.170900   -0.095082   -0.000000
      2          8           0        1.178534   -0.094774    0.000000
      3          5           0        0.000000    0.535291    0.000000
      4          1           0        1.109827   -1.062528    0.000000
 ---------------------------------------------------------------------

 SCF Done:  E(UHF) =  -199.824076680     A.U. after    2 cycles

 The electronic state is 2-A'.
 Alpha  occ. eigenvalues --  -26.48296 -20.59267  -7.71575  -1.61692  -1.49653
 Alpha  occ. eigenvalues --   -0.80679  -0.76409  -0.70131  -0.67379  -0.58731
 Alpha  occ. eigenvalues --   -0.55129  -0.38773
 Alpha virt. eigenvalues --    0.03842   0.04940   0.05884   0.06012   0.09944
 Alpha virt. eigenvalues --    0.14556   0.18294   0.20835   0.21560   0.22838
 Alpha virt. eigenvalues --    0.25718   0.27418   0.28284   0.30315   0.31894

  Beta  occ. eigenvalues --  -26.47950 -20.59139  -7.69345  -1.60660  -1.49119
  Beta  occ. eigenvalues --   -0.78506  -0.75154  -0.67373  -0.67093  -0.58347
  Beta  occ. eigenvalues --   -0.55578
  Beta virt. eigenvalues --    0.03057   0.04758   0.05213   0.06079   0.08609
  Beta virt. eigenvalues --    0.14018   0.19107   0.19669   0.20939   0.21581
  Beta virt. eigenvalues --    0.23553   0.27255   0.28404   0.28531   0.31203

 Mulliken charges and spin densities:
               1          2
     1  F   -0.417105  -0.022834
     2  O   -0.838239  -0.062191
     3  B    0.788545   1.054771
     4  H    0.466799   0.030253
 Sum of Mulliken charges =  -0.00000   1.00000

 Dipole moment (field-independent basis, Debye):
    X=              0.3772    Y=             -1.4661    Z=              0.0000  Tot=              1.5139
                          Isotropic Fermi Contact Couplings
        Atom                 a.u.       MegaHertz       Gauss      10(-4) cm-1
     1  F(19)              0.10403     437.68785     156.17791     145.99695
     2  O(17)              0.14719     -89.22740     -31.83856     -29.76306
     3  B(11)              0.45530     653.06888     233.03122     217.84033
     4  H(1)               0.01265      56.53576      20.17336      18.85830
 --------------------------------------------------------
       Center         ----  Spin Dipole Couplings  ----
                      3XX-RR        3YY-RR        3ZZ-RR
 --------------------------------------------------------

 Normal termination of Gaussian 16 at Wed Apr  9 00:30:43 2025.
