 Gaussian 16, Revision C.01,

 ----------------------------------------------------------------------
 #t hf aug-cc-pvdz symm=none int=(grid=ultrafine) guess=(read,tcheck) s
 table=opt
 ----------------------------------------------------------------------
 -----
 title
 -----
 Symbolic Z-matrix:
 Charge =  0 Multiplicity = 2

 SCF Done:  E(UHF) =  -553.059088010     A.U. after   27 cycles
 Normal termination of Gaussian 16 at Wed Apr  9 00:50:48 2025.
 Gaussian 16:  ES64L-G16RevC.01  3-Jul-2019

 ----------------------------------------------------------------------
 #t hf aug-cc-pvdz iop(5/13=1,5/36=2,99/5=2) pseudo=read geom=check gue
 ss=(read,tcheck) scf=(maxcycle=1)
 ----------------------------------------------------------------------
 -----
 title
 -----
 Structure from the checkpoint file:  "BDE49_nonexpt_918_mol2.chk"
 Charge =  0 Multiplicity = 2

                         Standard orientation:
 ---------------------------------------------------------------------
 Center     Atomic      Atomic             Coordinates (Angstroms)
 Number     Number       Type             X           Y           Z
 ---------------------------------------------------------------------
      1         16           0       -1.822329    0.057984   -0.288575
      2          6           0       -0.386925   -0.410339    0.734563
      3          6           0        0.949849   -0.110805    0.103264
      4          6           0        1.727585   -1.105396   -0.326395
      5          6           0        1.336242    1.339151   -0.003263
      6          1           0        2.692875   -0.913841   -0.781788
      7          1           0        1.426204   -2.143758   -0.237481
      8          1           0        2.295386    1.461187   -0.508232
      9          1           0        0.578201    1.901264   -0.557182
     10          1           0        1.410479    1.795582    0.990958
     11          1           0       -0.483043   -1.465674    0.998673
     12          1           0       -0.523351    0.161827    1.663245
 ---------------------------------------------------------------------

 SCF Done:  E(UHF) =  -553.281760716     A.U. after    2 cycles

 The electronic state is 2-A.
 Alpha  occ. eigenvalues --  -93.96767 -11.28072 -11.25896 -11.23584 -11.23271
 Alpha  occ. eigenvalues --   -8.24784  -6.23961  -6.22208  -6.21882  -1.12431
 Alpha  occ. eigenvalues --   -1.03592  -0.94526  -0.88472  -0.73935  -0.65211
 Alpha  occ. eigenvalues --   -0.64383  -0.59164  -0.56819  -0.53901  -0.52137
 Alpha  occ. eigenvalues --   -0.50347  -0.43601  -0.38230  -0.36393
 Alpha virt. eigenvalues --    0.03614   0.03982   0.04192   0.05470   0.06317
 Alpha virt. eigenvalues --    0.06555   0.08251   0.09478   0.09843   0.11308
 Alpha virt. eigenvalues --    0.13735   0.14286   0.14586   0.15296   0.15881

  Beta  occ. eigenvalues --  -93.95865 -11.28219 -11.25706 -11.23607 -11.23439
  Beta  occ. eigenvalues --   -8.23748  -6.21652  -6.21341  -6.19977  -1.11435
  Beta  occ. eigenvalues --   -1.00153  -0.94623  -0.83329  -0.73382  -0.64407
  Beta  occ. eigenvalues --   -0.64250  -0.58530  -0.55451  -0.53832  -0.51769
  Beta  occ. eigenvalues --   -0.49363  -0.36924  -0.35565
  Beta virt. eigenvalues --    0.00895   0.03635   0.04096   0.04214   0.05524
  Beta virt. eigenvalues --    0.06360   0.06647   0.08405   0.09568   0.10301
  Beta virt. eigenvalues --    0.11615   0.14085   0.14627   0.14893   0.15693

 Mulliken charges and spin densities:
               1          2
     1  S    0.193079   1.111804
     2  C   -0.572360  -0.158172
     3  C    0.452419   0.131832
     4  C    0.142728  -0.105528
     5  C   -0.817972  -0.007845
     6  H   -0.124776   0.004926
     7  H   -0.154644   0.004897
     8  H    0.086014   0.001503
     9  H    0.256714  -0.011022
    10  H    0.226074   0.000639
    11  H    0.081517   0.007869
    12  H    0.231208   0.019096
 Sum of Mulliken charges =  -0.00000   1.00000

 Dipole moment (field-independent basis, Debye):
    X=              1.2718    Y=             -0.0171    Z=              0.9651  Tot=              1.5966
                          Isotropic Fermi Contact Couplings
        Atom                 a.u.       MegaHertz       Gauss      10(-4) cm-1
     1  S(33)              0.17907      61.50708      21.94726      20.51655
     2  C(13)             -0.02948     -33.13566     -11.82363     -11.05287
     3  C(13)              0.01952      21.94773       7.83149       7.32097
     4  C(13)             -0.01509     -16.96517      -6.05359      -5.65897
     5  C(13)             -0.00442      -4.96542      -1.77179      -1.65629
     6  H(1)               0.00175       7.80728       2.78583       2.60423
     7  H(1)               0.00162       7.24222       2.58420       2.41574
     8  H(1)               0.00017       0.76601       0.27333       0.25551

 Normal termination of Gaussian 16 at Wed Apr  9 00:50:52 2025.
