 Gaussian 16, Revision C.01,

 ----------------------------------------------------------------------
 #t hf aug-cc-pvdz symm=none int=(grid=ultrafine) guess=(read,tcheck) s
 table=(opt,rrhf)
 ----------------------------------------------------------------------
 -----
 title
 -----
 Symbolic Z-matrix:
 Charge =  0 Multiplicity = 1

 SCF Done:  E(RHF) =  -1248.26458094     A.U. after   11 cycles
 Normal termination of Gaussian 16 at Tue Apr  8 23:45:14 2025.
 Gaussian 16:  ES64L-G16RevC.01  3-Jul-2019

 ----------------------------------------------------------------------
 #t hf aug-cc-pvdz iop(5/13=1,5/36=2,99/5=2) pseudo=read geom=check gue
 ss=(read,tcheck) scf=(maxcycle=1)
 ----------------------------------------------------------------------
 -----
 title
 -----
 Structure from the checkpoint file:  "BDE49_nonexpt_1756_mol1.chk"
 Charge =  0 Multiplicity = 1

                         Standard orientation:
 ---------------------------------------------------------------------
 Center     Atomic      Atomic             Coordinates (Angstroms)
 Number     Number       Type             X           Y           Z
 ---------------------------------------------------------------------
      1          6           0        0.000001    2.024866   -0.305345
      2         14           0        0.000000    0.332874    0.453812
      3          1           0       -0.000004    1.962261   -1.395823
      4          1           0        0.888610    2.577520    0.011862
      5          1           0       -0.888602    2.577525    0.011869
      6         17           0        1.686286   -0.713698   -0.149203
      7         17           0       -1.686286   -0.713697   -0.149203
      8          1           0        0.000000    0.338981    1.923713
 ---------------------------------------------------------------------

 SCF Done:  E(RHF) =  -1248.49847319     A.U. after    2 cycles

 The electronic state is 1-A.
 Alpha  occ. eigenvalues -- -105.56661-105.56661 -69.62359 -11.24628 -10.61692
 Alpha  occ. eigenvalues --  -10.61683  -7.78574  -7.78569  -7.78261  -7.78257
 Alpha  occ. eigenvalues --   -7.78255  -7.78255  -6.28618  -4.04038  -4.03931
 Alpha  occ. eigenvalues --   -4.03805  -1.08416  -1.04553  -0.97802  -0.72029
 Alpha  occ. eigenvalues --   -0.60554  -0.60251  -0.54861  -0.54770  -0.54456
 Alpha  occ. eigenvalues --   -0.48327  -0.48287  -0.46759  -0.45391
 Alpha virt. eigenvalues --    0.03369   0.04828   0.04871   0.05425   0.07525
 Alpha virt. eigenvalues --    0.07757   0.08160   0.11406   0.12954   0.13102
 Alpha virt. eigenvalues --    0.14409   0.15368   0.15573   0.16399   0.17321

 Mulliken charges:
               1
     1  C   -0.653106
     2  Si   1.679826
     3  H    0.122455
     4  H    0.067911
     5  H    0.067911
     6  Cl  -0.560242
     7  Cl  -0.560242
     8  H   -0.164513
 Sum of Mulliken charges =  -0.00000

 Dipole moment (field-independent basis, Debye):
    X=              0.0000    Y=              2.3350    Z=              0.4997  Tot=              2.3878

 Test job not archived.
 1\1\GINC-SE362\SP\RHF\Aug-CC-pVDZ\C1H4Cl2Si1\OHZDE\08-Apr-2025\0\\#t h
 f aug-cc-pvdz iop(5/13=1,5/36=2,99/5=2) pseudo=read geom=check guess=(
 read,tcheck) scf=(maxcycle=1)\\title\\0,1\C,0,0.,2.024866,-0.305345\Si
 ,0,0.,0.332874,0.453812\H,0,-0.000005,1.962261,-1.395823\H,0,0.888608,
 2.577521,0.011862\H,0,-0.888604,2.577524,0.011869\Cl,0,1.686286,-0.713
 697,-0.149203\Cl,0,-1.686286,-0.713698,-0.149203\H,0,0.,0.338981,1.923
 713\\Version=ES64L-G16RevC.01\State=1-A\HF=-1248.4984732\RMSD=5.068e-0
 3\Dipole=0.0000005,0.918648,0.1965881\Quadrupole=-2.150264,1.5773673,0

 Normal termination of Gaussian 16 at Tue Apr  8 23:45:17 2025.
