 Gaussian 16, Revision C.01,

 ----------------------------------------------------------------------
 #t hf aug-cc-pvdz symm=none int=(grid=ultrafine) guess=(read,tcheck) s
 table=(opt,rrhf)
 ----------------------------------------------------------------------
 -----
 title
 -----
 Symbolic Z-matrix:
 Charge =  0 Multiplicity = 1

 SCF Done:  E(RHF) =  -510.510194573     A.U. after   12 cycles
 Normal termination of Gaussian 16 at Wed Apr  9 00:46:40 2025.
 Gaussian 16:  ES64L-G16RevC.01  3-Jul-2019

 ----------------------------------------------------------------------
 #t hf aug-cc-pvdz iop(5/13=1,5/36=2,99/5=2) pseudo=read geom=check gue
 ss=(read,tcheck) scf=(maxcycle=1)
 ----------------------------------------------------------------------
 -----
 title
 -----
 Structure from the checkpoint file:  "BDE49_nonexpt_806_mol1.chk"
 Charge =  0 Multiplicity = 1

                         Standard orientation:
 ---------------------------------------------------------------------
 Center     Atomic      Atomic             Coordinates (Angstroms)
 Number     Number       Type             X           Y           Z
 ---------------------------------------------------------------------
      1          5           0       -2.636659    0.000198    1.309556
      2          6           0        0.059816   -0.000104   -0.620001
      3          6           0        0.749898   -1.203302    0.060635
      4          6           0        0.749877    1.203332    0.060243
      5          6           0        2.232121    0.778381    0.202518
      6          1           0        0.315240    1.367838    1.053566
      7          1           0        0.630845    2.134063   -0.500041
      8          6           0        2.232147   -0.778313    0.202571
      9          1           0        2.684406    1.191367    1.107257
     10          1           0        2.813967    1.157463   -0.641829
     11          1           0        2.813788   -1.157419   -0.641910
     12          1           0        2.684672   -1.191241    1.107217
     13          1           0        0.630789   -2.134252   -0.499271
     14          1           0        0.315364   -1.367402    1.054073
     15         14           0       -1.831754   -0.000100   -0.539931
     16          1           0        0.341289   -0.000283   -1.682591
     17          1           0       -2.361747   -1.193276   -1.261745
     18          1           0       -2.361755    1.192858   -1.262101
     19          1           0       -1.997976    0.000503    2.317082
     20          1           0       -3.824194    0.000232    1.425750
 ---------------------------------------------------------------------

 SCF Done:  E(RHF) =  -510.787591474     A.U. after    2 cycles

 The electronic state is 1-A.
 Alpha  occ. eigenvalues --  -69.50396 -11.22910 -11.22884 -11.22463 -11.22456
 Alpha  occ. eigenvalues --  -11.21740  -7.60426  -6.17684  -3.93040  -3.93010
 Alpha  occ. eigenvalues --   -3.92985  -1.11763  -0.96133  -0.95954  -0.79247
 Alpha  occ. eigenvalues --   -0.77738  -0.74769  -0.66750  -0.65729  -0.61283
 Alpha  occ. eigenvalues --   -0.58084  -0.57581  -0.50087  -0.49850  -0.48675
 Alpha  occ. eigenvalues --   -0.48056  -0.47415  -0.46022  -0.45309  -0.42463
 Alpha  occ. eigenvalues --   -0.40775
 Alpha virt. eigenvalues --    0.02788   0.03085   0.03454   0.03856   0.04428
 Alpha virt. eigenvalues --    0.05150   0.05449   0.06315   0.06389   0.07365
 Alpha virt. eigenvalues --    0.08043   0.08866   0.08943   0.09579   0.09695

 Mulliken charges:
               1
     1  B   -1.249818
     2  C   -0.289854
     3  C   -0.162097
     4  C   -0.162117
     5  C   -0.238037
     6  H    0.057756
     7  H    0.066551
     8  C   -0.238055
     9  H    0.128431
    10  H    0.124597
    11  H    0.124555
    12  H    0.128359
    13  H    0.066578
    14  H    0.057793
    15  Si   0.670964
    16  H    0.065174
    17  H   -0.087744
    18  H   -0.087741
    19  H    0.537538
    20  H    0.487168
 Sum of Mulliken charges =   0.00000

 Dipole moment (field-independent basis, Debye):
    X=              0.7923    Y=             -0.0000    Z=              0.2739  Tot=              0.8383

 Test job not archived.
 1\1\GINC-SE340\SP\RHF\Aug-CC-pVDZ\C5H13B1Si1\OHZDE\09-Apr-2025\0\\#t h
 f aug-cc-pvdz iop(5/13=1,5/36=2,99/5=2) pseudo=read geom=check guess=(
 read,tcheck) scf=(maxcycle=1)\\title\\0,1\B,0,-2.636659,0.000198,1.309
 556\C,0,0.059816,-0.000104,-0.620001\C,0,0.749898,-1.203302,0.060635\C
 ,0,0.749877,1.203332,0.060243\C,0,2.232121,0.778381,0.202518\H,0,0.315
 24,1.367838,1.053566\H,0,0.630845,2.134063,-0.500041\C,0,2.232147,-0.7
 78313,0.202571\H,0,2.684406,1.191367,1.107257\H,0,2.813967,1.157463,-0
 .641829\H,0,2.813788,-1.157419,-0.64191\H,0,2.684672,-1.191241,1.10721

 Normal termination of Gaussian 16 at Wed Apr  9 00:46:48 2025.
