 Gaussian 16, Revision C.01,

 ----------------------------------------------------------------------
 #t hf aug-cc-pvdz symm=none int=(grid=ultrafine) guess=(read,tcheck) s
 table=(opt,rrhf)
 ----------------------------------------------------------------------
 -----
 title
 -----
 Symbolic Z-matrix:
 Charge =  0 Multiplicity = 1

 SCF Done:  E(RHF) =  -310.256283632     A.U. after   12 cycles

 1\1\GINC-SE096\Stability\RHF\Aug-CC-pVDZ\C6H14O1\OHZDE\08-Apr-2025\0\\
 #t hf aug-cc-pvdz symm=none int=(grid=ultrafine) guess=(read,tcheck) s
 table=(opt,rrhf)\\title\\0,1\C,0,-1.207957,-0.140988,-0.233991\O,0,0.,
 -0.000001,0.521604\C,0,1.207957,0.140989,-0.233991\C,0,1.759013,-1.230
 823,-0.63007\C,0,-1.759012,1.230825,-0.630067\H,0,-1.985317,1.814851,0
 .266048\H,0,-2.674787,1.128726,-1.21998\H,0,-1.036984,1.791747,-1.2289
 53\C,0,2.180353,0.925258,0.639247\H,0,2.354364,0.389632,1.576369\H,0,1
 .769097,1.907456,0.880784\H,0,3.140119,1.06031,0.133215\C,0,-2.180353,

 Normal termination of Gaussian 16 at Tue Apr  8 22:52:40 2025.
 Gaussian 16:  ES64L-G16RevC.01  3-Jul-2019

 ----------------------------------------------------------------------
 #t hf aug-cc-pvdz iop(5/13=1,5/36=2,99/5=2) pseudo=read geom=check gue
 ss=(read,tcheck) scf=(maxcycle=1)
 ----------------------------------------------------------------------
 -----
 title
 -----
 Structure from the checkpoint file:  "BDE49_expt_178_mol1.chk"
 Charge =  0 Multiplicity = 1

                         Standard orientation:
 ---------------------------------------------------------------------
 Center     Atomic      Atomic             Coordinates (Angstroms)
 Number     Number       Type             X           Y           Z
 ---------------------------------------------------------------------
      1          6           0       -1.207957   -0.140988   -0.233991
      2          8           0       -0.000000   -0.000001    0.521604
      3          6           0        1.207957    0.140989   -0.233991
      4          6           0        1.759013   -1.230823   -0.630070
      5          6           0       -1.759012    1.230825   -0.630067
      6          1           0       -1.985317    1.814851    0.266048
      7          1           0       -2.674787    1.128726   -1.219980
      8          1           0       -1.036984    1.791747   -1.228953
      9          6           0        2.180353    0.925258    0.639247
     10          1           0        2.354364    0.389632    1.576369
     11          1           0        1.769097    1.907456    0.880784
     12          1           0        3.140119    1.060310    0.133215
     13          6           0       -2.180353   -0.925260    0.639245
     14          1           0       -1.002371   -0.721150   -1.145008
     15          1           0       -2.354364   -0.389636    1.576367
     16          1           0       -1.769097   -1.907458    0.880779
     17          1           0       -3.140119   -1.060311    0.133211
     18          1           0        1.036984   -1.791744   -1.228957
     19          1           0        1.985317   -1.814852    0.266044
     20          1           0        2.674788   -1.128723   -1.219982
     21          1           0        1.002371    0.721152   -1.145006
 ---------------------------------------------------------------------

 SCF Done:  E(RHF) =  -310.595838644     A.U. after    2 cycles

 The electronic state is 1-A.
 Alpha  occ. eigenvalues --  -20.52836 -11.28287 -11.28235 -11.22155 -11.22153
 Alpha  occ. eigenvalues --  -11.21894 -11.21886  -1.44362  -1.07138  -1.01764
 Alpha  occ. eigenvalues --   -0.93799  -0.93284  -0.81416  -0.78429  -0.68226
 Alpha  occ. eigenvalues --   -0.63823  -0.62654  -0.58630  -0.58253  -0.56623
 Alpha  occ. eigenvalues --   -0.54292  -0.54290  -0.52035  -0.51688  -0.51129
 Alpha  occ. eigenvalues --   -0.49199  -0.48090  -0.44853  -0.40269
 Alpha virt. eigenvalues --    0.03601   0.03772   0.03952   0.04260   0.05832
 Alpha virt. eigenvalues --    0.06007   0.06045   0.06571   0.07084   0.08584
 Alpha virt. eigenvalues --    0.09288   0.09467   0.09690   0.09722   0.13710

 Mulliken charges:
               1
     1  C    0.052831
     2  O   -1.624433
     3  C    0.052837
     4  C   -0.226831
     5  C   -0.226828
     6  H    0.245192
     7  H    0.163867
     8  H    0.121768
     9  C   -0.332093
    10  H    0.199934
    11  H    0.159726
    12  H    0.164254
    13  C   -0.332092
    14  H    0.263565
    15  H    0.199933
    16  H    0.159725
    17  H    0.164257
    18  H    0.121770
    19  H    0.245193
    20  H    0.163865
    21  H    0.263562
 Sum of Mulliken charges =  -0.00000

 Dipole moment (field-independent basis, Debye):
    X=              0.0000    Y=              0.0000    Z=             -1.2928  Tot=              1.2928

 Test job not archived.
 1\1\GINC-SE096\SP\RHF\Aug-CC-pVDZ\C6H14O1\OHZDE\08-Apr-2025\0\\#t hf a
 ug-cc-pvdz iop(5/13=1,5/36=2,99/5=2) pseudo=read geom=check guess=(rea
 d,tcheck) scf=(maxcycle=1)\\title\\0,1\C,0,-1.207957,-0.140988,-0.2339
 91\O,0,0.,-0.000001,0.521604\C,0,1.207957,0.140989,-0.233991\C,0,1.759
 013,-1.230823,-0.63007\C,0,-1.759012,1.230825,-0.630067\H,0,-1.985317,
 1.814851,0.266048\H,0,-2.674787,1.128726,-1.21998\H,0,-1.036984,1.7917
 47,-1.228953\C,0,2.180353,0.925258,0.639247\H,0,2.354364,0.389632,1.57
 6369\H,0,1.769097,1.907456,0.880784\H,0,3.140119,1.06031,0.133215\C,0,

 Normal termination of Gaussian 16 at Tue Apr  8 22:52:49 2025.
