 Gaussian 16, Revision C.01,

 ----------------------------------------------------------------------
 #t hf aug-cc-pvdz symm=none int=(grid=ultrafine) guess=(read,tcheck) s
 table=(opt,rrhf)
 ----------------------------------------------------------------------
 -----
 title
 -----
 Symbolic Z-matrix:
 Charge =  0 Multiplicity = 1

 SCF Done:  E(RHF) =  -749.171882020     A.U. after   13 cycles
 Normal termination of Gaussian 16 at Wed Apr  9 00:11:40 2025.
 Gaussian 16:  ES64L-G16RevC.01  3-Jul-2019

 ----------------------------------------------------------------------
 #t hf aug-cc-pvdz iop(5/13=1,5/36=2,99/5=2) pseudo=read geom=check gue
 ss=(read,tcheck) scf=(maxcycle=1)
 ----------------------------------------------------------------------
 -----
 title
 -----
 Structure from the checkpoint file:  "BDE49_nonexpt_2387_mol1.chk"
 Charge =  0 Multiplicity = 1

                         Standard orientation:
 ---------------------------------------------------------------------
 Center     Atomic      Atomic             Coordinates (Angstroms)
 Number     Number       Type             X           Y           Z
 ---------------------------------------------------------------------
      1         14           0       -1.817810   -0.563359   -0.160416
      2         14           0       -0.237696    1.136179    0.249707
      3          1           0       -1.498862   -1.259220   -1.428430
      4          1           0       -3.154864    0.070028   -0.304046
      5          1           0       -1.873175   -1.526888    0.958097
      6          7           0        1.370051    0.699870   -0.370655
      7          1           0       -0.153454    1.451819    1.695653
      8          1           0       -0.548241    2.391133   -0.476154
      9          6           0        1.881689   -0.548941   -0.171028
     10          8           0        1.286190   -1.424757    0.426149
     11          1           0        2.886662   -0.707063   -0.603152
     12          1           0        1.949013    1.353317   -0.880472
 ---------------------------------------------------------------------

 SCF Done:  E(RHF) =  -749.408047302     A.U. after    2 cycles

 The electronic state is 1-A.
 Alpha  occ. eigenvalues --  -69.55570 -69.52383 -20.52997 -15.52536 -11.37265
 Alpha  occ. eigenvalues --   -6.22415  -6.19545  -3.97817  -3.97731  -3.97692
 Alpha  occ. eigenvalues --   -3.94903  -3.94898  -3.94888  -1.47457  -1.22105
 Alpha  occ. eigenvalues --   -0.87258  -0.79623  -0.75342  -0.71434  -0.63895
 Alpha  occ. eigenvalues --   -0.60498  -0.57927  -0.50909  -0.48674  -0.47938
 Alpha  occ. eigenvalues --   -0.45414  -0.44158  -0.40594
 Alpha virt. eigenvalues --    0.02733   0.04237   0.04573   0.05074   0.06304
 Alpha virt. eigenvalues --    0.07033   0.07256   0.07844   0.08410   0.09403
 Alpha virt. eigenvalues --    0.09956   0.10749   0.10852   0.11496   0.12639

 Mulliken charges:
               1
     1  Si   0.249392
     2  Si   0.494637
     3  H   -0.084194
     4  H   -0.163584
     5  H   -0.079123
     6  N    0.441913
     7  H   -0.107219
     8  H   -0.097876
     9  C    0.354954
    10  O   -1.008224
    11  H    0.060080
    12  H   -0.060756
 Sum of Mulliken charges =  -0.00000

 Dipole moment (field-independent basis, Debye):
    X=              1.3526    Y=              2.5025    Z=             -1.5440  Tot=              3.2367

 Test job not archived.
 1\1\GINC-SE253\SP\RHF\Aug-CC-pVDZ\C1H7N1O1Si2\OHZDE\09-Apr-2025\0\\#t
 hf aug-cc-pvdz iop(5/13=1,5/36=2,99/5=2) pseudo=read geom=check guess=
 (read,tcheck) scf=(maxcycle=1)\\title\\0,1\Si,0,-1.81781,-0.563359,-0.
 160416\Si,0,-0.237696,1.136179,0.249707\H,0,-1.498862,-1.25922,-1.4284
 3\H,0,-3.154864,0.070028,-0.304046\H,0,-1.873175,-1.526888,0.958097\N,
 0,1.370051,0.69987,-0.370655\H,0,-0.153454,1.451819,1.695653\H,0,-0.54
 8241,2.391133,-0.476154\C,0,1.881689,-0.548941,-0.171028\O,0,1.28619,-
 1.424757,0.426149\H,0,2.886662,-0.707063,-0.603152\H,0,1.949013,1.3533

 Normal termination of Gaussian 16 at Wed Apr  9 00:11:44 2025.
