 Gaussian 16, Revision C.01,

 ----------------------------------------------------------------------
 #t hf aug-cc-pvdz symm=none int=(grid=ultrafine) guess=(read,tcheck) s
 table=(opt,rrhf)
 ----------------------------------------------------------------------
 -----
 title
 -----
 Symbolic Z-matrix:
 Charge =  0 Multiplicity = 1

 SCF Done:  E(RHF) =  -679.124412579     A.U. after   16 cycles
 Normal termination of Gaussian 16 at Tue Apr  8 22:37:04 2025.
 Gaussian 16:  ES64L-G16RevC.01  3-Jul-2019

 ----------------------------------------------------------------------
 #t hf aug-cc-pvdz iop(5/13=1,5/36=2,99/5=2) pseudo=read geom=check gue
 ss=(read,tcheck) scf=(maxcycle=1)
 ----------------------------------------------------------------------
 -----
 title
 -----
 Structure from the checkpoint file:  "BDE49_expt_1099_mol1.chk"
 Charge =  0 Multiplicity = 1

                         Standard orientation:
 ---------------------------------------------------------------------
 Center     Atomic      Atomic             Coordinates (Angstroms)
 Number     Number       Type             X           Y           Z
 ---------------------------------------------------------------------
      1          6           0        1.681870    1.274029   -0.000000
      2          6           0        0.663863    0.307716   -0.000003
      3          6           0       -0.735626    0.806044   -0.000005
      4          8           0       -1.034430    1.975438   -0.000000
      5          6           0       -1.896487   -0.234060    0.000002
      6          6           0        3.014260    0.889059    0.000001
      7          6           0        3.346979   -0.466646   -0.000000
      8          6           0        2.343352   -1.432860   -0.000004
      9          6           0        1.005367   -1.052765   -0.000005
     10          1           0        0.239031   -1.815133   -0.000008
     11          1           0        4.388216   -0.768753    0.000001
     12          1           0        2.602148   -2.485084   -0.000005
     13          1           0        1.400201    2.319569    0.000001
     14          1           0        3.794780    1.640852    0.000004
     15          9           0       -3.081686    0.368710   -0.000005
     16          9           0       -1.830844   -1.030922   -1.090423
     17          9           0       -1.830848   -1.030905    1.090439
 ---------------------------------------------------------------------

 SCF Done:  E(RHF) =  -679.773212113     A.U. after    2 cycles

 The electronic state is 1-A.
 Alpha  occ. eigenvalues --  -26.52087 -26.52084 -26.51547 -20.57814 -11.53541
 Alpha  occ. eigenvalues --  -11.38581 -11.27926 -11.27771 -11.27651 -11.27381
 Alpha  occ. eigenvalues --  -11.26645 -11.26565  -1.72723  -1.62636  -1.62578
 Alpha  occ. eigenvalues --   -1.51240  -1.18674  -1.07562  -1.04694  -1.00991
 Alpha  occ. eigenvalues --   -0.90968  -0.87330  -0.84996  -0.82207  -0.82090
 Alpha  occ. eigenvalues --   -0.77698  -0.72877  -0.70404  -0.69902  -0.67818
 Alpha  occ. eigenvalues --   -0.67077  -0.65766  -0.64975  -0.63746  -0.63189
 Alpha  occ. eigenvalues --   -0.62542  -0.61487  -0.58286  -0.55285  -0.53091
 Alpha  occ. eigenvalues --   -0.52493  -0.45830  -0.37543  -0.37150
 Alpha virt. eigenvalues --    0.02707   0.03376   0.03735   0.04196   0.05789
 Alpha virt. eigenvalues --    0.06328   0.08384   0.08739   0.08953   0.10144
 Alpha virt. eigenvalues --    0.11118   0.11127   0.12669   0.12922   0.13347

 Mulliken charges:
               1
     1  C   -0.761272
     2  C    2.512784
     3  C   -0.338231
     4  O   -1.429231
     5  C    2.909818
     6  C    0.456105
     7  C   -0.107383
     8  C    0.234661
     9  C    0.087599
    10  H   -0.272181
    11  H   -0.216429
    12  H   -0.218200
    13  H   -0.337002
    14  H   -0.208026
    15  F   -0.799353
    16  F   -0.756829
    17  F   -0.756828
 Sum of Mulliken charges =  -0.00000

 Dipole moment (field-independent basis, Debye):
    X=              3.7119    Y=             -1.5061    Z=             -0.0000  Tot=              4.0058

 Test job not archived.
 1\1\GINC-SE070\SP\RHF\Aug-CC-pVDZ\C8H5F3O1\OHZDE\08-Apr-2025\0\\#t hf
 aug-cc-pvdz iop(5/13=1,5/36=2,99/5=2) pseudo=read geom=check guess=(re
 ad,tcheck) scf=(maxcycle=1)\\title\\0,1\C,0,-1.68187,1.274029,0.\C,0,-
 0.663863,0.307716,0.000003\C,0,0.735626,0.806044,0.000005\O,0,1.03443,
 1.975438,0.\C,0,1.896487,-0.23406,-0.000002\C,0,-3.01426,0.889059,-0.0
 00001\C,0,-3.346979,-0.466646,0.\C,0,-2.343352,-1.43286,0.000004\C,0,-
 1.005367,-1.052765,0.000005\H,0,-0.239031,-1.815133,0.000008\H,0,-4.38
 8216,-0.768753,-0.000001\H,0,-2.602148,-2.485084,0.000005\H,0,-1.40020

 Normal termination of Gaussian 16 at Tue Apr  8 22:37:14 2025.
