 Gaussian 16, Revision C.01,

 ----------------------------------------------------------------------
 #t hf aug-cc-pvdz symm=none int=(grid=ultrafine) guess=(read,tcheck) s
 table=(opt,rrhf)
 ----------------------------------------------------------------------
 -----
 title
 -----
 Symbolic Z-matrix:
 Charge =  0 Multiplicity = 1

 SCF Done:  E(RHF) =  -1489.44256147     A.U. after   14 cycles
 Normal termination of Gaussian 16 at Tue Apr  8 22:54:59 2025.
 Gaussian 16:  ES64L-G16RevC.01  3-Jul-2019

 ----------------------------------------------------------------------
 #t hf aug-cc-pvdz iop(5/13=1,5/36=2,99/5=2) pseudo=read geom=check gue
 ss=(read,tcheck) scf=(maxcycle=1)
 ----------------------------------------------------------------------
 -----
 title
 -----
 Structure from the checkpoint file:  "BDE49_expt_1721_mol1.chk"
 Charge =  0 Multiplicity = 1

                         Standard orientation:
 ---------------------------------------------------------------------
 Center     Atomic      Atomic             Coordinates (Angstroms)
 Number     Number       Type             X           Y           Z
 ---------------------------------------------------------------------
      1          6           0        0.225381    1.252272    0.304948
      2          8           0        0.399847    1.997789    1.223713
      3          6           0        1.090281   -0.000011   -0.000003
      4          8           0       -0.709206    1.362119   -0.642818
      5         17           0        2.117469   -0.389910    1.415197
      6         17           0        2.117615    0.389789   -1.415123
      7          6           0       -1.578345    2.530940   -0.578182
      8          6           0       -2.766891    2.285065    0.333188
      9          1           0       -1.883162    2.685365   -1.612382
     10          1           0       -0.983198    3.379670   -0.240637
     11          1           0       -3.337175    1.414150    0.003443
     12          1           0       -3.428269    3.155684    0.311141
     13          1           0       -2.441627    2.129300    1.362779
     14          6           0        0.225283   -1.252210   -0.305018
     15          8           0        0.399788   -1.997781   -1.223732
     16          8           0       -0.709285   -1.362055    0.642768
     17          6           0       -1.578425   -2.530874    0.578151
     18          6           0       -2.766993   -2.284996   -0.333192
     19          1           0       -1.883219   -2.685300    1.612358
     20          1           0       -0.983287   -3.379605    0.240592
     21          1           0       -3.337266   -1.414080   -0.003432
     22          1           0       -3.428371   -3.155614   -0.311130
     23          1           0       -2.441752   -2.129230   -1.362790
 ---------------------------------------------------------------------

 SCF Done:  E(RHF) =  -1490.16316996     A.U. after    2 cycles

 The electronic state is 1-A.
 Alpha  occ. eigenvalues -- -105.58991-105.58991 -20.61200 -20.61193 -20.56319
 Alpha  occ. eigenvalues --  -20.56319 -11.42631 -11.42606 -11.41281 -11.31688
 Alpha  occ. eigenvalues --  -11.31687 -11.24693 -11.24691 -10.63755 -10.63752
 Alpha  occ. eigenvalues --   -7.80720  -7.80708  -7.80287  -7.80285  -7.80277
 Alpha  occ. eigenvalues --   -7.80276  -1.57333  -1.56596  -1.48252  -1.48231
 Alpha  occ. eigenvalues --   -1.19353  -1.06683  -1.06376  -1.05276  -0.97271
 Alpha  occ. eigenvalues --   -0.91806  -0.87532  -0.82632  -0.78500  -0.76887
 Alpha  occ. eigenvalues --   -0.71624  -0.71033  -0.69597  -0.67870  -0.65918
 Alpha  occ. eigenvalues --   -0.64931  -0.62837  -0.61365  -0.59505  -0.58812
 Alpha  occ. eigenvalues --   -0.56463  -0.55612  -0.55159  -0.54837  -0.52722
 Alpha  occ. eigenvalues --   -0.51878  -0.51313  -0.49360  -0.48830  -0.47367
 Alpha  occ. eigenvalues --   -0.47122  -0.46308  -0.45858  -0.44683
 Alpha virt. eigenvalues --    0.03008   0.03157   0.03868   0.04314   0.05319
 Alpha virt. eigenvalues --    0.05762   0.06330   0.07642   0.08143   0.08280
 Alpha virt. eigenvalues --    0.08691   0.09681   0.10674   0.11158   0.12020

 Mulliken charges:
               1
     1  C    2.543188
     2  O   -1.289891
     3  C   -1.491300
     4  O   -1.333616
     5  Cl   0.101805
     6  Cl   0.101804
     7  C    0.391659
     8  C   -0.375391
     9  H   -0.021278
    10  H    0.241724
    11  H    0.180122
    12  H    0.154611
    13  H    0.152693
    14  C    2.543214
    15  O   -1.289883
    16  O   -1.333601
    17  C    0.391644
    18  C   -0.375383
    19  H   -0.021276
    20  H    0.241723
    21  H    0.180129
    22  H    0.154613
    23  H    0.152690
 Sum of Mulliken charges =  -0.00000

 Dipole moment (field-independent basis, Debye):
    X=             -4.5281    Y=              0.0002    Z=             -0.0001  Tot=              4.5281

 Test job not archived.
 1\1\GINC-SE454\SP\RHF\Aug-CC-pVDZ\C7H10Cl2O4\OHZDE\08-Apr-2025\0\\#t h
 f aug-cc-pvdz iop(5/13=1,5/36=2,99/5=2) pseudo=read geom=check guess=(
 read,tcheck) scf=(maxcycle=1)\\title\\0,1\C,0,0.225382,-1.252272,-0.30
 4948\O,0,0.399849,-1.997788,-1.223713\C,0,1.090281,0.000012,0.000003\O
 ,0,-0.709205,-1.36212,0.642818\Cl,0,2.117469,0.389912,-1.415197\Cl,0,2
 .117615,-0.389787,1.415123\C,0,-1.578342,-2.530942,0.578182\C,0,-2.766
 889,-2.285068,-0.333188\H,0,-1.883159,-2.685367,1.612382\H,0,-0.983194
 ,-3.379671,0.240637\H,0,-3.337173,-1.414153,-0.003443\H,0,-3.428266,-3

 Normal termination of Gaussian 16 at Tue Apr  8 22:55:20 2025.
