 Gaussian 16, Revision C.01,

 ----------------------------------------------------------------------
 #t hf aug-cc-pvdz symm=none int=(grid=ultrafine) guess=(read,tcheck) s
 table=(opt,rrhf)
 ----------------------------------------------------------------------
 -----
 title
 -----
 Symbolic Z-matrix:
 Charge =  0 Multiplicity = 1

 SCF Done:  E(RHF) =  -2625.06898687     A.U. after   12 cycles
 Normal termination of Gaussian 16 at Tue Apr  8 23:48:23 2025.
 Gaussian 16:  ES64L-G16RevC.01  3-Jul-2019

 ----------------------------------------------------------------------
 #t hf aug-cc-pvdz iop(5/13=1,5/36=2,99/5=2) pseudo=read geom=check gue
 ss=(read,tcheck) scf=(maxcycle=1)
 ----------------------------------------------------------------------
 -----
 title
 -----
 Structure from the checkpoint file:  "BDE49_nonexpt_1818_mol1.chk"
 Charge =  0 Multiplicity = 1

                         Standard orientation:
 ---------------------------------------------------------------------
 Center     Atomic      Atomic             Coordinates (Angstroms)
 Number     Number       Type             X           Y           Z
 ---------------------------------------------------------------------
      1          6           0        0.825495    1.003257    0.000000
      2         14           0       -0.105733   -0.650658   -0.000000
      3          1           0        1.900193    0.834373    0.000000
      4         17           0        0.451200    1.940891    1.485980
      5         17           0        0.451200    1.940891   -1.485980
      6         17           0       -2.120854   -0.338161   -0.000000
      7         17           0        0.451200   -1.705478    1.665319
      8         17           0        0.451200   -1.705478   -1.665319
 ---------------------------------------------------------------------

 SCF Done:  E(RHF) =  -2625.52170099     A.U. after    2 cycles

 The electronic state is 1-A'.
 Alpha  occ. eigenvalues -- -105.59827-105.59827-105.59529-105.59529-105.59479
 Alpha  occ. eigenvalues --  -69.69457 -11.39053 -10.64606 -10.64595 -10.64555
 Alpha  occ. eigenvalues --  -10.64544 -10.64503  -7.81551  -7.81549  -7.81445
 Alpha  occ. eigenvalues --   -7.81439  -7.81401  -7.81142  -7.81140  -7.81129
 Alpha  occ. eigenvalues --   -7.81127  -7.81108  -7.81108  -7.81100  -7.81096
 Alpha  occ. eigenvalues --   -7.81057  -7.81051  -6.35189  -4.10568  -4.10565
 Alpha  occ. eigenvalues --   -4.10408  -1.18105  -1.12444  -1.07873  -1.07710
 Alpha  occ. eigenvalues --   -1.06424  -0.90150  -0.74578  -0.66865  -0.62703
 Alpha  occ. eigenvalues --   -0.62529  -0.59843  -0.59061  -0.52767  -0.52505
 Alpha  occ. eigenvalues --   -0.52190  -0.50769  -0.49927  -0.49277  -0.48989
 Alpha  occ. eigenvalues --   -0.48491  -0.46811  -0.45142
 Alpha virt. eigenvalues --    0.03816   0.05440   0.05890   0.05922   0.07760
 Alpha virt. eigenvalues --    0.08446   0.09192   0.11049   0.11406   0.11985
 Alpha virt. eigenvalues --    0.12582   0.13289   0.14155   0.15363   0.16229

 Mulliken charges:
               1
     1  C   -0.837075
     2  Si   2.174605
     3  H    0.296364
     4  Cl  -0.045486
     5  Cl  -0.045486
     6  Cl  -0.508332
     7  Cl  -0.517294
     8  Cl  -0.517294
 Sum of Mulliken charges =  -0.00000

 Dipole moment (field-independent basis, Debye):
    X=              1.0249    Y=             -0.3647    Z=             -0.0000  Tot=              1.0879

 Test job not archived.
 1\1\GINC-SE460\SP\RHF\Aug-CC-pVDZ\C1H1Cl5Si1\OHZDE\08-Apr-2025\0\\#t h
 f aug-cc-pvdz iop(5/13=1,5/36=2,99/5=2) pseudo=read geom=check guess=(
 read,tcheck) scf=(maxcycle=1)\\title\\0,1\C,0,1.120133,0.,-0.658231\Si
 ,0,-0.659188,0.,0.002553\H,0,1.121601,0.,-1.746117\Cl,0,1.987599,-1.48
 598,-0.141744\Cl,0,1.987599,1.48598,-0.141744\Cl,0,-0.666059,0.,2.0417
 49\Cl,0,-1.613798,-1.665319,-0.712667\Cl,0,-1.613798,1.665319,-0.71266
 7\\Version=ES64L-G16RevC.01\State=1-A'\HF=-2625.521701\RMSD=3.431e-03\
 Dipole=-0.078597,0.,-0.4207284\Quadrupole=-1.5882538,-0.447751,2.03600

 Normal termination of Gaussian 16 at Tue Apr  8 23:48:27 2025.
