 Gaussian 16, Revision C.01,

 ----------------------------------------------------------------------
 #t hf aug-cc-pvdz symm=none int=(grid=ultrafine) guess=(read,tcheck) s
 table=(opt,rrhf)
 ----------------------------------------------------------------------
 -----
 title
 -----
 Symbolic Z-matrix:
 Charge =  0 Multiplicity = 1

 SCF Done:  E(RHF) =  -525.496373230     A.U. after   12 cycles
 Normal termination of Gaussian 16 at Tue Apr  8 23:13:03 2025.
 Gaussian 16:  ES64L-G16RevC.01  3-Jul-2019

 ----------------------------------------------------------------------
 #t hf aug-cc-pvdz iop(5/13=1,5/36=2,99/5=2) pseudo=read geom=check gue
 ss=(read,tcheck) scf=(maxcycle=1)
 ----------------------------------------------------------------------
 -----
 title
 -----
 Structure from the checkpoint file:  "BDE49_expt_801_mol1.chk"
 Charge =  0 Multiplicity = 1

                         Standard orientation:
 ---------------------------------------------------------------------
 Center     Atomic      Atomic             Coordinates (Angstroms)
 Number     Number       Type             X           Y           Z
 ---------------------------------------------------------------------
      1         14           0       -0.000000   -0.396879   -0.386594
      2          6           0        0.000000    1.474569   -0.677281
      3          6           0        0.000000    2.342799    0.593936
      4          1           0        0.000000    3.409893    0.351892
      5          1           0        0.880976    2.151656    1.213944
      6          1           0       -0.880976    2.151656    1.213944
      7          1           0       -0.871338    1.721031   -1.295833
      8          1           0        0.871338    1.721031   -1.295833
      9          6           0       -1.547351   -0.952297    0.551483
     10          6           0       -2.882882   -0.635749   -0.145051
     11          1           0       -2.934421   -1.094346   -1.137015
     12          1           0       -3.024097    0.440993   -0.276892
     13          1           0       -3.735911   -1.006458    0.431369
     14          1           0       -1.532680   -0.501522    1.551603
     15          1           0       -1.464461   -2.033599    0.716602
     16          6           0        1.547351   -0.952296    0.551483
     17          1           0       -0.000000   -1.056755   -1.724252
     18          6           0        2.882882   -0.635749   -0.145051
     19          1           0        3.024097    0.440993   -0.276892
     20          1           0        2.934421   -1.094346   -1.137015
     21          1           0        3.735911   -1.006458    0.431369
     22          1           0        1.464461   -2.033599    0.716602
     23          1           0        1.532680   -0.501522    1.551603
 ---------------------------------------------------------------------

 SCF Done:  E(RHF) =  -525.800028645     A.U. after    2 cycles

 The electronic state is 1-A.
 Alpha  occ. eigenvalues --  -69.50180 -11.22782 -11.22637 -11.22636 -11.21193
 Alpha  occ. eigenvalues --  -11.21188 -11.21156  -6.17289  -3.92634  -3.92610
 Alpha  occ. eigenvalues --   -3.92602  -1.03449  -1.01224  -1.00858  -0.86201
 Alpha  occ. eigenvalues --   -0.83878  -0.82648  -0.66859  -0.61605  -0.61592
 Alpha  occ. eigenvalues --   -0.59552  -0.57807  -0.57497  -0.55119  -0.53216
 Alpha  occ. eigenvalues --   -0.51445  -0.50744  -0.50061  -0.49647  -0.48756
 Alpha  occ. eigenvalues --   -0.43661  -0.41260  -0.41133
 Alpha virt. eigenvalues --    0.03409   0.03493   0.03677   0.03773   0.05425
 Alpha virt. eigenvalues --    0.05775   0.06116   0.06123   0.06334   0.08276
 Alpha virt. eigenvalues --    0.08469   0.08863   0.09066   0.09945   0.10030

 Mulliken charges:
               1
     1  Si   1.894102
     2  C   -0.640816
     3  C   -0.331285
     4  H    0.086609
     5  H    0.128517
     6  H    0.128517
     7  H   -0.020636
     8  H   -0.020636
     9  C   -0.466561
    10  C   -0.531099
    11  H    0.141916
    12  H    0.122380
    13  H    0.101302
    14  H    0.153725
    15  H   -0.006174
    16  C   -0.466562
    17  H   -0.255352
    18  C   -0.531099
    19  H    0.122380
    20  H    0.141916
    21  H    0.101302
    22  H   -0.006171
    23  H    0.153723
 Sum of Mulliken charges =   0.00000

 Dipole moment (field-independent basis, Debye):
    X=              0.0000    Y=              0.1987    Z=              0.5265  Tot=              0.5627

 Test job not archived.
 1\1\GINC-SE184\SP\RHF\Aug-CC-pVDZ\C6H16Si1\OHZDE\08-Apr-2025\0\\#t hf
 aug-cc-pvdz iop(5/13=1,5/36=2,99/5=2) pseudo=read geom=check guess=(re
 ad,tcheck) scf=(maxcycle=1)\\title\\0,1\Si,0,0.,-0.396879,0.386594\C,0
 ,0.,1.474569,0.677281\C,0,0.,2.342799,-0.593936\H,0,0.,3.409893,-0.351
 892\H,0,-0.880976,2.151656,-1.213944\H,0,0.880976,2.151656,-1.213944\H
 ,0,0.871338,1.721031,1.295833\H,0,-0.871338,1.721031,1.295833\C,0,1.54
 7351,-0.952297,-0.551483\C,0,2.882882,-0.635749,0.145051\H,0,2.934421,
 -1.094346,1.137015\H,0,3.024097,0.440993,0.276892\H,0,3.735911,-1.0064

 Normal termination of Gaussian 16 at Tue Apr  8 23:13:15 2025.
