 Gaussian 16, Revision C.01,

 ----------------------------------------------------------------------
 #t hf aug-cc-pvdz symm=none int=(grid=ultrafine) guess=(read,tcheck) s
 table=(opt,rrhf)
 ----------------------------------------------------------------------
 -----
 title
 -----
 Symbolic Z-matrix:
 Charge =  0 Multiplicity = 1

 SCF Done:  E(RHF) =  -1193.76530059     A.U. after   13 cycles
 Normal termination of Gaussian 16 at Tue Apr  8 22:59:36 2025.
 Gaussian 16:  ES64L-G16RevC.01  3-Jul-2019

 ----------------------------------------------------------------------
 #t hf aug-cc-pvdz iop(5/13=1,5/36=2,99/5=2) pseudo=read geom=check gue
 ss=(read,tcheck) scf=(maxcycle=1)
 ----------------------------------------------------------------------
 -----
 title
 -----
 Structure from the checkpoint file:  "BDE49_expt_1963_mol1.chk"
 Charge =  0 Multiplicity = 1

                         Standard orientation:
 ---------------------------------------------------------------------
 Center     Atomic      Atomic             Coordinates (Angstroms)
 Number     Number       Type             X           Y           Z
 ---------------------------------------------------------------------
      1         16           0        0.053396   -0.388920    1.695730
      2         16           0        0.053396    0.841101   -0.000000
      3          1           0       -1.281510   -0.506084    1.844524
      4         16           0        0.053396   -0.388920   -1.695730
      5          1           0       -1.281510   -0.506084   -1.844524
 ---------------------------------------------------------------------

 SCF Done:  E(RHF) =  -1193.94856810     A.U. after    2 cycles

 The electronic state is 1-A'.
 Alpha  occ. eigenvalues --  -94.01437 -93.99323 -93.99322  -8.29179  -8.27306
 Alpha  occ. eigenvalues --   -8.27271  -6.26931  -6.26723  -6.26450  -6.25110
 Alpha  occ. eigenvalues --   -6.25094  -6.24930  -6.24926  -6.24682  -6.24681
 Alpha  occ. eigenvalues --   -1.12608  -1.02436  -0.87511  -0.60421  -0.59123
 Alpha  occ. eigenvalues --   -0.51138  -0.50968  -0.40556  -0.38975  -0.38737
 Alpha virt. eigenvalues --    0.03450   0.04653   0.04920   0.09040   0.10144
 Alpha virt. eigenvalues --    0.10682   0.11687   0.12060   0.12861   0.14386
 Alpha virt. eigenvalues --    0.14791   0.14812   0.17999   0.18954   0.19333

 Mulliken charges:
               1
     1  S   -0.345004
     2  S   -0.137288
     3  H    0.413648
     4  S   -0.345004
     5  H    0.413648
 Sum of Mulliken charges =   0.00000

 Dipole moment (field-independent basis, Debye):
    X=             -1.9046    Y=             -0.5743    Z=              0.0000  Tot=              1.9893

 Test job not archived.
 1\1\GINC-SE127\SP\RHF\Aug-CC-pVDZ\H2S3\OHZDE\08-Apr-2025\0\\#t hf aug-
 cc-pvdz iop(5/13=1,5/36=2,99/5=2) pseudo=read geom=check guess=(read,t
 check) scf=(maxcycle=1)\\title\\0,1\S,0,-0.053396,-0.38892,-1.69573\S,
 0,-0.053396,0.841101,0.\H,0,1.28151,-0.506084,-1.844524\S,0,-0.053396,
 -0.38892,1.69573\H,0,1.28151,-0.506084,1.844524\\Version=ES64L-G16RevC
 .01\State=1-A'\HF=-1193.9485681\RMSD=3.772e-03\Dipole=0.7493349,-0.225
 946,0.\Quadrupole=1.3834695,-1.9099405,0.5264709,-1.1571368,0.,0.\PG=C
 S [SG(S1),X(H2S2)]\\@

 Normal termination of Gaussian 16 at Tue Apr  8 22:59:37 2025.
