 Gaussian 16, Revision C.01,

 ----------------------------------------------------------------------
 #t hf aug-cc-pvdz symm=none int=(grid=ultrafine) guess=(read,tcheck) s
 table=opt
 ----------------------------------------------------------------------
 -----
 title
 -----
 Symbolic Z-matrix:
 Charge =  0 Multiplicity = 2

 SCF Done:  E(UHF) =  -231.567187169     A.U. after   17 cycles
 Normal termination of Gaussian 16 at Tue Apr  8 22:41:50 2025.
 Gaussian 16:  ES64L-G16RevC.01  3-Jul-2019

 ----------------------------------------------------------------------
 #t hf aug-cc-pvdz iop(5/13=1,5/36=2,99/5=2) pseudo=read geom=check gue
 ss=(read,tcheck) scf=(maxcycle=1)
 ----------------------------------------------------------------------
 -----
 title
 -----
 Structure from the checkpoint file:  "BDE49_expt_1386_mol2.chk"
 Charge =  0 Multiplicity = 2

                         Standard orientation:
 ---------------------------------------------------------------------
 Center     Atomic      Atomic             Coordinates (Angstroms)
 Number     Number       Type             X           Y           Z
 ---------------------------------------------------------------------
      1          6           0        0.000001   -0.026699    0.079757
      2          8           0       -0.000006    0.261214    1.428260
      3          6           0       -1.277142   -0.792358   -0.315075
      4          6           0        1.277180   -0.792299   -0.315075
      5          1           0        1.314641   -0.972117   -1.393213
      6          1           0        1.304467   -1.759028    0.193824
      7          1           0        2.161500   -0.224894   -0.018594
      8          6           0       -0.000033    1.389116   -0.577528
      9          1           0       -0.000030    1.262858   -1.663066
     10          1           0        0.888704    1.946603   -0.279758
     11          1           0       -0.888795    1.946562   -0.279758
     12          1           0       -1.304384   -1.759090    0.193824
     13          1           0       -1.314595   -0.972178   -1.393212
     14          1           0       -2.161491   -0.224995   -0.018594
 ---------------------------------------------------------------------

 SCF Done:  E(UHF) =  -231.812179180     A.U. after    2 cycles

 The electronic state is 2-A.
 Alpha  occ. eigenvalues --  -20.59814 -11.29521 -11.23929 -11.22989 -11.22963
 Alpha  occ. eigenvalues --   -1.48428  -1.06621  -0.95254  -0.94775  -0.76693
 Alpha  occ. eigenvalues --   -0.68038  -0.64538  -0.64511  -0.58865  -0.57200
 Alpha  occ. eigenvalues --   -0.54234  -0.53968  -0.53203  -0.52475  -0.46450
 Alpha  occ. eigenvalues --   -0.44880
 Alpha virt. eigenvalues --    0.03705   0.04171   0.04193   0.04951   0.06669
 Alpha virt. eigenvalues --    0.06687   0.07355   0.07403   0.09695   0.10183
 Alpha virt. eigenvalues --    0.14640   0.14689   0.15149   0.15726   0.15915

  Beta  occ. eigenvalues --  -20.55860 -11.29805 -11.23636 -11.22928 -11.22901
  Beta  occ. eigenvalues --   -1.35414  -1.04659  -0.94637  -0.94277  -0.75083
  Beta  occ. eigenvalues --   -0.63666  -0.63348  -0.61393  -0.56645  -0.55915
  Beta  occ. eigenvalues --   -0.53146  -0.52111  -0.51557  -0.48710  -0.42217
  Beta virt. eigenvalues --    0.03714   0.03885   0.04202   0.04966   0.06672
  Beta virt. eigenvalues --    0.06678   0.07334   0.07404   0.09696   0.09780
  Beta virt. eigenvalues --    0.10427   0.14725   0.15187   0.15577   0.15837

 Mulliken charges and spin densities:
               1          2
     1  C   -0.783776  -0.311740
     2  O   -1.094701   1.098123
     3  C    0.028156   0.026709
     4  C    0.028157   0.026709
     5  H    0.241056  -0.001809
     6  H    0.179189   0.005037
     7  H    0.180186  -0.004243
     8  C    0.024813   0.145250
     9  H    0.257359   0.006597
    10  H    0.169565   0.005190
    11  H    0.169564   0.005190
    12  H    0.179190   0.005037
    13  H    0.241053  -0.001809
    14  H    0.180188  -0.004243
 Sum of Mulliken charges =  -0.00000   1.00000

 Dipole moment (field-independent basis, Debye):
    X=              0.0000    Y=             -0.2506    Z=             -1.8287  Tot=              1.8457
                          Isotropic Fermi Contact Couplings
        Atom                 a.u.       MegaHertz       Gauss      10(-4) cm-1
     1  C(13)             -0.05010     -56.31952     -20.09620     -18.78617
     2  O(17)              0.25857    -156.74260     -55.92966     -52.28370
     3  C(13)              0.01086      12.21191       4.35751       4.07346
     4  C(13)              0.01086      12.21186       4.35750       4.07344
     5  H(1)              -0.00038      -1.70944      -0.60997      -0.57021
     6  H(1)              -0.00084      -3.74746      -1.33719      -1.25002
     7  H(1)              -0.00054      -2.43266      -0.86803      -0.81145
     8  C(13)              0.06089      68.45035      24.42479      22.83258

 Normal termination of Gaussian 16 at Tue Apr  8 22:41:55 2025.
