 Gaussian 16, Revision C.01,

 ----------------------------------------------------------------------
 #t hf aug-cc-pvdz symm=none int=(grid=ultrafine) guess=(read,tcheck) s
 table=(opt,rrhf)
 ----------------------------------------------------------------------
 -----
 title
 -----
 Symbolic Z-matrix:
 Charge =  0 Multiplicity = 1

 SCF Done:  E(RHF) =  -515.336530886     A.U. after   16 cycles
 Normal termination of Gaussian 16 at Tue Apr  8 22:43:03 2025.
 Gaussian 16:  ES64L-G16RevC.01  3-Jul-2019

 ----------------------------------------------------------------------
 #t hf aug-cc-pvdz iop(5/13=1,5/36=2,99/5=2) pseudo=read geom=check gue
 ss=(read,tcheck) scf=(maxcycle=1)
 ----------------------------------------------------------------------
 -----
 title
 -----
 Structure from the checkpoint file:  "BDE49_expt_1179_mol1.chk"
 Charge =  0 Multiplicity = 1

                         Standard orientation:
 ---------------------------------------------------------------------
 Center     Atomic      Atomic             Coordinates (Angstroms)
 Number     Number       Type             X           Y           Z
 ---------------------------------------------------------------------
      1          6           0       -1.891579   -1.262549   -0.223068
      2          6           0       -1.284891   -0.295600    0.585829
      3          6           0       -3.040471   -0.930137   -0.930528
      4          6           0       -3.551088    0.359375   -0.812670
      5          6           0       -2.879685    1.255247    0.013720
      6          7           0       -1.776803    0.945541    0.701489
      7          1           0       -4.445135    0.664701   -1.342846
      8          1           0       -3.245237    2.271411    0.135657
      9          1           0       -1.464850   -2.256471   -0.293618
     10          1           0       -3.529751   -1.664149   -1.561299
     11          6           0       -0.017114   -0.598757    1.360823
     12          6           0        1.247563   -0.235441    0.597685
     13          1           0       -0.057444   -0.031441    2.294118
     14          1           0        0.011038   -1.660573    1.618387
     15          6           0        2.141346   -1.223912    0.179123
     16          6           0        1.537846    1.101193    0.299049
     17          6           0        3.300686   -0.890384   -0.520485
     18          6           0        3.580396    0.441479   -0.811729
     19          6           0        2.693849    1.436145   -0.399246
     20          1           0        1.933036   -2.264724    0.406845
     21          1           0        3.983983   -1.671766   -0.834834
     22          1           0        0.843868    1.873479    0.611159
     23          1           0        4.481781    0.704194   -1.354045
     24          1           0        2.905188    2.476589   -0.620974
 ---------------------------------------------------------------------

 SCF Done:  E(RHF) =  -515.866455444     A.U. after    2 cycles

 The electronic state is 1-A.
 Alpha  occ. eigenvalues --  -15.50133 -11.28662 -11.28081 -11.26632 -11.24673
 Alpha  occ. eigenvalues --  -11.24575 -11.24536 -11.24373 -11.23959 -11.23841
 Alpha  occ. eigenvalues --  -11.23741 -11.23658 -11.23239  -1.26009  -1.15416
 Alpha  occ. eigenvalues --   -1.09051  -1.07461  -1.02208  -1.01104  -0.94524
 Alpha  occ. eigenvalues --   -0.87651  -0.85008  -0.83097  -0.80317  -0.72103
 Alpha  occ. eigenvalues --   -0.70450  -0.69380  -0.65376  -0.64396  -0.63828
 Alpha  occ. eigenvalues --   -0.60543  -0.59725  -0.59339  -0.58756  -0.55161
 Alpha  occ. eigenvalues --   -0.54788  -0.53514  -0.49980  -0.49734  -0.49446
 Alpha  occ. eigenvalues --   -0.44917  -0.40342  -0.35285  -0.34126  -0.33111
 Alpha virt. eigenvalues --    0.03104   0.03342   0.03669   0.03995   0.04376
 Alpha virt. eigenvalues --    0.04841   0.05746   0.05791   0.07669   0.07881
 Alpha virt. eigenvalues --    0.08002   0.08845   0.09369   0.10207   0.10417

 Mulliken charges:
               1
     1  C    0.627062
     2  C   -1.371863
     3  C    0.001751
     4  C    0.653560
     5  C   -0.580650
     6  N    1.469251
     7  H   -0.198768
     8  H   -0.235468
     9  H   -0.288412
    10  H   -0.188244
    11  C   -0.711999
    12  C    1.597073
    13  H    0.170484
    14  H    0.017697
    15  C    0.196787
    16  C   -0.155896
    17  C    0.187321
    18  C    0.120217
    19  C    0.045871
    20  H   -0.318219
    21  H   -0.236928
    22  H   -0.338781
    23  H   -0.221638
    24  H   -0.240208
 Sum of Mulliken charges =   0.00000

 Dipole moment (field-independent basis, Debye):
    X=             -1.1581    Y=             -1.5940    Z=             -1.2730  Tot=              2.3457

 Test job not archived.
 1\1\GINC-SE096\SP\RHF\Aug-CC-pVDZ\C12H11N1\OHZDE\08-Apr-2025\0\\#t hf
 aug-cc-pvdz iop(5/13=1,5/36=2,99/5=2) pseudo=read geom=check guess=(re
 ad,tcheck) scf=(maxcycle=1)\\title\\0,1\C,0,-1.891579,-1.262549,-0.223
 068\C,0,-1.284891,-0.2956,0.585829\C,0,-3.040471,-0.930137,-0.930528\C
 ,0,-3.551088,0.359375,-0.81267\C,0,-2.879685,1.255247,0.01372\N,0,-1.7
 76803,0.945541,0.701489\H,0,-4.445135,0.664701,-1.342846\H,0,-3.245237
 ,2.271411,0.135657\H,0,-1.46485,-2.256471,-0.293618\H,0,-3.529751,-1.6
 64149,-1.561299\C,0,-0.017114,-0.598757,1.360823\C,0,1.247563,-0.23544

 Normal termination of Gaussian 16 at Tue Apr  8 22:43:25 2025.
