 Gaussian 16, Revision C.01,

 ----------------------------------------------------------------------
 #t hf aug-cc-pvdz symm=none int=(grid=ultrafine) guess=(read,tcheck) s
 table=opt
 ----------------------------------------------------------------------
 -----
 title
 -----
 Symbolic Z-matrix:
 Charge =  0 Multiplicity = 2

 SCF Done:  E(UHF) =  -480.639554974     A.U. after   25 cycles
 Normal termination of Gaussian 16 at Tue Apr  8 23:16:29 2025.
 Gaussian 16:  ES64L-G16RevC.01  3-Jul-2019

 ----------------------------------------------------------------------
 #t hf aug-cc-pvdz iop(5/13=1,5/36=2,99/5=2) pseudo=read geom=check gue
 ss=(read,tcheck) scf=(maxcycle=1)
 ----------------------------------------------------------------------
 -----
 title
 -----
 Structure from the checkpoint file:  "BDE49_expt_429_mol2.chk"
 Charge =  0 Multiplicity = 2

                         Standard orientation:
 ---------------------------------------------------------------------
 Center     Atomic      Atomic             Coordinates (Angstroms)
 Number     Number       Type             X           Y           Z
 ---------------------------------------------------------------------
      1          6           0       -1.874797    0.180962   -0.003140
      2          6           0       -2.389150    0.403300   -1.444468
      3          1           0       -2.498554   -0.549106   -1.969427
      4          1           0       -1.702552    1.033177   -2.013348
      5          1           0       -3.367743    0.891913   -1.417490
      6          6           0       -1.722147    1.537473    0.710087
      7          1           0       -1.023823    2.189962    0.180577
      8          1           0       -1.363985    1.410553    1.736060
      9          1           0       -2.689515    2.045894    0.755836
     10          6           0       -2.843894   -0.727704    0.767055
     11          1           0       -3.836415   -0.269540    0.801354
     12          1           0       -2.507408   -0.886658    1.795120
     13          1           0       -2.925173   -1.705204    0.290542
     14          6           0       -0.509391   -0.516458   -0.107121
     15          8           0       -0.368144   -1.731497   -0.011263
     16          7           0        0.544524    0.280805   -0.489629
     17          6           0        1.907294    0.112877    0.007221
     18          6           0        2.597216    1.480643   -0.159190
     19          1           0        2.532636    1.818335   -1.195293
     20          1           0        3.650539    1.405348    0.123018
     21          1           0        2.125876    2.233640    0.477323
     22          6           0        2.588594   -0.922298   -0.927720
     23          1           0        2.513454   -0.604231   -1.969356
     24          1           0        2.111526   -1.895698   -0.820373
     25          1           0        3.646313   -1.001488   -0.659754
     26          6           0        1.985043   -0.354455    1.471901
     27          1           0        1.498902    0.368475    2.133418
     28          1           0        3.030010   -0.439839    1.781117
     29          1           0        1.506792   -1.325230    1.600438
 ---------------------------------------------------------------------

 SCF Done:  E(UHF) =  -481.147691462     A.U. after    2 cycles

 The electronic state is 2-A.
 Alpha  occ. eigenvalues --  -20.53870 -15.53979 -11.34773 -11.28342 -11.25788
 Alpha  occ. eigenvalues --  -11.23328 -11.23084 -11.22992 -11.22789 -11.22689
 Alpha  occ. eigenvalues --  -11.22289  -1.48103  -1.25701  -1.11164  -1.07002
 Alpha  occ. eigenvalues --   -0.94645  -0.94592  -0.94241  -0.93723  -0.87416
 Alpha  occ. eigenvalues --   -0.79440  -0.71255  -0.68697  -0.67146  -0.65409
 Alpha  occ. eigenvalues --   -0.62634  -0.61451  -0.60664  -0.59374  -0.58081
 Alpha  occ. eigenvalues --   -0.56055  -0.55532  -0.54871  -0.53841  -0.53530
 Alpha  occ. eigenvalues --   -0.52708  -0.52587  -0.51113  -0.50261  -0.48488
 Alpha  occ. eigenvalues --   -0.48096  -0.46741  -0.45233  -0.42044
 Alpha virt. eigenvalues --    0.03507   0.03616   0.03810   0.04148   0.04593
 Alpha virt. eigenvalues --    0.04856   0.04944   0.05641   0.05837   0.07722
 Alpha virt. eigenvalues --    0.07963   0.08297   0.08728   0.08839   0.09997

  Beta  occ. eigenvalues --  -20.52743 -15.50712 -11.35400 -11.28597 -11.25725
  Beta  occ. eigenvalues --  -11.23319 -11.23109 -11.22925 -11.22661 -11.22566
  Beta  occ. eigenvalues --  -11.22297  -1.45492  -1.18044  -1.11015  -1.04589
  Beta  occ. eigenvalues --   -0.94485  -0.94410  -0.93775  -0.93597  -0.86600
  Beta  occ. eigenvalues --   -0.78843  -0.69335  -0.67129  -0.65674  -0.63006
  Beta  occ. eigenvalues --   -0.61431  -0.61093  -0.60458  -0.57526  -0.56423
  Beta  occ. eigenvalues --   -0.55423  -0.55249  -0.54327  -0.53275  -0.52751
  Beta  occ. eigenvalues --   -0.52549  -0.51608  -0.49481  -0.48487  -0.48305
  Beta  occ. eigenvalues --   -0.47398  -0.42780  -0.40501
  Beta virt. eigenvalues --    0.03301   0.03621   0.03777   0.03965   0.04593
  Beta virt. eigenvalues --    0.04796   0.04895   0.05411   0.05637   0.05852
  Beta virt. eigenvalues --    0.07726   0.07975   0.08305   0.08741   0.08842

 Mulliken charges and spin densities:
               1          2
     1  C   -1.757946   0.048782
     2  C    0.035449  -0.000543
     3  H    0.218213   0.003041
     4  H    0.260997  -0.001225
     5  H    0.170250  -0.000335
     6  C   -0.084756  -0.002160
     7  H    0.236091   0.005635
     8  H    0.208974   0.004922
     9  H    0.115533   0.001101
    10  C    0.213201  -0.002080
    11  H    0.201471   0.001056
    12  H    0.199921   0.000622
    13  H    0.233946  -0.000919
    14  C    0.648969  -0.349855
    15  O   -1.499707   0.268960
    16  N    1.712958   1.107612
    17  C   -3.908291  -0.223021
    18  C    0.283976   0.027536
    19  H    0.234316  -0.004794
    20  H    0.227273  -0.000897
    21  H    0.184462   0.001547
    22  C    0.234688   0.087382
    23  H    0.208529   0.000733
    24  H    0.180091  -0.002943
    25  H    0.226238   0.003204
    26  C    0.354750   0.028936
    27  H    0.248653   0.000278
    28  H    0.171822  -0.001886
    29  H    0.239926  -0.000689
 Sum of Mulliken charges =  -0.00000   1.00000

 Dipole moment (field-independent basis, Debye):
    X=              0.3266    Y=              1.8536    Z=              0.6633  Tot=              1.9957
                          Isotropic Fermi Contact Couplings
        Atom                 a.u.       MegaHertz       Gauss      10(-4) cm-1
     1  C(13)              0.00945      10.62048       3.78965       3.54261
     2  C(13)             -0.00624      -7.01438      -2.50291      -2.33975
     3  H(1)               0.00004       0.18368       0.06554       0.06127
     4  H(1)               0.00023       1.03314       0.36865       0.34462
     5  H(1)              -0.00016      -0.72893      -0.26010      -0.24314
     6  C(13)              0.00156       1.75894       0.62763       0.58672
     7  H(1)               0.00063       2.81368       1.00399       0.93854
     8  H(1)              -0.00003      -0.11237      -0.04010      -0.03748

 Normal termination of Gaussian 16 at Tue Apr  8 23:16:59 2025.
