 Gaussian 16, Revision C.01,

 ----------------------------------------------------------------------
 #t hf aug-cc-pvdz symm=none int=(grid=ultrafine) guess=(read,tcheck) s
 table=(opt,rrhf)
 ----------------------------------------------------------------------
 -----
 title
 -----
 Symbolic Z-matrix:
 Charge =  0 Multiplicity = 1

 SCF Done:  E(RHF) =  -746.930261696     A.U. after   13 cycles
 Normal termination of Gaussian 16 at Wed Apr  9 00:09:47 2025.
 Gaussian 16:  ES64L-G16RevC.01  3-Jul-2019

 ----------------------------------------------------------------------
 #t hf aug-cc-pvdz iop(5/13=1,5/36=2,99/5=2) pseudo=read geom=check gue
 ss=(read,tcheck) scf=(maxcycle=1)
 ----------------------------------------------------------------------
 -----
 title
 -----
 Structure from the checkpoint file:  "BDE49_nonexpt_2277_mol1.chk"
 Charge =  0 Multiplicity = 1

                         Standard orientation:
 ---------------------------------------------------------------------
 Center     Atomic      Atomic             Coordinates (Angstroms)
 Number     Number       Type             X           Y           Z
 ---------------------------------------------------------------------
      1         14           0        0.973666    1.391177   -0.068556
      2          6           0       -0.479534    0.152291   -0.010156
      3          6           0       -1.799293    0.931276   -0.039441
      4          8           0       -2.886953    0.004754    0.038217
      5          1           0       -1.834888    1.633216    0.806225
      6          1           0       -1.864908    1.520197   -0.966280
      7          1           0       -3.709886    0.501603    0.018756
      8          6           0       -0.382277   -0.663946    1.304202
      9          8           0        2.403757    0.549223   -0.117219
     10          1           0        2.440772   -0.095767    0.605781
     11          6           0       -0.430766   -0.797967   -1.235713
     12          8           0        0.896244   -1.292710    1.476984
     13          1           0       -1.180925   -1.412956    1.333713
     14          1           0       -0.515681   -0.006856    2.168004
     15          1           0        0.986278   -1.890358    0.718771
     16          8           0        0.719906   -1.655287   -1.259206
     17          1           0       -0.491097   -0.217721   -2.166537
     18          1           0       -1.292642   -1.465871   -1.208418
     19          1           0        1.503790   -1.100610   -1.370411
     20          1           0        0.886197    2.290185    1.109637
     21          1           0        0.929248    2.190703   -1.313019
 ---------------------------------------------------------------------

 SCF Done:  E(RHF) =  -747.432722485     A.U. after    2 cycles

 The electronic state is 1-A.
 Alpha  occ. eigenvalues --  -69.55800 -20.56457 -20.55811 -20.54874 -20.54744
 Alpha  occ. eigenvalues --  -11.30841 -11.29513 -11.29137 -11.23962  -6.22527
 Alpha  occ. eigenvalues --   -3.97989  -3.97857  -3.97825  -1.46599  -1.46047
 Alpha  occ. eigenvalues --   -1.44274  -1.43168  -1.08333  -0.92858  -0.92531
 Alpha  occ. eigenvalues --   -0.80980  -0.75987  -0.72047  -0.71108  -0.68466
 Alpha  occ. eigenvalues --   -0.65684  -0.64378  -0.62788  -0.59885  -0.59106
 Alpha  occ. eigenvalues --   -0.57508  -0.55342  -0.55076  -0.53985  -0.52663
 Alpha  occ. eigenvalues --   -0.50037  -0.47835  -0.46228  -0.45796  -0.42631
 Alpha  occ. eigenvalues --   -0.41274
 Alpha virt. eigenvalues --    0.02574   0.03734   0.04040   0.04422   0.05883
 Alpha virt. eigenvalues --    0.06140   0.06409   0.06541   0.06739   0.09327
 Alpha virt. eigenvalues --    0.09493   0.09935   0.10063   0.10280   0.11749

 Mulliken charges:
               1
     1  Si   0.952510
     2  C   -1.553827
     3  C    1.321145
     4  O   -1.167751
     5  H    0.143091
     6  H    0.159668
     7  H    0.283793
     8  C    0.982567
     9  O   -1.448995
    10  H    0.527614
    11  C    0.942535
    12  O   -1.322782
    13  H    0.218786
    14  H    0.055523
    15  H    0.476893
    16  O   -1.340333
    17  H    0.102154
    18  H    0.207878
    19  H    0.411430
    20  H   -0.003063
    21  H    0.051164
 Sum of Mulliken charges =  -0.00000

 Dipole moment (field-independent basis, Debye):
    X=             -2.6363    Y=              2.1449    Z=             -0.3599  Tot=              3.4176

 Test job not archived.
 1\1\GINC-SE128\SP\RHF\Aug-CC-pVDZ\C4H12O4Si1\OHZDE\09-Apr-2025\0\\#t h
 f aug-cc-pvdz iop(5/13=1,5/36=2,99/5=2) pseudo=read geom=check guess=(
 read,tcheck) scf=(maxcycle=1)\\title\\0,1\Si,0,0.973666,1.391177,-0.06
 8556\C,0,-0.479534,0.152291,-0.010156\C,0,-1.799293,0.931276,-0.039441
 \O,0,-2.886953,0.004754,0.038217\H,0,-1.834888,1.633216,0.806225\H,0,-
 1.864908,1.520197,-0.96628\H,0,-3.709886,0.501603,0.018756\C,0,-0.3822
 77,-0.663946,1.304202\O,0,2.403757,0.549223,-0.117219\H,0,2.440772,-0.
 095767,0.605781\C,0,-0.430766,-0.797967,-1.235713\O,0,0.896244,-1.2927

 Normal termination of Gaussian 16 at Wed Apr  9 00:10:00 2025.
