 Gaussian 16, Revision C.01,

 ----------------------------------------------------------------------
 #t hf aug-cc-pvdz symm=none int=(grid=ultrafine) guess=(read,tcheck) s
 table=(opt,rrhf)
 ----------------------------------------------------------------------
 -----
 title
 -----
 Symbolic Z-matrix:
 Charge =  0 Multiplicity = 1

 SCF Done:  E(RHF) =  -1679.97600915     A.U. after   15 cycles
 Normal termination of Gaussian 16 at Wed Apr  9 00:15:02 2025.
 Gaussian 16:  ES64L-G16RevC.01  3-Jul-2019

 ----------------------------------------------------------------------
 #t hf aug-cc-pvdz iop(5/13=1,5/36=2,99/5=2) pseudo=read geom=check gue
 ss=(read,tcheck) scf=(maxcycle=1)
 ----------------------------------------------------------------------
 -----
 title
 -----
 Structure from the checkpoint file:  "BDE49_nonexpt_2437_mol1.chk"
 Charge =  0 Multiplicity = 1

                         Standard orientation:
 ---------------------------------------------------------------------
 Center     Atomic      Atomic             Coordinates (Angstroms)
 Number     Number       Type             X           Y           Z
 ---------------------------------------------------------------------
      1         14           0        1.112204    1.823350   -0.392495
      2         14           0       -1.111837    1.823418    0.392102
      3          6           0       -2.017916    0.302004   -0.375175
      4          1           0       -1.821709    3.021722   -0.111230
      5          1           0       -1.169516    1.775692    1.869423
      6          8           0       -2.088912    0.169382   -1.575300
      7         16           0       -2.718959   -0.865769    0.803283
      8          6           0       -3.438230   -2.104519   -0.323839
      9          1           0       -2.982772   -3.074578   -0.130760
     10          1           0       -3.218865   -1.778017   -1.341668
     11          1           0       -4.514623   -2.154742   -0.167097
     12          6           0        2.018415    0.302181    0.375096
     13          1           0        1.822078    3.021839    0.110383
     14          1           0        1.169582    1.775206   -1.869815
     15          8           0        2.090376    0.170429    1.575261
     16         16           0        2.717960   -0.866755   -0.803095
     17          6           0        3.437708   -2.104954    0.324322
     18          1           0        2.980245   -3.074591    0.133868
     19          1           0        3.221189   -1.776500    1.342135
     20          1           0        4.513647   -2.157151    0.165141
 ---------------------------------------------------------------------

 SCF Done:  E(RHF) =  -1680.46578414     A.U. after    2 cycles

 The electronic state is 1-A.
 Alpha  occ. eigenvalues --  -93.96786 -93.96786 -69.55356 -69.55356 -20.56129
 Alpha  occ. eigenvalues --  -20.56128 -11.36818 -11.36816 -11.27161 -11.27161
 Alpha  occ. eigenvalues --   -8.24997  -8.24997  -6.22803  -6.22803  -6.22624
 Alpha  occ. eigenvalues --   -6.22624  -6.22558  -6.22547  -6.22458  -6.22458
 Alpha  occ. eigenvalues --   -3.97921  -3.97900  -3.97892  -3.97867  -3.97863
 Alpha  occ. eigenvalues --   -3.97824  -1.49433  -1.49422  -1.08778  -1.08755
 Alpha  occ. eigenvalues --   -0.93692  -0.93355  -0.83355  -0.79556  -0.72984
 Alpha  occ. eigenvalues --   -0.70181  -0.65490  -0.65425  -0.62165  -0.61062
 Alpha  occ. eigenvalues --   -0.60996  -0.60380  -0.56935  -0.56931  -0.56527
 Alpha  occ. eigenvalues --   -0.55716  -0.51409  -0.50206  -0.48126  -0.47738
 Alpha  occ. eigenvalues --   -0.43929  -0.39041  -0.38849  -0.37942  -0.37870
 Alpha virt. eigenvalues --    0.03428   0.03748   0.03875   0.04378   0.04948
 Alpha virt. eigenvalues --    0.05330   0.06369   0.06559   0.06667   0.07183
 Alpha virt. eigenvalues --    0.07420   0.08084   0.08423   0.08814   0.09024

 Mulliken charges:
               1
     1  Si   0.644305
     2  Si   0.644624
     3  C    0.410417
     4  H   -0.104544
     5  H   -0.100538
     6  O   -1.136125
     7  S    0.416336
     8  C   -0.727790
     9  H    0.227676
    10  H    0.149579
    11  H    0.220418
    12  C    0.410619
    13  H   -0.104523
    14  H   -0.100407
    15  O   -1.136328
    16  S    0.416378
    17  C   -0.727793
    18  H    0.227655
    19  H    0.149619
    20  H    0.220419
 Sum of Mulliken charges =  -0.00000

 Dipole moment (field-independent basis, Debye):
    X=             -0.0008    Y=             -0.8115    Z=             -0.0000  Tot=              0.8115

 Test job not archived.
 1\1\GINC-SE096\SP\RHF\Aug-CC-pVDZ\C4H10O2S2Si2\OHZDE\09-Apr-2025\0\\#t
  hf aug-cc-pvdz iop(5/13=1,5/36=2,99/5=2) pseudo=read geom=check guess
 =(read,tcheck) scf=(maxcycle=1)\\title\\0,1\Si,0,-1.112204,1.82335,0.3
 92495\Si,0,1.111837,1.823418,-0.392102\C,0,2.017916,0.302004,0.375175\
 H,0,1.821709,3.021722,0.11123\H,0,1.169516,1.775692,-1.869423\O,0,2.08
 8912,0.169382,1.5753\S,0,2.718959,-0.865769,-0.803283\C,0,3.43823,-2.1
 04519,0.323839\H,0,2.982772,-3.074578,0.13076\H,0,3.218865,-1.778017,1
 .341668\H,0,4.514623,-2.154742,0.167097\C,0,-2.018415,0.302181,-0.3750

 Normal termination of Gaussian 16 at Wed Apr  9 00:15:15 2025.
