 Gaussian 16, Revision C.01,

 ----------------------------------------------------------------------
 #t hf aug-cc-pvdz symm=none int=(grid=ultrafine) guess=(read,tcheck) s
 table=(opt,rrhf)
 ----------------------------------------------------------------------
 -----
 title
 -----
 Symbolic Z-matrix:
 Charge =  0 Multiplicity = 1

 SCF Done:  E(RHF) =  -748.014779758     A.U. after   12 cycles
 Normal termination of Gaussian 16 at Wed Apr  9 00:11:37 2025.
 Gaussian 16:  ES64L-G16RevC.01  3-Jul-2019

 ----------------------------------------------------------------------
 #t hf aug-cc-pvdz iop(5/13=1,5/36=2,99/5=2) pseudo=read geom=check gue
 ss=(read,tcheck) scf=(maxcycle=1)
 ----------------------------------------------------------------------
 -----
 title
 -----
 Structure from the checkpoint file:  "BDE49_nonexpt_2397_mol1.chk"
 Charge =  0 Multiplicity = 1

                         Standard orientation:
 ---------------------------------------------------------------------
 Center     Atomic      Atomic             Coordinates (Angstroms)
 Number     Number       Type             X           Y           Z
 ---------------------------------------------------------------------
      1         14           0        2.101830   -0.735662   -0.000009
      2         14           0        0.524203    1.018655    0.000159
      3          1           0        3.469151   -0.160615    0.000712
      4          1           0        1.931374   -1.577681   -1.207603
      5          1           0        1.930519   -1.578671    1.206774
      6          7           0       -1.075668    0.389670   -0.000659
      7          1           0        0.681802    1.868262   -1.201834
      8          1           0        0.681044    1.867359    1.202900
      9          6           0       -2.120223   -0.191682   -0.000095
     10          8           0       -3.150917   -0.744768    0.000266
 ---------------------------------------------------------------------

 SCF Done:  E(RHF) =  -748.242950658     A.U. after    2 cycles

 The electronic state is 1-A.
 Alpha  occ. eigenvalues --  -69.57808 -69.53886 -20.59571 -15.52194 -11.41729
 Alpha  occ. eigenvalues --   -6.24491  -6.21119  -3.99948  -3.99794  -3.99789
 Alpha  occ. eigenvalues --   -3.96469  -3.96466  -3.96465  -1.54266  -1.26788
 Alpha  occ. eigenvalues --   -0.88829  -0.76178  -0.72901  -0.66449  -0.66403
 Alpha  occ. eigenvalues --   -0.64153  -0.53840  -0.50920  -0.49954  -0.49760
 Alpha  occ. eigenvalues --   -0.45783  -0.41323
 Alpha virt. eigenvalues --    0.03547   0.03627   0.04423   0.05547   0.06365
 Alpha virt. eigenvalues --    0.07195   0.07352   0.08084   0.08497   0.09530
 Alpha virt. eigenvalues --    0.09828   0.10327   0.12398   0.12512   0.12677

 Mulliken charges:
               1
     1  Si   0.353977
     2  Si   0.568838
     3  H   -0.172934
     4  H   -0.140174
     5  H   -0.140193
     6  N    0.616507
     7  H   -0.104792
     8  H   -0.104988
     9  C   -0.057477
    10  O   -0.818764
 Sum of Mulliken charges =   0.00000

 Dipole moment (field-independent basis, Debye):
    X=              2.1380    Y=              0.6394    Z=              0.0007  Tot=              2.2315

 Test job not archived.
 1\1\GINC-SE074\SP\RHF\Aug-CC-pVDZ\C1H5N1O1Si2\OHZDE\09-Apr-2025\0\\#t
 hf aug-cc-pvdz iop(5/13=1,5/36=2,99/5=2) pseudo=read geom=check guess=
 (read,tcheck) scf=(maxcycle=1)\\title\\0,1\Si,0,2.10183,-0.735662,-0.0
 00009\Si,0,0.524203,1.018655,0.000159\H,0,3.469151,-0.160615,0.000712\
 H,0,1.931374,-1.577681,-1.207603\H,0,1.930519,-1.578671,1.206774\N,0,-
 1.075668,0.38967,-0.000659\H,0,0.681802,1.868262,-1.201834\H,0,0.68104
 4,1.867359,1.2029\C,0,-2.120223,-0.191682,-0.000095\O,0,-3.150917,-0.7
 44768,0.000266\\Version=ES64L-G16RevC.01\State=1-A\HF=-748.2429507\RMS

 Normal termination of Gaussian 16 at Wed Apr  9 00:11:40 2025.
