 Gaussian 16, Revision C.01,

 ----------------------------------------------------------------------
 #t hf aug-cc-pvdz symm=none int=(grid=ultrafine) guess=(read,tcheck) s
 table=opt
 ----------------------------------------------------------------------
 -----
 title
 -----
 Symbolic Z-matrix:
 Charge =  0 Multiplicity = 2

 SCF Done:  E(UHF) =  -1223.12555548     A.U. after   20 cycles
 Normal termination of Gaussian 16 at Tue Apr  8 22:50:26 2025.
 Gaussian 16:  ES64L-G16RevC.01  3-Jul-2019

 ----------------------------------------------------------------------
 #t hf aug-cc-pvdz iop(5/13=1,5/36=2,99/5=2) pseudo=read geom=check gue
 ss=(read,tcheck) scf=(maxcycle=1)
 ----------------------------------------------------------------------
 -----
 title
 -----
 Structure from the checkpoint file:  "BDE49_expt_1719_mol2.chk"
 Charge =  0 Multiplicity = 2

                         Standard orientation:
 ---------------------------------------------------------------------
 Center     Atomic      Atomic             Coordinates (Angstroms)
 Number     Number       Type             X           Y           Z
 ---------------------------------------------------------------------
      1          6           0        0.207460   -0.677829    0.000141
      2          8           0        0.236485   -1.887507    0.000011
      3          6           0       -1.044678    0.091848    0.000039
      4          8           0        1.286155    0.123124    0.000100
      5         17           0       -2.526990   -0.747610   -0.000147
      6         17           0       -1.086971    1.800434    0.000019
      7          6           0        2.569938   -0.552643    0.000036
      8          6           0        3.642722    0.515675   -0.000004
      9          1           0        2.624673   -1.194278   -0.882472
     10          1           0        2.624751   -1.194290    0.882531
     11          1           0        3.562199    1.148715   -0.886036
     12          1           0        4.629665    0.045908   -0.000051
     13          1           0        3.562278    1.148702    0.886044
 ---------------------------------------------------------------------

 SCF Done:  E(UHF) =  -1223.57933230     A.U. after    2 cycles

 The electronic state is 2-A.
 Alpha  occ. eigenvalues -- -105.60930-105.60496 -20.60335 -20.56468 -11.41329
 Alpha  occ. eigenvalues --  -11.39472 -11.31108 -11.24476 -10.65724 -10.65311
 Alpha  occ. eigenvalues --   -7.82541  -7.82435  -7.82241  -7.82130  -7.82019
 Alpha  occ. eigenvalues --   -7.81822  -1.56218  -1.47954  -1.21568  -1.08889
 Alpha  occ. eigenvalues --   -1.05952  -0.96561  -0.86538  -0.79243  -0.72725
 Alpha  occ. eigenvalues --   -0.70856  -0.70567  -0.64761  -0.63279  -0.59647
 Alpha  occ. eigenvalues --   -0.58579  -0.56628  -0.53826  -0.53217  -0.51897
 Alpha  occ. eigenvalues --   -0.51161  -0.48677  -0.48163  -0.46435  -0.38048
 Alpha virt. eigenvalues --    0.03460   0.04479   0.04500   0.05416   0.07341
 Alpha virt. eigenvalues --    0.07596   0.08648   0.09997   0.11631   0.11810
 Alpha virt. eigenvalues --    0.12221   0.13512   0.15122   0.15591   0.15629

  Beta  occ. eigenvalues -- -105.60900-105.60465 -20.60362 -20.55395 -11.41936
  Beta  occ. eigenvalues --  -11.36812 -11.31116 -11.24475 -10.65690 -10.65276
  Beta  occ. eigenvalues --   -7.82821  -7.82405  -7.82220  -7.82030  -7.81801
  Beta  occ. eigenvalues --   -7.81614  -1.55789  -1.46181  -1.18055  -1.08532
  Beta  occ. eigenvalues --   -1.05896  -0.94550  -0.85446  -0.78495  -0.71142
  Beta  occ. eigenvalues --   -0.69898  -0.69638  -0.62312  -0.60437  -0.59302
  Beta  occ. eigenvalues --   -0.56603  -0.54367  -0.53139  -0.51711  -0.51676
  Beta  occ. eigenvalues --   -0.48595  -0.48340  -0.45625  -0.44970
  Beta virt. eigenvalues --    0.03196   0.03461   0.04497   0.04513   0.05448
  Beta virt. eigenvalues --    0.07511   0.07607   0.08771   0.10310   0.11662
  Beta virt. eigenvalues --    0.12066   0.12543   0.13523   0.15300   0.15662

 Mulliken charges and spin densities:
               1          2
     1  C    2.177548  -0.397196
     2  O   -1.151465   0.261401
     3  C   -0.349667   1.110161
     4  O   -1.159572   0.011221
     5  Cl  -0.060788   0.010658
     6  Cl  -0.079303   0.004349
     7  C    0.331604  -0.001410
     8  C   -0.511299   0.000003
     9  H    0.136959   0.000460
    10  H    0.136977   0.000461
    11  H    0.180438  -0.000050
    12  H    0.168131  -0.000008
    13  H    0.180439  -0.000050
 Sum of Mulliken charges =  -0.00000   1.00000

 Dipole moment (field-independent basis, Debye):
    X=              2.1096    Y=              1.2235    Z=              0.0001  Tot=              2.4388
                          Isotropic Fermi Contact Couplings
        Atom                 a.u.       MegaHertz       Gauss      10(-4) cm-1
     1  C(13)             -0.08538     -95.98729     -34.25065     -32.01791
     2  O(17)              0.08054     -48.82196     -17.42089     -16.28525
     3  C(13)              0.25580     287.56985     102.61207      95.92298
     4  O(17)             -0.01258       7.62620       2.72122       2.54383
     5  Cl(35)             0.02891      12.67569       4.52300       4.22816
     6  Cl(35)             0.03055      13.39592       4.78000       4.46840
     7  C(13)             -0.00149      -1.67708      -0.59842      -0.55941
     8  C(13)              0.00025       0.27660       0.09870       0.09226

 Normal termination of Gaussian 16 at Tue Apr  8 22:50:32 2025.
