 Gaussian 16, Revision C.01,

 ----------------------------------------------------------------------
 #t hf aug-cc-pvdz symm=none int=(grid=ultrafine) guess=(read,tcheck) s
 table=(opt,rrhf)
 ----------------------------------------------------------------------
 -----
 title
 -----
 Symbolic Z-matrix:
 Charge =  0 Multiplicity = 1

 SCF Done:  E(RHF) =  -1347.72865416     A.U. after   15 cycles
 Normal termination of Gaussian 16 at Wed Apr  9 00:50:18 2025.
 Gaussian 16:  ES64L-G16RevC.01  3-Jul-2019

 ----------------------------------------------------------------------
 #t hf aug-cc-pvdz iop(5/13=1,5/36=2,99/5=2) pseudo=read geom=check gue
 ss=(read,tcheck) scf=(maxcycle=1)
 ----------------------------------------------------------------------
 -----
 title
 -----
 Structure from the checkpoint file:  "BDE49_nonexpt_872_mol1.chk"
 Charge =  0 Multiplicity = 1

                         Standard orientation:
 ---------------------------------------------------------------------
 Center     Atomic      Atomic             Coordinates (Angstroms)
 Number     Number       Type             X           Y           Z
 ---------------------------------------------------------------------
      1          9           0       -0.048149    2.350313    0.000071
      2          9           0       -0.048140   -2.350307   -0.000072
      3          9           0       -4.111260   -0.000005    0.000000
      4         16           0        2.569016   -0.000078    1.534079
      5         16           0        2.569016    0.000076   -1.534079
      6          6           0        0.035417    0.000003    0.000000
      7          6           0       -0.714033    1.176345    0.000029
      8          6           0       -2.766428   -0.000003    0.000000
      9          6           0       -0.714028   -1.176342   -0.000029
     10          6           0       -2.099773    1.216100    0.000037
     11          1           0       -2.635072    2.155252    0.000058
     12          6           0       -2.099768   -1.216103   -0.000037
     13          1           0       -2.635064   -2.155257   -0.000058
     14          5           0        1.606336    0.000006    0.000000
     15          1           0        1.524779    0.000092   -2.379128
     16          1           0        1.524778   -0.000100    2.379129
 ---------------------------------------------------------------------

 SCF Done:  E(RHF) =  -1348.37054301     A.U. after    2 cycles

 The electronic state is 1-A.
 Alpha  occ. eigenvalues --  -93.96457 -93.96454 -26.50536 -26.50462 -26.50462
 Alpha  occ. eigenvalues --  -11.37882 -11.37880 -11.37768 -11.27698 -11.27677
 Alpha  occ. eigenvalues --  -11.26713  -8.24787  -8.24734  -7.68018  -6.22591
 Alpha  occ. eigenvalues --   -6.22586  -6.22450  -6.22446  -6.22289  -6.22286
 Alpha  occ. eigenvalues --   -1.63628  -1.63444  -1.63384  -1.20097  -1.08060
 Alpha  occ. eigenvalues --   -1.06204  -1.04494  -1.01418  -0.89868  -0.89794
 Alpha  occ. eigenvalues --   -0.79823  -0.78635  -0.73845  -0.72015  -0.71626
 Alpha  occ. eigenvalues --   -0.71229  -0.69508  -0.69431  -0.67740  -0.66003
 Alpha  occ. eigenvalues --   -0.64820  -0.59382  -0.58750  -0.58675  -0.54538
 Alpha  occ. eigenvalues --   -0.54278  -0.49721  -0.47267  -0.44681  -0.38399
 Alpha  occ. eigenvalues --   -0.38073  -0.37296
 Alpha virt. eigenvalues --    0.03055   0.03784   0.04305   0.04539   0.05693
 Alpha virt. eigenvalues --    0.06094   0.07847   0.08016   0.08653   0.08681
 Alpha virt. eigenvalues --    0.09586   0.09628   0.11037   0.11463   0.11708

 Mulliken charges:
               1
     1  F   -1.056139
     2  F   -1.056140
     3  F   -0.977878
     4  S   -0.742282
     5  S   -0.742281
     6  C   -0.080503
     7  C    1.226527
     8  C    1.317334
     9  C    1.226541
    10  C   -0.122221
    11  H   -0.154860
    12  C   -0.122224
    13  H   -0.154859
    14  B    0.995808
    15  H    0.221587
    16  H    0.221588
 Sum of Mulliken charges =  -0.00000

 Dipole moment (field-independent basis, Debye):
    X=             -2.0978    Y=             -0.0000    Z=              0.0000  Tot=              2.0978

 Test job not archived.
 1\1\GINC-SE132\SP\RHF\Aug-CC-pVDZ\C6H4B1F3S2\OHZDE\09-Apr-2025\0\\#t h
 f aug-cc-pvdz iop(5/13=1,5/36=2,99/5=2) pseudo=read geom=check guess=(
 read,tcheck) scf=(maxcycle=1)\\title\\0,1\F,0,-0.048149,2.350313,0.000
 071\F,0,-0.04814,-2.350307,-0.000072\F,0,-4.11126,-0.000006,0.\S,0,2.5
 69016,-0.000077,1.534079\S,0,2.569016,0.000077,-1.534079\C,0,0.035417,
 0.000003,0.\C,0,-0.714033,1.176345,0.000029\C,0,-2.766428,-0.000003,0.
 \C,0,-0.714028,-1.176342,-0.000029\C,0,-2.099773,1.2161,0.000037\H,0,-
 2.635072,2.155252,0.000058\C,0,-2.099768,-1.216103,-0.000037\H,0,-2.63

 Normal termination of Gaussian 16 at Wed Apr  9 00:50:29 2025.
