 Gaussian 16, Revision C.01,

 ----------------------------------------------------------------------
 #t hf aug-cc-pvdz symm=none int=(grid=ultrafine) guess=(read,tcheck) s
 table=(opt,rrhf)
 ----------------------------------------------------------------------
 -----
 title
 -----
 Symbolic Z-matrix:
 Charge =  0 Multiplicity = 1

 SCF Done:  E(RHF) =  -136.601113733     A.U. after   10 cycles
 Normal termination of Gaussian 16 at Wed Apr  9 00:38:18 2025.
 Gaussian 16:  ES64L-G16RevC.01  3-Jul-2019

 ----------------------------------------------------------------------
 #t hf aug-cc-pvdz iop(5/13=1,5/36=2,99/5=2) pseudo=read geom=check gue
 ss=(read,tcheck) scf=(maxcycle=1)
 ----------------------------------------------------------------------
 -----
 title
 -----
 Structure from the checkpoint file:  "BDE49_nonexpt_588_mol1.chk"
 Charge =  0 Multiplicity = 1

                         Standard orientation:
 ---------------------------------------------------------------------
 Center     Atomic      Atomic             Coordinates (Angstroms)
 Number     Number       Type             X           Y           Z
 ---------------------------------------------------------------------
      1          7           0       -1.242929   -0.175868    0.000006
      2          5           0        0.000000    0.497245   -0.000000
      3          7           0        1.242929   -0.175868   -0.000006
      4          1           0        1.345911   -1.178262   -0.000008
      5          1           0        2.117339    0.319650   -0.000010
      6          1           0        0.000000    1.693152    0.000002
      7          1           0       -1.345911   -1.178262    0.000007
      8          1           0       -2.117339    0.319650    0.000014
 ---------------------------------------------------------------------

 SCF Done:  E(RHF) =  -136.746389565     A.U. after    2 cycles

 The electronic state is 1-A.
 Alpha  occ. eigenvalues --  -15.47273 -15.47247  -7.57822  -1.16365  -1.12446
 Alpha  occ. eigenvalues --   -0.75157  -0.71637  -0.69026  -0.63072  -0.49789
 Alpha  occ. eigenvalues --   -0.49611  -0.42230
 Alpha virt. eigenvalues --    0.03413   0.05022   0.05140   0.06369   0.06574
 Alpha virt. eigenvalues --    0.07053   0.09955   0.10120   0.13181   0.17186
 Alpha virt. eigenvalues --    0.17927   0.18447   0.18604   0.20811   0.21490

 Mulliken charges:
               1
     1  N    0.115153
     2  B   -0.375649
     3  N    0.115153
     4  H    0.001219
     5  H   -0.028764
     6  H    0.200431
     7  H    0.001219
     8  H   -0.028764
 Sum of Mulliken charges =  -0.00000

 Dipole moment (field-independent basis, Debye):
    X=              0.0000    Y=             -1.1153    Z=              0.0000  Tot=              1.1153

 Test job not archived.
 1\1\GINC-SE106\SP\RHF\Aug-CC-pVDZ\B1H5N2\OHZDE\09-Apr-2025\0\\#t hf au
 g-cc-pvdz iop(5/13=1,5/36=2,99/5=2) pseudo=read geom=check guess=(read
 ,tcheck) scf=(maxcycle=1)\\title\\0,1\N,0,1.242929,-0.175868,-0.000006
 \B,0,0.,0.497245,0.\N,0,-1.242929,-0.175868,0.000006\H,0,-1.345911,-1.
 178262,0.000008\H,0,-2.117339,0.31965,0.00001\H,0,0.,1.693152,-0.00000
 2\H,0,1.345911,-1.178262,-0.000007\H,0,2.117339,0.31965,-0.000014\\Ver
 sion=ES64L-G16RevC.01\State=1-A\HF=-136.7463896\RMSD=1.129e-02\Dipole=
 0.,-0.4388105,-0.0000013\Quadrupole=2.8440732,0.4753422,-3.3194153,0.,

 Normal termination of Gaussian 16 at Wed Apr  9 00:38:20 2025.
