 Gaussian 16, Revision C.01,

 ----------------------------------------------------------------------
 #t hf aug-cc-pvdz symm=none int=(grid=ultrafine) guess=(read,tcheck) s
 table=(opt,rrhf)
 ----------------------------------------------------------------------
 -----
 title
 -----
 Symbolic Z-matrix:
 Charge =  0 Multiplicity = 1

 SCF Done:  E(RHF) =  -463.012604962     A.U. after   12 cycles
 Normal termination of Gaussian 16 at Wed Apr  9 00:34:46 2025.
 Gaussian 16:  ES64L-G16RevC.01  3-Jul-2019

 ----------------------------------------------------------------------
 #t hf aug-cc-pvdz iop(5/13=1,5/36=2,99/5=2) pseudo=read geom=check gue
 ss=(read,tcheck) scf=(maxcycle=1)
 ----------------------------------------------------------------------
 -----
 title
 -----
 Structure from the checkpoint file:  "BDE49_nonexpt_450_mol1.chk"
 Charge =  0 Multiplicity = 1

                         Standard orientation:
 ---------------------------------------------------------------------
 Center     Atomic      Atomic             Coordinates (Angstroms)
 Number     Number       Type             X           Y           Z
 ---------------------------------------------------------------------
      1          1           0        2.561110    0.160342    0.000079
      2          1           0        1.240692    1.777414   -0.000013
      3         16           0        0.152638   -0.571950   -0.000006
      4          5           0        1.461764    0.609783   -0.000034
      5          6           0       -1.403287    0.401634    0.000021
      6          1           0       -1.979094    0.144580   -0.888785
      7          1           0       -1.174936    1.465586    0.000030
      8          1           0       -1.979083    0.144562    0.888828
 ---------------------------------------------------------------------

 SCF Done:  E(RHF) =  -463.146494036     A.U. after    2 cycles

 The electronic state is 1-A.
 Alpha  occ. eigenvalues --  -93.94825 -11.27301  -8.23200  -7.61423  -6.20994
 Alpha  occ. eigenvalues --   -6.20815  -6.20726  -1.06883  -0.90347  -0.69129
 Alpha  occ. eigenvalues --   -0.60256  -0.60195  -0.54678  -0.48801  -0.43419
 Alpha  occ. eigenvalues --   -0.38870
 Alpha virt. eigenvalues --    0.03567   0.04120   0.04356   0.04911   0.06383
 Alpha virt. eigenvalues --    0.07245   0.08090   0.11406   0.11455   0.12378
 Alpha virt. eigenvalues --    0.13420   0.14496   0.14516   0.15939   0.17399

 Mulliken charges:
               1
     1  H    0.235138
     2  H    0.165796
     3  S   -0.013552
     4  B   -0.092700
     5  C   -0.728269
     6  H    0.193549
     7  H    0.046493
     8  H    0.193546
 Sum of Mulliken charges =  -0.00000

 Dipole moment (field-independent basis, Debye):
    X=             -1.3338    Y=              1.0641    Z=             -0.0000  Tot=              1.7063

 Test job not archived.
 1\1\GINC-SE253\SP\RHF\Aug-CC-pVDZ\C1H5B1S1\OHZDE\09-Apr-2025\0\\#t hf
 aug-cc-pvdz iop(5/13=1,5/36=2,99/5=2) pseudo=read geom=check guess=(re
 ad,tcheck) scf=(maxcycle=1)\\title\\0,1\H,0,2.56111,0.160343,0.000079\
 H,0,1.240691,1.777415,-0.000013\S,0,0.152638,-0.57195,-0.000006\B,0,1.
 461764,0.609784,-0.000034\C,0,-1.403287,0.401634,0.000021\H,0,-1.97909
 4,0.14458,-0.888785\H,0,-1.174936,1.465586,0.00003\H,0,-1.979083,0.144
 562,0.888828\\Version=ES64L-G16RevC.01\State=1-A\HF=-463.146494\RMSD=5
 .826e-03\Dipole=-0.5247517,0.4186504,-0.0000192\Quadrupole=1.192257,-0

 Normal termination of Gaussian 16 at Wed Apr  9 00:34:48 2025.
