 Gaussian 16, Revision C.01,

 ----------------------------------------------------------------------
 #t hf aug-cc-pvdz symm=none int=(grid=ultrafine) guess=(read,tcheck) s
 table=(opt,rrhf)
 ----------------------------------------------------------------------
 -----
 title
 -----
 Symbolic Z-matrix:
 Charge =  0 Multiplicity = 1

 SCF Done:  E(RHF) =  -637.030879609     A.U. after   12 cycles
 Normal termination of Gaussian 16 at Tue Apr  8 22:29:17 2025.
 Gaussian 16:  ES64L-G16RevC.01  3-Jul-2019

 ----------------------------------------------------------------------
 #t hf aug-cc-pvdz iop(5/13=1,5/36=2,99/5=2) pseudo=read geom=check gue
 ss=(read,tcheck) scf=(maxcycle=1)
 ----------------------------------------------------------------------
 -----
 title
 -----
 Structure from the checkpoint file:  "BDE49_expt_1010_mol1.chk"
 Charge =  0 Multiplicity = 1

                         Standard orientation:
 ---------------------------------------------------------------------
 Center     Atomic      Atomic             Coordinates (Angstroms)
 Number     Number       Type             X           Y           Z
 ---------------------------------------------------------------------
      1          6           0        0.417705    0.102187    0.388530
      2          6           0        1.264087   -1.039484   -0.111884
      3         17           0       -1.328053   -0.128867   -0.055286
      4          9           0        0.847222    1.282583   -0.165425
      5          1           0        0.424856    0.217008    1.471291
      6          1           0        1.190288   -1.110732   -1.197757
      7          1           0        0.940474   -1.981506    0.332053
      8          1           0        2.305530   -0.853501    0.163219
 ---------------------------------------------------------------------

 SCF Done:  E(RHF) =  -637.283574148     A.U. after    2 cycles

 The electronic state is 1-A.
 Alpha  occ. eigenvalues -- -105.56759 -26.47741 -11.40280 -11.25975 -10.61618
 Alpha  occ. eigenvalues --   -7.78547  -7.78170  -7.78162  -1.60683  -1.11667
 Alpha  occ. eigenvalues --   -1.01012  -0.86452  -0.73774  -0.69216  -0.68261
 Alpha  occ. eigenvalues --   -0.60279  -0.57864  -0.55448  -0.51827  -0.46916
 Alpha  occ. eigenvalues --   -0.45821
 Alpha virt. eigenvalues --    0.03454   0.04368   0.05258   0.06257   0.09204
 Alpha virt. eigenvalues --    0.10881   0.11918   0.13862   0.14349   0.14714
 Alpha virt. eigenvalues --    0.16137   0.16945   0.18459   0.18763   0.19515

 Mulliken charges:
               1
     1  C    0.411949
     2  C   -0.351774
     3  Cl  -0.120042
     4  F   -0.715909
     5  H    0.181666
     6  H    0.206846
     7  H    0.187797
     8  H    0.199467
 Sum of Mulliken charges =  -0.00000

 Dipole moment (field-independent basis, Debye):
    X=              1.6806    Y=             -1.4916    Z=              1.0321  Tot=              2.4728

 Test job not archived.
 1\1\GINC-SE334\SP\RHF\Aug-CC-pVDZ\C2H4Cl1F1\OHZDE\08-Apr-2025\0\\#t hf
  aug-cc-pvdz iop(5/13=1,5/36=2,99/5=2) pseudo=read geom=check guess=(r
 ead,tcheck) scf=(maxcycle=1)\\title\\0,1\C,0,0.417705,0.102187,0.38853
 \C,0,1.264087,-1.039484,-0.111884\Cl,0,-1.328053,-0.128867,-0.055286\F
 ,0,0.847222,1.282583,-0.165425\H,0,0.424856,0.217008,1.471291\H,0,1.19
 0288,-1.110732,-1.197757\H,0,0.940474,-1.981506,0.332053\H,0,2.30553,-
 0.853501,0.163219\\Version=ES64L-G16RevC.01\State=1-A\HF=-637.2835741\
 RMSD=6.596e-03\Dipole=0.6611805,-0.5868498,0.4060754\Quadrupole=-0.108

 Normal termination of Gaussian 16 at Tue Apr  8 22:29:19 2025.
