 Gaussian 16, Revision C.01,

 ----------------------------------------------------------------------
 #t hf aug-cc-pvdz symm=none int=(grid=ultrafine) guess=(read,tcheck) s
 table=(opt,rrhf)
 ----------------------------------------------------------------------
 -----
 title
 -----
 Symbolic Z-matrix:
 Charge =  0 Multiplicity = 1

 SCF Done:  E(RHF) =  -1515.80529341     A.U. after   11 cycles

 1\1\GINC-SE029\Stability\RHF\Aug-CC-pVDZ\C1Cl3F1\OHZDE\08-Apr-2025\0\\
 #t hf aug-cc-pvdz symm=none int=(grid=ultrafine) guess=(read,tcheck) s
 table=(opt,rrhf)\\title\\0,1\C,0,-0.000006,-0.000018,0.252624\Cl,0,1.4
 37293,-0.893438,-0.310628\F,0,0.000007,0.000005,1.591811\Cl,0,-1.49241
 5,-0.79797,-0.310644\Cl,0,0.05512,1.691411,-0.310614\\Version=ES64L-G1
 6RevC.01\HF=-1515.8052934\RMSD=8.862e-09\Dipole=-0.0000147,-0.0000143,
 -0.1898164\Quadrupole=0.6603495,0.660086,-1.3204355,0.0000254,0.000014
 3,-0.0000015\PG=Unknown\\@

 Normal termination of Gaussian 16 at Tue Apr  8 22:44:27 2025.
 Gaussian 16:  ES64L-G16RevC.01  3-Jul-2019

 ----------------------------------------------------------------------
 #t hf aug-cc-pvdz iop(5/13=1,5/36=2,99/5=2) pseudo=read geom=check gue
 ss=(read,tcheck) scf=(maxcycle=1)
 ----------------------------------------------------------------------
 -----
 title
 -----
 Structure from the checkpoint file:  "BDE49_expt_1503_mol1.chk"
 Charge =  0 Multiplicity = 1

                         Standard orientation:
 ---------------------------------------------------------------------
 Center     Atomic      Atomic             Coordinates (Angstroms)
 Number     Number       Type             X           Y           Z
 ---------------------------------------------------------------------
      1          6           0       -0.000006   -0.000018    0.252624
      2         17           0        1.434883   -0.897303   -0.310628
      3          9           0        0.000007    0.000005    1.591811
      4         17           0       -1.494557   -0.793950   -0.310644
      5         17           0        0.059672    1.691257   -0.310614
 ---------------------------------------------------------------------

 SCF Done:  E(RHF) =  -1516.15608054     A.U. after    2 cycles

 The electronic state is 1-A.
 Alpha  occ. eigenvalues -- -105.61307-105.61307-105.61306 -26.53481 -11.54064
 Alpha  occ. eigenvalues --  -10.66181 -10.66181 -10.66169  -7.83128  -7.83128
 Alpha  occ. eigenvalues --   -7.83114  -7.82669  -7.82669  -7.82669  -7.82667
 Alpha  occ. eigenvalues --   -7.82666  -7.82666  -1.68015  -1.20923  -1.09315
 Alpha  occ. eigenvalues --   -1.09315  -0.88632  -0.75404  -0.75404  -0.74279
 Alpha  occ. eigenvalues --   -0.60905  -0.60905  -0.53310  -0.52159  -0.52159
 Alpha  occ. eigenvalues --   -0.48957  -0.48957  -0.47567
 Alpha virt. eigenvalues --    0.05771   0.08255   0.08255   0.08397   0.11252
 Alpha virt. eigenvalues --    0.12276   0.12276   0.14321   0.14517   0.14517
 Alpha virt. eigenvalues --    0.18374   0.18536   0.18536   0.20712   0.20712

 Mulliken charges:
               1
     1  C    0.016391
     2  Cl   0.171536
     3  F   -0.531007
     4  Cl   0.171541
     5  Cl   0.171538
 Sum of Mulliken charges =  -0.00000

 Dipole moment (field-independent basis, Debye):
    X=             -0.0000    Y=             -0.0000    Z=             -0.3069  Tot=              0.3069

 Test job not archived.
 1\1\GINC-SE029\SP\RHF\Aug-CC-pVDZ\C1Cl3F1\OHZDE\08-Apr-2025\0\\#t hf a
 ug-cc-pvdz iop(5/13=1,5/36=2,99/5=2) pseudo=read geom=check guess=(rea
 d,tcheck) scf=(maxcycle=1)\\title\\0,1\C,0,-0.000006,-0.000018,0.25262
 4\Cl,0,1.437293,-0.893438,-0.310628\F,0,0.000007,0.000005,1.591811\Cl,
 0,-1.492415,-0.79797,-0.310644\Cl,0,0.05512,1.691411,-0.310614\\Versio
 n=ES64L-G16RevC.01\State=1-A\HF=-1516.1560805\RMSD=3.388e-03\Dipole=-0
 .0000136,-0.0000114,-0.1207591\Quadrupole=0.5827607,0.5825062,-1.16526
 69,0.0000255,0.000017,0.0000011\PG=C01 [X(C1Cl3F1)]\\@

 Normal termination of Gaussian 16 at Tue Apr  8 22:44:29 2025.
