 Gaussian 16, Revision C.01,

 ----------------------------------------------------------------------
 #t hf aug-cc-pvdz symm=none int=(grid=ultrafine) guess=(read,tcheck) s
 table=opt
 ----------------------------------------------------------------------
 -----
 title
 -----
 Symbolic Z-matrix:
 Charge =  0 Multiplicity = 2

 SCF Done:  E(UHF) =  -688.210754452     A.U. after   13 cycles

 1\1\GINC-SE105\Stability\UHF\Aug-CC-pVDZ\H3S1Si1\OHZDE\09-Apr-2025\0\\
 #t hf aug-cc-pvdz symm=none int=(grid=ultrafine) guess=(read,tcheck) s
 table=opt\\title\\0,2\S,0,1.149582,-0.006215,0.000121\Si,0,-0.99638,-0
 .002417,0.000044\H,0,-1.547793,-0.629547,1.22107\H,0,-1.348415,1.43905
 4,-0.027752\H,0,-1.547777,-0.676221,-1.195867\\Version=ES64L-G16RevC.0
 1\HF=-688.2107545\S2=0.760438\S2-1=0.\S2A=0.750035\RMSD=6.602e-09\Dipo
 le=-0.4824026,-0.0417179,0.000789\Quadrupole=-0.1661056,1.1628663,-0.9
 967607,-0.0819169,0.0016332,-0.0416395\PG=Unknown\\@

 Normal termination of Gaussian 16 at Wed Apr  9 00:16:33 2025.
 Gaussian 16:  ES64L-G16RevC.01  3-Jul-2019

 ----------------------------------------------------------------------
 #t hf aug-cc-pvdz iop(5/13=1,5/36=2,99/5=2) pseudo=read geom=check gue
 ss=(read,tcheck) scf=(maxcycle=1)
 ----------------------------------------------------------------------
 -----
 title
 -----
 Structure from the checkpoint file:  "BDE49_nonexpt_2534_mol2.chk"
 Charge =  0 Multiplicity = 2

                         Standard orientation:
 ---------------------------------------------------------------------
 Center     Atomic      Atomic             Coordinates (Angstroms)
 Number     Number       Type             X           Y           Z
 ---------------------------------------------------------------------
      1         16           0        1.149582   -0.006215    0.000119
      2         14           0       -0.996380   -0.002417    0.000044
      3          1           0       -1.547793   -0.629815    1.220932
      4          1           0       -1.348415    1.439060   -0.027436
      5          1           0       -1.547777   -0.675958   -1.196015
 ---------------------------------------------------------------------

 SCF Done:  E(UHF) =  -688.301145215     A.U. after    2 cycles

 The electronic state is 2-A.
 Alpha  occ. eigenvalues --  -93.97103 -69.56639  -8.25335  -6.24474  -6.23525
 Alpha  occ. eigenvalues --   -6.22713  -6.22449  -3.98931  -3.98844  -3.98824
 Alpha  occ. eigenvalues --   -1.01557  -0.74078  -0.53696  -0.52015  -0.48121
 Alpha  occ. eigenvalues --   -0.45280  -0.40110
 Alpha virt. eigenvalues --    0.03786   0.04749   0.05571   0.05855   0.08768
 Alpha virt. eigenvalues --    0.08986   0.10623   0.13122   0.14068   0.14154
 Alpha virt. eigenvalues --    0.16135   0.18222   0.19000   0.22475   0.23025

  Beta  occ. eigenvalues --  -93.96239 -69.56684  -8.24346  -6.23591  -6.22206
  Beta  occ. eigenvalues --   -6.21924  -6.20613  -3.99045  -3.98913  -3.98862
  Beta  occ. eigenvalues --   -0.92587  -0.72683  -0.51732  -0.51019  -0.46344
  Beta  occ. eigenvalues --   -0.37934
  Beta virt. eigenvalues --   -0.01950   0.03822   0.04890   0.05819   0.05869
  Beta virt. eigenvalues --    0.08909   0.09007   0.10713   0.14231   0.14249
  Beta virt. eigenvalues --    0.14830   0.16499   0.19171   0.19406   0.23147

 Mulliken charges and spin densities:
               1          2
     1  S   -0.550664   1.081269
     2  Si   1.216681  -0.143013
     3  H   -0.212756   0.005921
     4  H   -0.240507   0.049900
     5  H   -0.212754   0.005923
 Sum of Mulliken charges =  -0.00000   1.00000

 Dipole moment (field-independent basis, Debye):
    X=             -1.2559    Y=             -0.0952    Z=              0.0018  Tot=              1.2595
                          Isotropic Fermi Contact Couplings
        Atom                 a.u.       MegaHertz       Gauss      10(-4) cm-1
     1  S(33)              0.14293      49.09374      17.51787      16.37591
     2  Si(29)            -0.04847      43.07394      15.36985      14.36792
     3  H(1)               0.00204       9.12216       3.25502       3.04283
     4  H(1)               0.01270      56.76173      20.25400      18.93368
     5  H(1)               0.00204       9.12339       3.25545       3.04324
 --------------------------------------------------------
       Center         ----  Spin Dipole Couplings  ----
                      3XX-RR        3YY-RR        3ZZ-RR

 Normal termination of Gaussian 16 at Wed Apr  9 00:16:34 2025.
