 Gaussian 16, Revision C.01,

 ----------------------------------------------------------------------
 #t hf aug-cc-pvdz symm=none int=(grid=ultrafine) guess=(read,tcheck) s
 table=(opt,rrhf)
 ----------------------------------------------------------------------
 -----
 title
 -----
 Symbolic Z-matrix:
 Charge =  0 Multiplicity = 1

 SCF Done:  E(RHF) =  -444.253376105     A.U. after   12 cycles
 Normal termination of Gaussian 16 at Wed Apr  9 00:02:30 2025.
 Gaussian 16:  ES64L-G16RevC.01  3-Jul-2019

 ----------------------------------------------------------------------
 #t hf aug-cc-pvdz iop(5/13=1,5/36=2,99/5=2) pseudo=read geom=check gue
 ss=(read,tcheck) scf=(maxcycle=1)
 ----------------------------------------------------------------------
 -----
 title
 -----
 Structure from the checkpoint file:  "BDE49_nonexpt_2166_mol1.chk"
 Charge =  0 Multiplicity = 1

                         Standard orientation:
 ---------------------------------------------------------------------
 Center     Atomic      Atomic             Coordinates (Angstroms)
 Number     Number       Type             X           Y           Z
 ---------------------------------------------------------------------
      1         14           0        0.762470   -0.510817    0.177607
      2          8           0        1.380547    0.971758   -0.235935
      3          1           0        2.265409    1.204698    0.051630
      4          6           0       -1.010779   -0.541601   -0.414297
      5          6           0       -1.908999    0.543082    0.207307
      6          1           0       -1.527354    1.542637   -0.013591
      7          1           0       -1.958551    0.442461    1.295542
      8          1           0       -2.931595    0.483118   -0.175989
      9          1           0       -1.412966   -1.539929   -0.199748
     10          1           0       -1.003370   -0.449292   -1.506645
     11          1           0        0.828825   -0.708238    1.650784
     12          1           0        1.539318   -1.606970   -0.459064
 ---------------------------------------------------------------------

 SCF Done:  E(RHF) =  -444.454071826     A.U. after    2 cycles

 The electronic state is 1-A.
 Alpha  occ. eigenvalues --  -69.54622 -20.54371 -11.22752 -11.21822  -6.21292
 Alpha  occ. eigenvalues --   -3.96776  -3.96619  -3.96605  -1.42884  -1.02302
 Alpha  occ. eigenvalues --   -0.85319  -0.74446  -0.65159  -0.60174  -0.58791
 Alpha  occ. eigenvalues --   -0.54900  -0.52772  -0.51096  -0.49558  -0.44460
 Alpha  occ. eigenvalues --   -0.43412
 Alpha virt. eigenvalues --    0.03431   0.04068   0.04665   0.04736   0.06572
 Alpha virt. eigenvalues --    0.07085   0.07440   0.07767   0.09795   0.10209
 Alpha virt. eigenvalues --    0.10612   0.13809   0.14166   0.15649   0.16751

 Mulliken charges:
               1
     1  Si   1.805029
     2  O   -1.367345
     3  H    0.418567
     4  C   -0.609311
     5  C   -0.397701
     6  H    0.140698
     7  H    0.134082
     8  H    0.116835
     9  H    0.076371
    10  H    0.112962
    11  H   -0.199870
    12  H   -0.230318
 Sum of Mulliken charges =  -0.00000

 Dipole moment (field-independent basis, Debye):
    X=              0.4450    Y=             -0.2739    Z=              0.3752  Tot=              0.6433

 Test job not archived.
 1\1\GINC-SE338\SP\RHF\Aug-CC-pVDZ\C2H8O1Si1\OHZDE\09-Apr-2025\0\\#t hf
  aug-cc-pvdz iop(5/13=1,5/36=2,99/5=2) pseudo=read geom=check guess=(r
 ead,tcheck) scf=(maxcycle=1)\\title\\0,1\Si,0,0.76247,-0.510817,0.1776
 07\O,0,1.380547,0.971758,-0.235935\H,0,2.265409,1.204698,0.05163\C,0,-
 1.010779,-0.541601,-0.414297\C,0,-1.908999,0.543082,0.207307\H,0,-1.52
 7354,1.542637,-0.013591\H,0,-1.958551,0.442461,1.295542\H,0,-2.931595,
 0.483118,-0.175989\H,0,-1.412966,-1.539929,-0.199748\H,0,-1.00337,-0.4
 49292,-1.506645\H,0,0.828825,-0.708238,1.650784\H,0,1.539318,-1.60697,

 Normal termination of Gaussian 16 at Wed Apr  9 00:02:33 2025.
