 Gaussian 16, Revision C.01,

 ----------------------------------------------------------------------
 #t hf aug-cc-pvdz symm=none int=(grid=ultrafine) guess=(read,tcheck) s
 table=opt
 ----------------------------------------------------------------------
 -----
 title
 -----
 Symbolic Z-matrix:
 Charge =  0 Multiplicity = 2

 SCF Done:  E(UHF) =  -446.796652818     A.U. after   15 cycles
 Normal termination of Gaussian 16 at Tue Apr  8 23:45:46 2025.
 Gaussian 16:  ES64L-G16RevC.01  3-Jul-2019

 ----------------------------------------------------------------------
 #t hf aug-cc-pvdz iop(5/13=1,5/36=2,99/5=2) pseudo=read geom=check gue
 ss=(read,tcheck) scf=(maxcycle=1)
 ----------------------------------------------------------------------
 -----
 title
 -----
 Structure from the checkpoint file:  "BDE49_nonexpt_1744_mol2.chk"
 Charge =  0 Multiplicity = 2

                         Standard orientation:
 ---------------------------------------------------------------------
 Center     Atomic      Atomic             Coordinates (Angstroms)
 Number     Number       Type             X           Y           Z
 ---------------------------------------------------------------------
      1         14           0       -1.364549   -0.659540    0.081344
      2          6           0        0.458334   -0.627067   -0.439743
      3          6           0        1.355316    0.320767    0.385510
      4          1           0        0.510447   -0.355414   -1.501420
      5          1           0        0.846662   -1.650542   -0.372846
      6          6           0       -2.215080    1.014156   -0.133936
      7          1           0       -1.737315    1.780798    0.486730
      8          1           0       -3.266160    0.955280    0.159775
      9          1           0       -2.174110    1.347667   -1.174317
     10          6           0        2.822955    0.292769   -0.057761
     11          1           0        1.291992    0.051828    1.445839
     12          1           0        0.976490    1.346065    0.309125
     13          1           0        3.244446   -0.712130    0.041891
     14          1           0        3.433435    0.972613    0.543948
     15          1           0        2.923514    0.591524   -1.105708
     16          1           0       -1.474859   -1.097877    1.503747
 ---------------------------------------------------------------------

 SCF Done:  E(UHF) =  -447.005673310     A.U. after    2 cycles

 The electronic state is 2-A.
 Alpha  occ. eigenvalues --  -69.52127 -11.23552 -11.22400 -11.21931 -11.21849
 Alpha  occ. eigenvalues --   -6.19240  -3.95176  -3.94284  -3.94272  -1.05908
 Alpha  occ. eigenvalues --   -0.95633  -0.92323  -0.81052  -0.68455  -0.63599
 Alpha  occ. eigenvalues --   -0.58405  -0.56898  -0.56516  -0.54378  -0.53819
 Alpha  occ. eigenvalues --   -0.49034  -0.48194  -0.45743  -0.43227  -0.31295
 Alpha virt. eigenvalues --    0.03660   0.03784   0.03918   0.03961   0.05822
 Alpha virt. eigenvalues --    0.06081   0.06532   0.07059   0.07799   0.08848
 Alpha virt. eigenvalues --    0.09182   0.09691   0.10493   0.11415   0.13774

  Beta  occ. eigenvalues --  -69.51585 -11.23459 -11.22377 -11.21879 -11.21798
  Beta  occ. eigenvalues --   -6.18419  -3.93918  -3.93906  -3.93060  -1.05608
  Beta  occ. eigenvalues --   -0.94953  -0.92074  -0.80751  -0.65055  -0.63457
  Beta  occ. eigenvalues --   -0.58066  -0.56413  -0.55621  -0.54280  -0.53309
  Beta  occ. eigenvalues --   -0.48653  -0.48102  -0.44952  -0.42439
  Beta virt. eigenvalues --    0.03029   0.03720   0.03950   0.03992   0.05592
  Beta virt. eigenvalues --    0.05870   0.06510   0.06617   0.07501   0.08393
  Beta virt. eigenvalues --    0.09045   0.09289   0.09910   0.10761   0.11526

 Mulliken charges and spin densities:
               1          2
     1  Si   1.124756   0.990437
     2  C   -0.602149  -0.001032
     3  C   -0.387334  -0.002433
     4  H    0.147108  -0.003600
     5  H    0.068519   0.000840
     6  C   -0.656267  -0.003000
     7  H    0.055610   0.011460
     8  H   -0.007649  -0.013482
     9  H    0.091427  -0.004117
    10  C   -0.382276   0.005645
    11  H    0.116727  -0.007933
    12  H    0.119261  -0.003376
    13  H    0.162497  -0.000407
    14  H    0.120721   0.000778
    15  H    0.160873   0.000103
    16  H   -0.131822   0.030116
 Sum of Mulliken charges =   0.00000   1.00000

 Dipole moment (field-independent basis, Debye):
    X=              0.4899    Y=              0.7032    Z=             -0.1979  Tot=              0.8795
                          Isotropic Fermi Contact Couplings
        Atom                 a.u.       MegaHertz       Gauss      10(-4) cm-1
     1  Si(29)             0.55658    -494.64900    -176.50306    -164.99715
     2  C(13)              0.01502      16.89053       6.02696       5.63407
     3  C(13)              0.02267      25.48488       9.09364       8.50084
     4  H(1)               0.00009       0.38944       0.13896       0.12990
     5  H(1)               0.00038       1.71419       0.61166       0.57179
     6  C(13)              0.01322      14.86389       5.30381       4.95806
     7  H(1)               0.00959      42.88845      15.30367      14.30605
     8  H(1)               0.00033       1.47691       0.52700       0.49264

 Normal termination of Gaussian 16 at Tue Apr  8 23:45:51 2025.
