 Gaussian 16, Revision C.01,

 ----------------------------------------------------------------------
 #t hf aug-cc-pvdz symm=none int=(grid=ultrafine) guess=(read,tcheck) s
 table=(opt,rrhf)
 ----------------------------------------------------------------------
 -----
 title
 -----
 Symbolic Z-matrix:
 Charge =  0 Multiplicity = 1

 SCF Done:  E(RHF) =  -802.322140592     A.U. after   12 cycles
 Normal termination of Gaussian 16 at Tue Apr  8 23:11:08 2025.
 Gaussian 16:  ES64L-G16RevC.01  3-Jul-2019

 ----------------------------------------------------------------------
 #t hf aug-cc-pvdz iop(5/13=1,5/36=2,99/5=2) pseudo=read geom=check gue
 ss=(read,tcheck) scf=(maxcycle=1)
 ----------------------------------------------------------------------
 -----
 title
 -----
 Structure from the checkpoint file:  "BDE49_expt_685_mol1.chk"
 Charge =  0 Multiplicity = 1

                         Standard orientation:
 ---------------------------------------------------------------------
 Center     Atomic      Atomic             Coordinates (Angstroms)
 Number     Number       Type             X           Y           Z
 ---------------------------------------------------------------------
      1          6           0        1.241681   -0.145319   -0.038791
      2          7           0        0.000000    0.473904   -0.442939
      3          6           0       -1.241681   -0.145319   -0.038791
      4          8           0        0.000001    1.806163    0.038588
      5          1           0        0.000001    2.333256   -0.769963
      6          9           0        1.295723   -1.394140   -0.502959
      7          9           0        1.419584   -0.185012    1.290982
      8          9           0        2.246899    0.559371   -0.564282
      9          9           0       -1.295724   -1.394140   -0.502960
     10          9           0       -1.419584   -0.185013    1.290982
     11          9           0       -2.246899    0.559372   -0.564282
 ---------------------------------------------------------------------

 SCF Done:  E(RHF) =  -803.058673016     A.U. after    2 cycles

 The electronic state is 1-A.
 Alpha  occ. eigenvalues --  -26.53541 -26.53540 -26.53294 -26.53294 -26.52717
 Alpha  occ. eigenvalues --  -26.52716 -20.64997 -15.64111 -11.58084 -11.58080
 Alpha  occ. eigenvalues --   -1.75454  -1.74250  -1.65056  -1.64585  -1.64091
 Alpha  occ. eigenvalues --   -1.63857  -1.56084  -1.25362  -1.03327  -0.94242
 Alpha  occ. eigenvalues --   -0.88968  -0.86510  -0.86153  -0.83693  -0.82983
 Alpha  occ. eigenvalues --   -0.79207  -0.75717  -0.72123  -0.70985  -0.70939
 Alpha  occ. eigenvalues --   -0.70184  -0.67132  -0.66597  -0.65813  -0.65780
 Alpha  occ. eigenvalues --   -0.65347  -0.64710  -0.64588  -0.64011  -0.55588
 Alpha  occ. eigenvalues --   -0.53385
 Alpha virt. eigenvalues --    0.03442   0.08436   0.08517   0.08911   0.10353
 Alpha virt. eigenvalues --    0.10488   0.10776   0.12894   0.14425   0.15906
 Alpha virt. eigenvalues --    0.19694   0.21057   0.22089   0.23261   0.24460

 Mulliken charges:
               1
     1  C    2.188688
     2  N    1.062094
     3  C    2.188688
     4  O   -1.225842
     5  H    0.285976
     6  F   -0.740283
     7  F   -0.773050
     8  F   -0.736468
     9  F   -0.740284
    10  F   -0.773050
    11  F   -0.736468
 Sum of Mulliken charges =  -0.00000

 Dipole moment (field-independent basis, Debye):
    X=              0.0000    Y=              1.4954    Z=             -1.2713  Tot=              1.9628

 Test job not archived.
 1\1\GINC-SE045\SP\RHF\Aug-CC-pVDZ\C2H1F6N1O1\OHZDE\08-Apr-2025\0\\#t h
 f aug-cc-pvdz iop(5/13=1,5/36=2,99/5=2) pseudo=read geom=check guess=(
 read,tcheck) scf=(maxcycle=1)\\title\\0,1\C,0,1.241681,-0.145319,-0.03
 8791\N,0,0.,0.473904,-0.442939\C,0,-1.241681,-0.145319,-0.038791\O,0,0
 .,1.806163,0.038588\H,0,0.,2.333256,-0.769963\F,0,1.295723,-1.39414,-0
 .502959\F,0,1.419584,-0.185012,1.290982\F,0,2.246899,0.559371,-0.56428
 2\F,0,-1.295724,-1.39414,-0.50296\F,0,-1.419584,-0.185013,1.290982\F,0
 ,-2.246899,0.559371,-0.564282\\Version=ES64L-G16RevC.01\State=1-A\HF=-

 Normal termination of Gaussian 16 at Tue Apr  8 23:11:15 2025.
