 Gaussian 16, Revision C.01,

 ----------------------------------------------------------------------
 #t hf aug-cc-pvdz symm=none int=(grid=ultrafine) guess=(read,tcheck) s
 table=(opt,rrhf)
 ----------------------------------------------------------------------
 -----
 title
 -----
 Symbolic Z-matrix:
 Charge =  0 Multiplicity = 1

 SCF Done:  E(RHF) =  -705.573859013     A.U. after   14 cycles
 Normal termination of Gaussian 16 at Tue Apr  8 23:50:51 2025.
 Gaussian 16:  ES64L-G16RevC.01  3-Jul-2019

 ----------------------------------------------------------------------
 #t hf aug-cc-pvdz iop(5/13=1,5/36=2,99/5=2) pseudo=read geom=check gue
 ss=(read,tcheck) scf=(maxcycle=1)
 ----------------------------------------------------------------------
 -----
 title
 -----
 Structure from the checkpoint file:  "BDE49_nonexpt_1879_mol1.chk"
 Charge =  0 Multiplicity = 1

                         Standard orientation:
 ---------------------------------------------------------------------
 Center     Atomic      Atomic             Coordinates (Angstroms)
 Number     Number       Type             X           Y           Z
 ---------------------------------------------------------------------
      1          6           0        1.058359   -0.867983    0.694642
      2         14           0       -0.623089   -1.198386   -0.163197
      3          6           0        1.791813    0.288615    0.068677
      4          8           0        1.305778    1.392923   -0.041950
      5          8           0        3.030308    0.071803   -0.408788
      6          6           0       -1.850929    0.280014   -0.031987
      7          1           0       -1.243279   -2.355752    0.507040
      8          1           0       -0.379600   -1.493754   -1.591890
      9          8           0       -3.019790    0.005019   -0.154017
     10          8           0       -1.437872    1.536928    0.178371
     11          1           0        3.307386   -0.834133   -0.230911
     12          1           0       -0.457215    1.587629    0.172193
     13          1           0        1.645658   -1.790247    0.722463
     14          1           0        0.827451   -0.593597    1.728940
 ---------------------------------------------------------------------

 SCF Done:  E(RHF) =  -706.013891489     A.U. after    2 cycles

 The electronic state is 1-A.
 Alpha  occ. eigenvalues --  -69.57474 -20.63885 -20.58361 -20.57172 -20.53687
 Alpha  occ. eigenvalues --  -11.44051 -11.37979 -11.28900  -6.24495  -3.99871
 Alpha  occ. eigenvalues --   -3.99834  -3.99823  -1.58454  -1.53179  -1.49228
 Alpha  occ. eigenvalues --   -1.44629  -1.06425  -0.88014  -0.85254  -0.79776
 Alpha  occ. eigenvalues --   -0.75981  -0.71592  -0.69395  -0.66118  -0.65580
 Alpha  occ. eigenvalues --   -0.63287  -0.61734  -0.59637  -0.55130  -0.52829
 Alpha  occ. eigenvalues --   -0.52095  -0.49627  -0.47954  -0.46060  -0.41234
 Alpha virt. eigenvalues --    0.01199   0.03340   0.03661   0.04767   0.06289
 Alpha virt. eigenvalues --    0.07037   0.07151   0.07677   0.08606   0.11004
 Alpha virt. eigenvalues --    0.11383   0.11852   0.12033   0.12351   0.13080

 Mulliken charges:
               1
     1  C   -0.747068
     2  Si   1.159862
     3  C    2.119580
     4  O   -1.323528
     5  O   -1.209535
     6  C    1.343955
     7  H   -0.116676
     8  H   -0.146856
     9  O   -1.103029
    10  O   -1.207673
    11  H    0.370894
    12  H    0.645715
    13  H   -0.036851
    14  H    0.251211
 Sum of Mulliken charges =  -0.00000

 Dipole moment (field-independent basis, Debye):
    X=              5.5347    Y=             -4.8175    Z=              1.4157  Tot=              7.4730

 Test job not archived.
 1\1\GINC-SE343\SP\RHF\Aug-CC-pVDZ\C3H6O4Si1\OHZDE\08-Apr-2025\0\\#t hf
  aug-cc-pvdz iop(5/13=1,5/36=2,99/5=2) pseudo=read geom=check guess=(r
 ead,tcheck) scf=(maxcycle=1)\\title\\0,1\C,0,1.058359,-0.867983,0.6946
 42\Si,0,-0.623089,-1.198386,-0.163197\C,0,1.791813,0.288615,0.068677\O
 ,0,1.305778,1.392923,-0.04195\O,0,3.030308,0.071803,-0.408788\C,0,-1.8
 50929,0.280014,-0.031987\H,0,-1.243279,-2.355752,0.50704\H,0,-0.3796,-
 1.493754,-1.59189\O,0,-3.01979,0.005019,-0.154017\O,0,-1.437872,1.5369
 28,0.178371\H,0,3.307386,-0.834133,-0.230911\H,0,-0.457215,1.587629,0.

 Normal termination of Gaussian 16 at Tue Apr  8 23:50:56 2025.
