 Gaussian 16, Revision C.01,

 ----------------------------------------------------------------------
 #t hf aug-cc-pvdz symm=none int=(grid=ultrafine) guess=(read,tcheck) s
 table=(opt,rrhf)
 ----------------------------------------------------------------------
 -----
 title
 -----
 Symbolic Z-matrix:
 Charge =  0 Multiplicity = 1

 SCF Done:  E(RHF) =  -876.198277455     A.U. after   13 cycles
 Normal termination of Gaussian 16 at Tue Apr  8 23:16:47 2025.
 Gaussian 16:  ES64L-G16RevC.01  3-Jul-2019

 ----------------------------------------------------------------------
 #t hf aug-cc-pvdz iop(5/13=1,5/36=2,99/5=2) pseudo=read geom=check gue
 ss=(read,tcheck) scf=(maxcycle=1)
 ----------------------------------------------------------------------
 -----
 title
 -----
 Structure from the checkpoint file:  "BDE49_nonexpt_1028_mol1.chk"
 Charge =  0 Multiplicity = 1

                         Standard orientation:
 ---------------------------------------------------------------------
 Center     Atomic      Atomic             Coordinates (Angstroms)
 Number     Number       Type             X           Y           Z
 ---------------------------------------------------------------------
      1         17           0       -1.468780   -0.156095   -0.008866
      2          8           0        0.017640    0.746085    0.055877
      3         15           0        1.388821   -0.260243   -0.079854
      4          1           0        1.779591   -0.261540    1.291007
      5          1           0        2.216232    0.850113   -0.389490
 ---------------------------------------------------------------------

 SCF Done:  E(RHF) =  -876.388047079     A.U. after    2 cycles

 The electronic state is 1-A.
 Alpha  occ. eigenvalues -- -105.62750 -84.33927 -20.63220 -10.66971  -7.83944
 Alpha  occ. eigenvalues --   -7.83404  -7.83380  -6.80429  -4.33158  -4.32386
 Alpha  occ. eigenvalues --   -4.31917  -1.47048  -1.03630  -0.85727  -0.63233
 Alpha  occ. eigenvalues --   -0.62515  -0.60611  -0.51384  -0.47034  -0.44893
 Alpha  occ. eigenvalues --   -0.37544
 Alpha virt. eigenvalues --    0.03719   0.05057   0.06629   0.06905   0.09661
 Alpha virt. eigenvalues --    0.09919   0.14219   0.15258   0.16249   0.17100
 Alpha virt. eigenvalues --    0.18307   0.20537   0.21964   0.24390   0.24960

 Mulliken charges:
               1
     1  Cl   0.350987
     2  O   -1.119341
     3  P    0.332717
     4  H    0.243611
     5  H    0.192027
 Sum of Mulliken charges =  -0.00000

 Dipole moment (field-independent basis, Debye):
    X=              1.5107    Y=             -0.4612    Z=              0.1663  Tot=              1.5882

 Test job not archived.
 1\1\GINC-SE044\SP\RHF\Aug-CC-pVDZ\Cl1H2O1P1\OHZDE\08-Apr-2025\0\\#t hf
  aug-cc-pvdz iop(5/13=1,5/36=2,99/5=2) pseudo=read geom=check guess=(r
 ead,tcheck) scf=(maxcycle=1)\\title\\0,1\Cl,0,-1.46878,-0.156095,-0.00
 8866\O,0,0.01764,0.746085,0.055877\P,0,1.388821,-0.260243,-0.079854\H,
 0,1.779591,-0.26154,1.291007\H,0,2.216232,0.850113,-0.38949\\Version=E
 S64L-G16RevC.01\State=1-A\HF=-876.3880471\RMSD=2.183e-02\Dipole=0.5943
 404,-0.181466,0.0654082\Quadrupole=2.4440733,-1.7330445,-0.7110288,0.7
 76743,0.2520909,-0.8830033\PG=C01 [X(Cl1H2O1P1)]\\@

 Normal termination of Gaussian 16 at Tue Apr  8 23:16:49 2025.
