 Gaussian 16, Revision C.01,

 ----------------------------------------------------------------------
 #t hf aug-cc-pvdz symm=none int=(grid=ultrafine) guess=(read,tcheck) s
 table=opt
 ----------------------------------------------------------------------
 -----
 title
 -----
 Symbolic Z-matrix:
 Charge =  0 Multiplicity = 2

 SCF Done:  E(UHF) =  -156.687826687     A.U. after   16 cycles
 Normal termination of Gaussian 16 at Tue Apr  8 22:36:36 2025.
 Gaussian 16:  ES64L-G16RevC.01  3-Jul-2019

 ----------------------------------------------------------------------
 #t hf aug-cc-pvdz iop(5/13=1,5/36=2,99/5=2) pseudo=read geom=check gue
 ss=(read,tcheck) scf=(maxcycle=1)
 ----------------------------------------------------------------------
 -----
 title
 -----
 Structure from the checkpoint file:  "BDE49_expt_1117_mol2.chk"
 Charge =  0 Multiplicity = 2

                         Standard orientation:
 ---------------------------------------------------------------------
 Center     Atomic      Atomic             Coordinates (Angstroms)
 Number     Number       Type             X           Y           Z
 ---------------------------------------------------------------------
      1          6           0       -0.581232    0.443427    0.048816
      2          6           0        0.570771   -0.504954    0.091211
      3          6           0        1.937412    0.168348   -0.081221
      4          1           0        0.437254   -1.278054   -0.679058
      5          1           0        0.565214   -1.060555    1.046986
      6          1           0        2.002541    0.679817   -1.045482
      7          1           0        2.749829   -0.561219   -0.029964
      8          1           0        2.108321    0.912729    0.702277
      9          6           0       -1.985278   -0.043001   -0.067308
     10          1           0       -0.407669    1.476882    0.335014
     11          1           0       -2.083069   -0.812838   -0.842775
     12          1           0       -2.680180    0.766587   -0.304578
     13          1           0       -2.342278   -0.506273    0.868596
 ---------------------------------------------------------------------

 SCF Done:  E(UHF) =  -156.864333020     A.U. after    2 cycles

 The electronic state is 2-A.
 Alpha  occ. eigenvalues --  -11.23120 -11.22781 -11.22458 -11.22247  -1.07979
 Alpha  occ. eigenvalues --   -0.98716  -0.86903  -0.78362  -0.63108  -0.60268
 Alpha  occ. eigenvalues --   -0.59776  -0.56869  -0.52858  -0.50034  -0.48994
 Alpha  occ. eigenvalues --   -0.48565  -0.32948
 Alpha virt. eigenvalues --    0.03914   0.04096   0.04145   0.04524   0.06471
 Alpha virt. eigenvalues --    0.06618   0.06883   0.08156   0.09869   0.11724
 Alpha virt. eigenvalues --    0.13325   0.14634   0.15207   0.16478   0.16713

  Beta  occ. eigenvalues --  -11.23112 -11.22791 -11.22202 -11.20636  -1.05272
  Beta  occ. eigenvalues --   -0.97724  -0.85914  -0.74370  -0.61243  -0.59395
  Beta  occ. eigenvalues --   -0.58852  -0.54792  -0.52426  -0.49285  -0.48444
  Beta  occ. eigenvalues --   -0.47840
  Beta virt. eigenvalues --    0.03933   0.04100   0.04175   0.04552   0.06476
  Beta virt. eigenvalues --    0.06628   0.06800   0.08011   0.09827   0.11030
  Beta virt. eigenvalues --    0.12098   0.13487   0.14913   0.16144   0.16739

 Mulliken charges and spin densities:
               1          2
     1  C    0.291409   1.507833
     2  C   -0.600134  -0.283926
     3  C   -0.300433   0.014428
     4  H    0.188056   0.014052
     5  H    0.197768   0.042230
     6  H    0.178558   0.000010
     7  H    0.114668  -0.001584
     8  H    0.162722  -0.002874
     9  C   -0.589963  -0.267486
    10  H   -0.174953  -0.085124
    11  H    0.171780   0.015176
    12  H    0.140163   0.002690
    13  H    0.220358   0.044575
 Sum of Mulliken charges =  -0.00000   1.00000

 Dipole moment (field-independent basis, Debye):
    X=             -0.0415    Y=             -0.1270    Z=              0.1451  Tot=              0.1972
                          Isotropic Fermi Contact Couplings
        Atom                 a.u.       MegaHertz       Gauss      10(-4) cm-1
     1  C(13)              0.22708     255.28483      91.09198      85.15385
     2  C(13)             -0.05955     -66.94891     -23.88904     -22.33175
     3  C(13)              0.01009      11.34004       4.04641       3.78263
     4  H(1)               0.01037      46.33425      16.53321      15.45544
     5  H(1)               0.02299     102.78129      36.67492      34.28415
     6  H(1)              -0.00077      -3.42696      -1.22283      -1.14311
     7  H(1)              -0.00087      -3.86691      -1.37981      -1.28986
     8  H(1)              -0.00070      -3.13499      -1.11864      -1.04572

 Normal termination of Gaussian 16 at Tue Apr  8 22:36:39 2025.
