 Gaussian 16, Revision C.01,

 ----------------------------------------------------------------------
 #t hf aug-cc-pvdz symm=none int=(grid=ultrafine) guess=(read,tcheck) s
 table=(opt,rrhf)
 ----------------------------------------------------------------------
 -----
 title
 -----
 Symbolic Z-matrix:
 Charge =  0 Multiplicity = 1

 SCF Done:  E(RHF) =  -1297.32292693     A.U. after   15 cycles
 Normal termination of Gaussian 16 at Wed Apr  9 00:54:31 2025.
 Gaussian 16:  ES64L-G16RevC.01  3-Jul-2019

 ----------------------------------------------------------------------
 #t hf aug-cc-pvdz iop(5/13=1,5/36=2,99/5=2) pseudo=read geom=check gue
 ss=(read,tcheck) scf=(maxcycle=1)
 ----------------------------------------------------------------------
 -----
 title
 -----
 Structure from the checkpoint file:  "BDE49_nonexpt_999_mol1.chk"
 Charge =  0 Multiplicity = 1

                         Standard orientation:
 ---------------------------------------------------------------------
 Center     Atomic      Atomic             Coordinates (Angstroms)
 Number     Number       Type             X           Y           Z
 ---------------------------------------------------------------------
      1          7           0        1.557127    0.027818   -0.390769
      2         16           0        0.470552   -0.087237    1.018377
      3          9           0        2.433377   -1.055540   -0.279219
      4          9           0        2.403680    1.107095   -0.114883
      5         16           0       -1.318072   -0.135616   -0.103666
      6          8           0       -2.325399   -0.343904    0.882969
      7          8           0       -1.183338   -0.882057   -1.305884
      8          9           0       -1.422575    1.412734   -0.552195
 ---------------------------------------------------------------------

 SCF Done:  E(RHF) =  -1297.90303265     A.U. after    2 cycles

 The electronic state is 1-A.
 Alpha  occ. eigenvalues --  -94.32075 -94.09268 -26.55269 -26.55224 -26.54971
 Alpha  occ. eigenvalues --  -20.62180 -20.62128 -15.78549  -8.56621  -8.37133
 Alpha  occ. eigenvalues --   -6.54607  -6.54510  -6.54340  -6.34808  -6.34663
 Alpha  occ. eigenvalues --   -6.34337  -1.71643  -1.71116  -1.62427  -1.60043
 Alpha  occ. eigenvalues --   -1.53009  -1.22981  -1.06321  -0.93852  -0.83382
 Alpha  occ. eigenvalues --   -0.81145  -0.80696  -0.78460  -0.76068  -0.74718
 Alpha  occ. eigenvalues --   -0.69975  -0.68485  -0.67887  -0.66199  -0.65309
 Alpha  occ. eigenvalues --   -0.59951  -0.56538  -0.55011  -0.53958  -0.51765
 Alpha  occ. eigenvalues --   -0.48334
 Alpha virt. eigenvalues --    0.01317   0.04576   0.07991   0.09139   0.09637
 Alpha virt. eigenvalues --    0.09804   0.10724   0.11218   0.12029   0.12819
 Alpha virt. eigenvalues --    0.15066   0.16216   0.17464   0.19911   0.20345

 Mulliken charges:
               1
     1  N    0.882554
     2  S    0.375719
     3  F   -0.555944
     4  F   -0.555751
     5  S    2.958492
     6  O   -1.199084
     7  O   -1.256060
     8  F   -0.649926
 Sum of Mulliken charges =  -0.00000

 Dipole moment (field-independent basis, Debye):
    X=              1.0769    Y=              0.5084    Z=              1.8094  Tot=              2.1662

 Test job not archived.
 1\1\GINC-SE092\SP\RHF\Aug-CC-pVDZ\F3N1O2S2\OHZDE\09-Apr-2025\0\\#t hf
 aug-cc-pvdz iop(5/13=1,5/36=2,99/5=2) pseudo=read geom=check guess=(re
 ad,tcheck) scf=(maxcycle=1)\\title\\0,1\N,0,1.557127,0.027818,-0.39076
 9\S,0,0.470552,-0.087237,1.018377\F,0,2.433377,-1.05554,-0.279219\F,0,
 2.40368,1.107095,-0.114883\S,0,-1.318072,-0.135616,-0.103666\O,0,-2.32
 5399,-0.343904,0.882969\O,0,-1.183338,-0.882057,-1.305884\F,0,-1.42257
 5,1.412734,-0.552195\\Version=ES64L-G16RevC.01\State=1-A\HF=-1297.9030
 327\RMSD=5.858e-03\Dipole=0.4236971,0.2000293,0.71189\Quadrupole=-1.58

 Normal termination of Gaussian 16 at Wed Apr  9 00:54:35 2025.
