 Gaussian 16, Revision C.01,

 ----------------------------------------------------------------------
 #t hf aug-cc-pvdz symm=none int=(grid=ultrafine) guess=(read,tcheck) s
 table=(opt,rrhf)
 ----------------------------------------------------------------------
 -----
 title
 -----
 Symbolic Z-matrix:
 Charge =  0 Multiplicity = 1

 SCF Done:  E(RHF) =  -1013.42781102     A.U. after   13 cycles
 Normal termination of Gaussian 16 at Tue Apr  8 23:43:10 2025.
 Gaussian 16:  ES64L-G16RevC.01  3-Jul-2019

 ----------------------------------------------------------------------
 #t hf aug-cc-pvdz iop(5/13=1,5/36=2,99/5=2) pseudo=read geom=check gue
 ss=(read,tcheck) scf=(maxcycle=1)
 ----------------------------------------------------------------------
 -----
 title
 -----
 Structure from the checkpoint file:  "BDE49_nonexpt_1647_mol1.chk"
 Charge =  0 Multiplicity = 1

                         Standard orientation:
 ---------------------------------------------------------------------
 Center     Atomic      Atomic             Coordinates (Angstroms)
 Number     Number       Type             X           Y           Z
 ---------------------------------------------------------------------
      1          6           0       -1.873723   -0.075113    0.018904
      2         15           0        1.601114   -0.084775    0.100308
      3          8           0        1.739337   -0.895154    1.327177
      4          6           0       -3.133029    0.809852   -0.114036
      5          1           0       -3.187318    1.302275   -1.089887
      6          1           0       -3.172829    1.583865    0.658470
      7          6           0       -1.859932   -0.754024    1.404747
      8          1           0       -1.898697   -0.018344    2.213902
      9          1           0       -0.965211   -1.362870    1.554154
     10          1           0       -2.736926   -1.404287    1.507957
     11          1           0       -4.033285    0.192844   -0.006833
     12          6           0       -1.878776   -1.144211   -1.093105
     13          1           0       -2.776687   -1.767251   -1.003616
     14          1           0       -1.009474   -1.803414   -1.033134
     15          1           0       -1.887510   -0.694078   -2.090437
     16         14           0       -0.353379    1.057686   -0.157787
     17          8           0        2.799670    1.006230   -0.052762
     18          1           0        3.212220    1.177771    0.803219
     19          8           0        1.712133   -0.874804   -1.300719
     20          1           0        2.479122   -1.462338   -1.348371
     21          1           0       -0.315896    2.071934    0.923146
     22          1           0       -0.313280    1.738705   -1.472804
 ---------------------------------------------------------------------

 SCF Done:  E(RHF) =  -1013.90421025     A.U. after    2 cycles

 The electronic state is 1-A.
 Alpha  occ. eigenvalues --  -84.41407 -69.54269 -20.59002 -20.58596 -20.49879
 Alpha  occ. eigenvalues --  -11.24544 -11.23722 -11.23269 -11.22745  -6.86799
 Alpha  occ. eigenvalues --   -6.21468  -4.40848  -4.40152  -4.39204  -3.96810
 Alpha  occ. eigenvalues --   -3.96754  -3.96711  -1.52336  -1.46524  -1.37934
 Alpha  occ. eigenvalues --   -1.09444  -0.94172  -0.93769  -0.86857  -0.79185
 Alpha  occ. eigenvalues --   -0.73036  -0.71376  -0.66316  -0.63290  -0.61425
 Alpha  occ. eigenvalues --   -0.61240  -0.60924  -0.58760  -0.55618  -0.55401
 Alpha  occ. eigenvalues --   -0.54213  -0.53843  -0.52699  -0.50083  -0.48521
 Alpha  occ. eigenvalues --   -0.48433  -0.47956  -0.44967  -0.42885  -0.40056
 Alpha virt. eigenvalues --    0.03373   0.03695   0.03943   0.04452   0.05177
 Alpha virt. eigenvalues --    0.05683   0.06317   0.06430   0.07121   0.08290
 Alpha virt. eigenvalues --    0.08937   0.09853   0.09920   0.10086   0.10684

 Mulliken charges:
               1
     1  C   -1.858504
     2  P    3.437285
     3  O   -1.602430
     4  C   -0.045682
     5  H    0.148729
     6  H    0.146191
     7  C    0.165439
     8  H    0.162287
     9  H    0.133500
    10  H    0.205966
    11  H    0.214022
    12  C    0.087245
    13  H    0.188243
    14  H    0.166502
    15  H    0.169356
    16  Si   0.283288
    17  O   -1.346053
    18  H    0.325720
    19  O   -1.335683
    20  H    0.317820
    21  H   -0.050665
    22  H    0.087424
 Sum of Mulliken charges =  -0.00000

 Dipole moment (field-independent basis, Debye):
    X=             -0.6528    Y=              0.9620    Z=             -1.2716  Tot=              1.7229

 Test job not archived.
 1\1\GINC-SE184\SP\RHF\Aug-CC-pVDZ\C4H13O3P1Si1\OHZDE\08-Apr-2025\0\\#t
  hf aug-cc-pvdz iop(5/13=1,5/36=2,99/5=2) pseudo=read geom=check guess
 =(read,tcheck) scf=(maxcycle=1)\\title\\0,1\C,0,-1.873723,-0.075113,0.
 018904\P,0,1.601114,-0.084775,0.100308\O,0,1.739337,-0.895154,1.327177
 \C,0,-3.133029,0.809852,-0.114036\H,0,-3.187318,1.302275,-1.089887\H,0
 ,-3.172829,1.583865,0.65847\C,0,-1.859932,-0.754024,1.404747\H,0,-1.89
 8697,-0.018344,2.213902\H,0,-0.965211,-1.36287,1.554154\H,0,-2.736926,
 -1.404287,1.507957\H,0,-4.033285,0.192844,-0.006833\C,0,-1.878776,-1.1

 Normal termination of Gaussian 16 at Tue Apr  8 23:43:24 2025.
