 Gaussian 16, Revision C.01,

 ----------------------------------------------------------------------
 #t hf aug-cc-pvdz symm=none int=(grid=ultrafine) guess=(read,tcheck) s
 table=(opt,rrhf)
 ----------------------------------------------------------------------
 -----
 title
 -----
 Symbolic Z-matrix:
 Charge =  0 Multiplicity = 1

 SCF Done:  E(RHF) =  -632.575685624     A.U. after   11 cycles

 1\1\GINC-SE143\Stability\RHF\Aug-CC-pVDZ\H5P1Si1\OHZDE\08-Apr-2025\0\\
 #t hf aug-cc-pvdz symm=none int=(grid=ultrafine) guess=(read,tcheck) s
 table=(opt,rrhf)\\title\\0,1\Si,0,1.103335,0.,0.006962\P,0,-1.173519,0
 .,-0.118657\H,0,-1.332541,1.035897,0.839568\H,0,-1.332541,-1.035897,0.
 839568\H,0,1.598425,1.206316,-0.695219\H,0,1.598425,-1.206316,-0.69521
 9\H,0,1.62432,0.,1.393686\\Version=ES64L-G16RevC.01\HF=-632.5756856\RM
 SD=5.756e-09\Dipole=0.1619303,0.,0.281282\Quadrupole=-0.7324874,1.0266
 73,-0.2941856,0.,-1.2124313,0.\PG=Unknown\\@

 Normal termination of Gaussian 16 at Tue Apr  8 23:42:11 2025.
 Gaussian 16:  ES64L-G16RevC.01  3-Jul-2019

 ----------------------------------------------------------------------
 #t hf aug-cc-pvdz iop(5/13=1,5/36=2,99/5=2) pseudo=read geom=check gue
 ss=(read,tcheck) scf=(maxcycle=1)
 ----------------------------------------------------------------------
 -----
 title
 -----
 Structure from the checkpoint file:  "BDE49_nonexpt_1670_mol1.chk"
 Charge =  0 Multiplicity = 1

                         Standard orientation:
 ---------------------------------------------------------------------
 Center     Atomic      Atomic             Coordinates (Angstroms)
 Number     Number       Type             X           Y           Z
 ---------------------------------------------------------------------
      1         14           0       -0.053829    1.102043    0.000000
      2         15           0       -0.053829   -1.178273    0.000000
      3          1           0        0.911701   -1.284267    1.035897
      4          1           0        0.911701   -1.284267   -1.035897
      5          1           0       -0.782218    1.557699    1.206316
      6          1           0       -0.782218    1.557699   -1.206316
      7          1           0        1.302089    1.698630    0.000000
 ---------------------------------------------------------------------

 SCF Done:  E(RHF) =  -632.659997510     A.U. after    2 cycles

 The electronic state is 1-A'.
 Alpha  occ. eigenvalues --  -84.26946 -69.54297  -6.74225  -6.21343  -4.26443
 Alpha  occ. eigenvalues --   -4.26320  -4.25820  -3.96710  -3.96672  -3.96659
 Alpha  occ. eigenvalues --   -0.87474  -0.72313  -0.52723  -0.50597  -0.48217
 Alpha  occ. eigenvalues --   -0.43264  -0.35111
 Alpha virt. eigenvalues --    0.03739   0.04321   0.05711   0.06144   0.07821
 Alpha virt. eigenvalues --    0.08459   0.09039   0.09450   0.10957   0.11251
 Alpha virt. eigenvalues --    0.12525   0.15364   0.16128   0.18132   0.18580

 Mulliken charges:
               1
     1  Si   1.067321
     2  P   -1.142197
     3  H    0.342941
     4  H    0.342941
     5  H   -0.211921
     6  H   -0.211921
     7  H   -0.187162
 Sum of Mulliken charges =   0.00000

 Dipole moment (field-independent basis, Debye):
    X=              0.3952    Y=              0.0409    Z=             -0.0000  Tot=              0.3973

 Test job not archived.
 1\1\GINC-SE143\SP\RHF\Aug-CC-pVDZ\H5P1Si1\OHZDE\08-Apr-2025\0\\#t hf a
 ug-cc-pvdz iop(5/13=1,5/36=2,99/5=2) pseudo=read geom=check guess=(rea
 d,tcheck) scf=(maxcycle=1)\\title\\0,1\Si,0,1.103335,0.,0.006962\P,0,-
 1.173519,0.,-0.118657\H,0,-1.332541,1.035897,0.839568\H,0,-1.332541,-1
 .035897,0.839568\H,0,1.598425,1.206316,-0.695219\H,0,1.598425,-1.20631
 6,-0.695219\H,0,1.62432,0.,1.393686\\Version=ES64L-G16RevC.01\State=1-
 A'\HF=-632.6599975\RMSD=2.664e-02\Dipole=0.0074934,0.,0.1561422\Quadru
 pole=-0.5227538,0.9495503,-0.4267965,0.,-0.9876142,0.\PG=CS [SG(H1P1Si

 Normal termination of Gaussian 16 at Tue Apr  8 23:42:13 2025.
