 Gaussian 16, Revision C.01,

 ----------------------------------------------------------------------
 #t hf aug-cc-pvdz symm=none int=(grid=ultrafine) guess=(read,tcheck) s
 table=(opt,rrhf)
 ----------------------------------------------------------------------
 -----
 title
 -----
 Symbolic Z-matrix:
 Charge =  0 Multiplicity = 1

 SCF Done:  E(RHF) =  -1545.59182767     A.U. after   14 cycles
 Normal termination of Gaussian 16 at Tue Apr  8 22:38:25 2025.
 Gaussian 16:  ES64L-G16RevC.01  3-Jul-2019

 ----------------------------------------------------------------------
 #t hf aug-cc-pvdz iop(5/13=1,5/36=2,99/5=2) pseudo=read geom=check gue
 ss=(read,tcheck) scf=(maxcycle=1)
 ----------------------------------------------------------------------
 -----
 title
 -----
 Structure from the checkpoint file:  "BDE49_expt_1229_mol1.chk"
 Charge =  0 Multiplicity = 1

                         Standard orientation:
 ---------------------------------------------------------------------
 Center     Atomic      Atomic             Coordinates (Angstroms)
 Number     Number       Type             X           Y           Z
 ---------------------------------------------------------------------
      1          6           0       -0.080714   -0.000000   -0.009297
      2          7           0        0.704070    0.000002   -1.422002
      3         17           0       -1.073269   -1.469526   -0.086019
      4         17           0       -1.073252    1.469538   -0.086004
      5         17           0        1.004252   -0.000014    1.379483
      6          8           0        1.871797    0.000001   -1.314628
 ---------------------------------------------------------------------

 SCF Done:  E(RHF) =  -1545.97144335     A.U. after    2 cycles

 The electronic state is 1-A.
 Alpha  occ. eigenvalues -- -105.61591-105.61590-105.61391 -20.67649 -15.70679
 Alpha  occ. eigenvalues --  -11.48219 -10.66440 -10.66415 -10.66233  -7.83382
 Alpha  occ. eigenvalues --   -7.83368  -7.83185  -7.82928  -7.82926  -7.82922
 Alpha  occ. eigenvalues --   -7.82920  -7.82733  -7.82732  -1.67659  -1.24321
 Alpha  occ. eigenvalues --   -1.09443  -1.09265  -1.03409  -0.85168  -0.75635
 Alpha  occ. eigenvalues --   -0.74866  -0.69868  -0.64689  -0.63455  -0.54350
 Alpha  occ. eigenvalues --   -0.52927  -0.52767  -0.49308  -0.49200  -0.47657
 Alpha  occ. eigenvalues --   -0.44065
 Alpha virt. eigenvalues --    0.03469   0.05810   0.08147   0.08383   0.08647
 Alpha virt. eigenvalues --    0.10374   0.12821   0.13042   0.13198   0.14839
 Alpha virt. eigenvalues --    0.14877   0.17105   0.18565   0.18569   0.18652

 Mulliken charges:
               1
     1  C   -1.253250
     2  N    1.180522
     3  Cl   0.302068
     4  Cl   0.302068
     5  Cl   0.340147
     6  O   -0.871555
 Sum of Mulliken charges =  -0.00000

 Dipole moment (field-independent basis, Debye):
    X=             -0.0460    Y=             -0.0000    Z=              0.6948  Tot=              0.6963

 Test job not archived.
 1\1\GINC-SE334\SP\RHF\Aug-CC-pVDZ\C1Cl3N1O1\OHZDE\08-Apr-2025\0\\#t hf
  aug-cc-pvdz iop(5/13=1,5/36=2,99/5=2) pseudo=read geom=check guess=(r
 ead,tcheck) scf=(maxcycle=1)\\title\\0,1\C,0,-0.080714,0.,-0.009297\N,
 0,0.70407,0.000002,-1.422002\Cl,0,-1.07327,-1.469525,-0.086019\Cl,0,-1
 .073251,1.469539,-0.086004\Cl,0,1.004252,-0.000014,1.379483\O,0,1.8717
 97,0.,-1.314628\\Version=ES64L-G16RevC.01\State=1-A\HF=-1545.9714433\R
 MSD=1.002e-02\Dipole=-0.0180935,-0.0000009,0.2733461\Quadrupole=0.1859
 976,1.2003332,-1.3863308,-0.0000004,0.6583353,0.0000057\PG=C01 [X(C1Cl

 Normal termination of Gaussian 16 at Tue Apr  8 22:38:28 2025.
