 Gaussian 16, Revision C.01,

 ----------------------------------------------------------------------
 #t hf aug-cc-pvdz symm=none int=(grid=ultrafine) guess=(read,tcheck) s
 table=(opt,rrhf)
 ----------------------------------------------------------------------
 -----
 title
 -----
 Symbolic Z-matrix:
 Charge =  0 Multiplicity = 1

 SCF Done:  E(RHF) =  -767.875446525     A.U. after   13 cycles
 Normal termination of Gaussian 16 at Wed Apr  9 00:51:30 2025.
 Gaussian 16:  ES64L-G16RevC.01  3-Jul-2019

 ----------------------------------------------------------------------
 #t hf aug-cc-pvdz iop(5/13=1,5/36=2,99/5=2) pseudo=read geom=check gue
 ss=(read,tcheck) scf=(maxcycle=1)
 ----------------------------------------------------------------------
 -----
 title
 -----
 Structure from the checkpoint file:  "BDE49_nonexpt_907_mol1.chk"
 Charge =  0 Multiplicity = 1

                         Standard orientation:
 ---------------------------------------------------------------------
 Center     Atomic      Atomic             Coordinates (Angstroms)
 Number     Number       Type             X           Y           Z
 ---------------------------------------------------------------------
      1          8           0        0.927270    1.395382   -0.024407
      2         16           0        2.750808   -0.696380    0.008894
      3          8           0        0.025633   -0.840549    0.006621
      4          6           0       -0.390206    1.964854   -0.014518
      5          6           0       -1.411924    1.017401   -0.632202
      6          6           0       -1.356144   -0.387615   -0.004456
      7          6           0       -1.860982   -0.405343    1.441889
      8          6           0       -2.121213   -1.397254   -0.857973
      9          5           0        1.062949    0.039486   -0.002537
     10          1           0       -0.336121    2.897431   -0.579395
     11          1           0       -0.648757    2.216435    1.019108
     12          1           0       -1.211335    0.928978   -1.705149
     13          1           0       -2.416981    1.436046   -0.522315
     14          1           0       -2.921535   -0.142329    1.484820
     15          1           0       -1.306395    0.294049    2.071375
     16          1           0       -1.733965   -1.404549    1.862882
     17          1           0       -1.715000   -1.423030   -1.871382
     18          1           0       -2.029833   -2.396905   -0.428142
     19          1           0       -3.181451   -1.135537   -0.912136
     20          1           0        3.393293    0.483132   -0.003438
 ---------------------------------------------------------------------

 SCF Done:  E(RHF) =  -768.318904629     A.U. after    2 cycles

 The electronic state is 1-A.
 Alpha  occ. eigenvalues --  -93.92843 -20.55525 -20.54907 -11.31362 -11.30477
 Alpha  occ. eigenvalues --  -11.25040 -11.23713 -11.23386  -8.21131  -7.66459
 Alpha  occ. eigenvalues --   -6.18974  -6.18837  -6.18660  -1.49183  -1.44912
 Alpha  occ. eigenvalues --   -1.10571  -1.01526  -0.99404  -0.95510  -0.88877
 Alpha  occ. eigenvalues --   -0.80756  -0.71486  -0.69063  -0.68068  -0.64434
 Alpha  occ. eigenvalues --   -0.63088  -0.60406  -0.58704  -0.57501  -0.54900
 Alpha  occ. eigenvalues --   -0.54214  -0.53694  -0.52498  -0.51404  -0.47894
 Alpha  occ. eigenvalues --   -0.45646  -0.45058  -0.44969  -0.37005
 Alpha virt. eigenvalues --    0.02879   0.03483   0.03559   0.04263   0.05726
 Alpha virt. eigenvalues --    0.05876   0.05887   0.06337   0.06444   0.08649
 Alpha virt. eigenvalues --    0.09230   0.09571   0.09638   0.10687   0.11422

 Mulliken charges:
               1
     1  O   -1.307224
     2  S   -0.916697
     3  O   -1.590069
     4  C    0.810895
     5  C   -0.144741
     6  C   -0.324291
     7  C   -0.071371
     8  C    0.054279
     9  B    1.544845
    10  H    0.046579
    11  H    0.159417
    12  H    0.132900
    13  H    0.145273
    14  H    0.221069
    15  H    0.122982
    16  H    0.243052
    17  H    0.209694
    18  H    0.206474
    19  H    0.275395
    20  H    0.181541
 Sum of Mulliken charges =  -0.00000

 Dipole moment (field-independent basis, Debye):
    X=             -3.6537    Y=              2.0519    Z=             -0.0602  Tot=              4.1908

 Test job not archived.
 1\1\GINC-SE273\SP\RHF\Aug-CC-pVDZ\C5H11B1O2S1\OHZDE\09-Apr-2025\0\\#t
 hf aug-cc-pvdz iop(5/13=1,5/36=2,99/5=2) pseudo=read geom=check guess=
 (read,tcheck) scf=(maxcycle=1)\\title\\0,1\O,0,0.92727,1.395382,-0.024
 407\S,0,2.750808,-0.69638,0.008894\O,0,0.025633,-0.840549,0.006621\C,0
 ,-0.390206,1.964854,-0.014518\C,0,-1.411924,1.017401,-0.632202\C,0,-1.
 356144,-0.387615,-0.004456\C,0,-1.860982,-0.405343,1.441889\C,0,-2.121
 213,-1.397254,-0.857973\B,0,1.062949,0.039486,-0.002537\H,0,-0.336121,
 2.897431,-0.579395\H,0,-0.648757,2.216435,1.019108\H,0,-1.211335,0.928

 Normal termination of Gaussian 16 at Wed Apr  9 00:51:42 2025.
