 Gaussian 16, Revision C.01,

 ----------------------------------------------------------------------
 #t hf aug-cc-pvdz symm=none int=(grid=ultrafine) guess=(read,tcheck) s
 table=opt
 ----------------------------------------------------------------------
 -----
 title
 -----
 Symbolic Z-matrix:
 Charge =  0 Multiplicity = 2

 SCF Done:  E(UHF) =  -345.451133968     A.U. after   16 cycles

 1\1\GINC-SE249\Stability\UHF\Aug-CC-pVDZ\C5H11O2\OHZDE\08-Apr-2025\0\\
 #t hf aug-cc-pvdz symm=none int=(grid=ultrafine) guess=(read,tcheck) s
 table=opt\\title\\0,2\C,0,-0.168467,-0.756297,-0.477602\O,0,1.176255,-
 0.722864,-0.317301\O,0,-0.872172,-0.272909,0.602946\H,0,-0.500743,-1.7
 24959,-0.861014\C,0,1.742108,0.533851,0.09551\C,0,-2.292942,-0.283307,
 0.43761\C,0,3.250721,0.384887,0.077215\H,0,1.379193,0.78495,1.095499\H
 ,0,1.408542,1.31667,-0.596305\H,0,3.565504,-0.410728,0.756257\H,0,3.72
 5917,1.317313,0.393482\H,0,3.603023,0.138439,-0.926848\C,0,-2.791314,0

 Normal termination of Gaussian 16 at Tue Apr  8 22:57:35 2025.
 Gaussian 16:  ES64L-G16RevC.01  3-Jul-2019

 ----------------------------------------------------------------------
 #t hf aug-cc-pvdz iop(5/13=1,5/36=2,99/5=2) pseudo=read geom=check gue
 ss=(read,tcheck) scf=(maxcycle=1)
 ----------------------------------------------------------------------
 -----
 title
 -----
 Structure from the checkpoint file:  "BDE49_expt_189_mol2.chk"
 Charge =  0 Multiplicity = 2

                         Standard orientation:
 ---------------------------------------------------------------------
 Center     Atomic      Atomic             Coordinates (Angstroms)
 Number     Number       Type             X           Y           Z
 ---------------------------------------------------------------------
      1          6           0       -0.168467   -0.756297   -0.477602
      2          8           0        1.176255   -0.722864   -0.317301
      3          8           0       -0.872172   -0.272909    0.602946
      4          1           0       -0.500743   -1.724959   -0.861014
      5          6           0        1.742108    0.533851    0.095510
      6          6           0       -2.292942   -0.283307    0.437610
      7          6           0        3.250721    0.384887    0.077215
      8          1           0        1.379193    0.784950    1.095499
      9          1           0        1.408542    1.316670   -0.596305
     10          1           0        3.565504   -0.410728    0.756257
     11          1           0        3.725917    1.317313    0.393482
     12          1           0        3.603023    0.138439   -0.926848
     13          6           0       -2.791314    0.873783   -0.418045
     14          1           0       -2.696894   -0.221811    1.449653
     15          1           0       -2.603390   -1.246164    0.009902
     16          1           0       -2.489520    1.829031    0.018015
     17          1           0       -3.883155    0.853763   -0.483549
     18          1           0       -2.381789    0.812183   -1.428375
 ---------------------------------------------------------------------

 SCF Done:  E(UHF) =  -345.812928694     A.U. after    2 cycles

 The electronic state is 2-A.
 Alpha  occ. eigenvalues --  -20.55976 -20.55568 -11.32952 -11.29330 -11.28294
 Alpha  occ. eigenvalues --  -11.23090 -11.22431  -1.51715  -1.45081  -1.03982
 Alpha  occ. eigenvalues --   -1.02038  -0.90656  -0.85906  -0.80898  -0.70558
 Alpha  occ. eigenvalues --   -0.69215  -0.67705  -0.63771  -0.61811  -0.57744
 Alpha  occ. eigenvalues --   -0.55996  -0.54825  -0.53312  -0.52438  -0.50833
 Alpha  occ. eigenvalues --   -0.48970  -0.48718  -0.44532  -0.31910
 Alpha virt. eigenvalues --    0.03706   0.03914   0.04218   0.04354   0.05432
 Alpha virt. eigenvalues --    0.05850   0.06059   0.07281   0.08111   0.08635
 Alpha virt. eigenvalues --    0.08911   0.11630   0.13196   0.13670   0.14428

  Beta  occ. eigenvalues --  -20.55439 -20.55161 -11.30492 -11.29349 -11.28283
  Beta  occ. eigenvalues --  -11.23078 -11.22435  -1.49977  -1.43855  -1.03432
  Beta  occ. eigenvalues --   -1.01958  -0.88208  -0.85594  -0.78665  -0.69900
  Beta  occ. eigenvalues --   -0.67942  -0.64819  -0.62677  -0.60469  -0.56417
  Beta  occ. eigenvalues --   -0.55085  -0.54218  -0.52703  -0.51948  -0.49699
  Beta  occ. eigenvalues --   -0.47840  -0.46704  -0.42509
  Beta virt. eigenvalues --    0.03717   0.03879   0.04220   0.04365   0.05431
  Beta virt. eigenvalues --    0.05844   0.06061   0.07167   0.08122   0.08640
  Beta virt. eigenvalues --    0.08923   0.11231   0.13076   0.13567   0.14386

 Mulliken charges and spin densities:
               1          2
     1  C    1.252546   1.044365
     2  O   -1.337017  -0.000213
     3  O   -1.170471   0.035016
     4  H    0.000094  -0.036510
     5  C    0.471810  -0.008710
     6  C    0.420929  -0.010362
     7  C   -0.614293  -0.003367
     8  H    0.066566   0.001924
     9  H    0.118602  -0.013179
    10  H    0.184622   0.000738
    11  H    0.170010  -0.000774
    12  H    0.179003  -0.000310
    13  C   -0.417272   0.003545
    14  H   -0.050738   0.001791
    15  H    0.216300   0.003421
    16  H    0.199227  -0.000560
    17  H    0.135422  -0.001633
    18  H    0.174661  -0.015184
 Sum of Mulliken charges =  -0.00000   1.00000

 Dipole moment (field-independent basis, Debye):
    X=             -1.2340    Y=              0.7538    Z=             -0.0478  Tot=              1.4468
                          Isotropic Fermi Contact Couplings
        Atom                 a.u.       MegaHertz       Gauss      10(-4) cm-1
     1  C(13)              0.33270     374.01644     133.45837     124.75846
     2  O(17)              0.03142     -19.04923      -6.79724      -6.35414
     3  O(17)              0.05198     -31.50887     -11.24315     -10.51023
     4  H(1)              -0.00097      -4.35467      -1.55386      -1.45256
     5  C(13)              0.00785       8.82203       3.14792       2.94271
     6  C(13)             -0.00195      -2.19350      -0.78269      -0.73167
     7  C(13)             -0.00128      -1.43529      -0.51215      -0.47876
     8  H(1)               0.00029       1.31008       0.46747       0.43699

 Normal termination of Gaussian 16 at Tue Apr  8 22:57:43 2025.
