 Gaussian 16, Revision C.01,

 ----------------------------------------------------------------------
 #t hf aug-cc-pvdz symm=none int=(grid=ultrafine) guess=(read,tcheck) s
 table=(opt,rrhf)
 ----------------------------------------------------------------------
 -----
 title
 -----
 Symbolic Z-matrix:
 Charge =  0 Multiplicity = 1

 SCF Done:  E(RHF) =  -1914.90825605     A.U. after   13 cycles

 1\1\GINC-SE366\Stability\RHF\Aug-CC-pVDZ\C2H2Cl4\OHZDE\08-Apr-2025\0\\
 #t hf aug-cc-pvdz symm=none int=(grid=ultrafine) guess=(read,tcheck) s
 table=(opt,rrhf)\\title\\0,1\C,0,0.384828,0.,0.050867\C,0,-0.746769,0.
 ,1.08224\Cl,0,0.333729,-1.464008,-0.977773\Cl,0,1.924182,0.,0.997168\C
 l,0,0.333729,1.464008,-0.977773\Cl,0,-2.386506,0.,0.358893\H,0,-0.6578
 23,0.893206,1.696307\H,0,-0.657823,-0.893206,1.696307\\Version=ES64L-G
 16RevC.01\HF=-1914.908256\RMSD=3.589e-09\Dipole=0.1081339,0.,0.613001\
 Quadrupole=-2.6787233,0.5480165,2.1307068,0.,-0.0953152,0.\PG=Unknown\

 Normal termination of Gaussian 16 at Tue Apr  8 22:29:21 2025.
 Gaussian 16:  ES64L-G16RevC.01  3-Jul-2019

 ----------------------------------------------------------------------
 #t hf aug-cc-pvdz iop(5/13=1,5/36=2,99/5=2) pseudo=read geom=check gue
 ss=(read,tcheck) scf=(maxcycle=1)
 ----------------------------------------------------------------------
 -----
 title
 -----
 Structure from the checkpoint file:  "BDE49_expt_1013_mol1.chk"
 Charge =  0 Multiplicity = 1

                         Standard orientation:
 ---------------------------------------------------------------------
 Center     Atomic      Atomic             Coordinates (Angstroms)
 Number     Number       Type             X           Y           Z
 ---------------------------------------------------------------------
      1          6           0        0.267817    0.280988    0.000000
      2          6           0       -1.260416    0.374511   -0.000000
      3         17           0        0.873199   -0.552213    1.464008
      4         17           0        0.873199    1.983518    0.000000
      5         17           0        0.873199   -0.552213   -1.464008
      6         17           0       -2.083821   -1.217335   -0.000000
      7          1           0       -1.576294    0.908562   -0.893206
      8          1           0       -1.576294    0.908562    0.893206
 ---------------------------------------------------------------------

 SCF Done:  E(RHF) =  -1915.28897733     A.U. after    2 cycles

 The electronic state is 1-A'.
 Alpha  occ. eigenvalues -- -105.60498-105.60121-105.60121-105.58187 -11.46459
 Alpha  occ. eigenvalues --  -11.34980 -10.65303 -10.64950 -10.64941 -10.62989
 Alpha  occ. eigenvalues --   -7.82246  -7.81899  -7.81892  -7.81823  -7.81814
 Alpha  occ. eigenvalues --   -7.81461  -7.81458  -7.81455  -7.81454  -7.79939
 Alpha  occ. eigenvalues --   -7.79542  -7.79526  -1.23754  -1.11669  -1.07637
 Alpha  occ. eigenvalues --   -1.07571  -0.96526  -0.81268  -0.70012  -0.67763
 Alpha  occ. eigenvalues --   -0.65385  -0.60905  -0.57891  -0.51941  -0.51610
 Alpha  occ. eigenvalues --   -0.49780  -0.47998  -0.47871  -0.46991  -0.46616
 Alpha  occ. eigenvalues --   -0.46234
 Alpha virt. eigenvalues --    0.03962   0.05202   0.06786   0.07144   0.08716
 Alpha virt. eigenvalues --    0.09229   0.09507   0.12753   0.13309   0.13915
 Alpha virt. eigenvalues --    0.14181   0.16423   0.16575   0.16849   0.16991

 Mulliken charges:
               1
     1  C   -0.883465
     2  C   -0.073433
     3  Cl   0.116266
     4  Cl   0.133482
     5  Cl   0.116266
     6  Cl  -0.005395
     7  H    0.298139
     8  H    0.298139
 Sum of Mulliken charges =   0.00000

 Dipole moment (field-independent basis, Debye):
    X=             -0.7521    Y=              1.3864    Z=              0.0000  Tot=              1.5773

 Test job not archived.
 1\1\GINC-SE366\SP\RHF\Aug-CC-pVDZ\C2H2Cl4\OHZDE\08-Apr-2025\0\\#t hf a
 ug-cc-pvdz iop(5/13=1,5/36=2,99/5=2) pseudo=read geom=check guess=(rea
 d,tcheck) scf=(maxcycle=1)\\title\\0,1\C,0,0.384828,0.,0.050867\C,0,-0
 .746769,0.,1.08224\Cl,0,0.333729,-1.464008,-0.977773\Cl,0,1.924182,0.,
 0.997168\Cl,0,0.333729,1.464008,-0.977773\Cl,0,-2.386506,0.,0.358893\H
 ,0,-0.657823,0.893206,1.696307\H,0,-0.657823,-0.893206,1.696307\\Versi
 on=ES64L-G16RevC.01\State=1-A'\HF=-1915.2889773\RMSD=5.929e-03\Dipole=
 0.1116403,0.,0.6104227\Quadrupole=-2.6452951,0.5318913,2.1134038,0.,-0

 Normal termination of Gaussian 16 at Tue Apr  8 22:29:24 2025.
