 Gaussian 16, Revision C.01,

 ----------------------------------------------------------------------
 #t hf aug-cc-pvdz symm=none int=(grid=ultrafine) guess=(read,tcheck) s
 table=(opt,rrhf)
 ----------------------------------------------------------------------
 -----
 title
 -----
 Symbolic Z-matrix:
 Charge =  0 Multiplicity = 1

 SCF Done:  E(RHF) =  -878.330273878     A.U. after   16 cycles
 Normal termination of Gaussian 16 at Tue Apr  8 23:20:06 2025.
 Gaussian 16:  ES64L-G16RevC.01  3-Jul-2019

 ----------------------------------------------------------------------
 #t hf aug-cc-pvdz iop(5/13=1,5/36=2,99/5=2) pseudo=read geom=check gue
 ss=(read,tcheck) scf=(maxcycle=1)
 ----------------------------------------------------------------------
 -----
 title
 -----
 Structure from the checkpoint file:  "BDE49_nonexpt_1087_mol1.chk"
 Charge =  0 Multiplicity = 1

                         Standard orientation:
 ---------------------------------------------------------------------
 Center     Atomic      Atomic             Coordinates (Angstroms)
 Number     Number       Type             X           Y           Z
 ---------------------------------------------------------------------
      1         17           0       -3.440728   -0.204595   -0.616017
      2          8           0       -2.271655   -0.047408    0.833534
      3          6           0       -0.975631    0.052203    0.469369
      4          6           0       -0.178234   -1.095688    0.411734
      5          6           0        1.187565   -0.993499    0.183730
      6          6           0        1.762097    0.270189   -0.018339
      7          6           0       -0.398973    1.314713    0.244662
      8          1           0       -1.034866    2.191185    0.272065
      9          6           0        0.956661    1.423085    0.014515
     10          1           0        1.430519    2.383608   -0.144829
     11          1           0       -0.644769   -2.061085    0.565936
     12          8           0        3.077403    0.485853   -0.252963
     13          6           0        3.961483   -0.629949   -0.311668
     14          1           0        3.980679   -1.172629    0.638961
     15          1           0        4.946995   -0.213599   -0.510037
     16          1           0        3.685808   -1.313676   -1.120934
     17          1           0        1.792212   -1.889571    0.162539
 ---------------------------------------------------------------------

 SCF Done:  E(RHF) =  -878.826316256     A.U. after    2 cycles

 The electronic state is 1-A.
 Alpha  occ. eigenvalues -- -105.60611 -20.64041 -20.58702 -11.32693 -11.30780
 Alpha  occ. eigenvalues --  -11.30200 -11.26547 -11.26334 -11.25472 -11.25052
 Alpha  occ. eigenvalues --  -10.64799  -7.81732  -7.81244  -7.81227  -1.51329
 Alpha  occ. eigenvalues --   -1.48802  -1.16194  -1.04518  -1.03883  -1.00537
 Alpha  occ. eigenvalues --   -0.95058  -0.86745  -0.82558  -0.74470  -0.71197
 Alpha  occ. eigenvalues --   -0.70289  -0.66999  -0.64503  -0.62298  -0.61679
 Alpha  occ. eigenvalues --   -0.60607  -0.58828  -0.56515  -0.53989  -0.52926
 Alpha  occ. eigenvalues --   -0.50151  -0.47268  -0.46803  -0.44644  -0.36866
 Alpha  occ. eigenvalues --   -0.32179
 Alpha virt. eigenvalues --    0.02303   0.02960   0.03543   0.04173   0.04875
 Alpha virt. eigenvalues --    0.05488   0.05895   0.08426   0.09109   0.09408
 Alpha virt. eigenvalues --    0.10454   0.10961   0.12414   0.12971   0.13559

 Mulliken charges:
               1
     1  Cl   0.022156
     2  O   -1.531469
     3  C    1.192749
     4  C    0.137626
     5  C    0.274599
     6  C    1.757217
     7  C    0.329607
     8  H   -0.239874
     9  C    0.426201
    10  H   -0.272432
    11  H   -0.241345
    12  O   -1.868217
    13  C    0.105719
    14  H    0.179384
    15  H   -0.031115
    16  H    0.178886
    17  H   -0.419691
 Sum of Mulliken charges =  -0.00000

 Dipole moment (field-independent basis, Debye):
    X=              3.6128    Y=             -1.0051    Z=             -0.2512  Tot=              3.7584

 Test job not archived.
 1\1\GINC-SE402\SP\RHF\Aug-CC-pVDZ\C7H7Cl1O2\OHZDE\08-Apr-2025\0\\#t hf
  aug-cc-pvdz iop(5/13=1,5/36=2,99/5=2) pseudo=read geom=check guess=(r
 ead,tcheck) scf=(maxcycle=1)\\title\\0,1\Cl,0,3.440728,-0.204595,0.616
 017\O,0,2.271655,-0.047408,-0.833534\C,0,0.975631,0.052203,-0.469369\C
 ,0,0.178234,-1.095688,-0.411734\C,0,-1.187565,-0.993499,-0.18373\C,0,-
 1.762097,0.270189,0.018339\C,0,0.398973,1.314713,-0.244662\H,0,1.03486
 6,2.191185,-0.272065\C,0,-0.956661,1.423085,-0.014515\H,0,-1.430519,2.
 383608,0.144829\H,0,0.644769,-2.061085,-0.565936\O,0,-3.077403,0.48585

 Normal termination of Gaussian 16 at Tue Apr  8 23:20:15 2025.
