 Gaussian 16, Revision C.01,

 ----------------------------------------------------------------------
 #t hf aug-cc-pvdz symm=none int=(grid=ultrafine) guess=(read,tcheck) s
 table=(opt,rrhf)
 ----------------------------------------------------------------------
 -----
 title
 -----
 Symbolic Z-matrix:
 Charge =  0 Multiplicity = 1

 SCF Done:  E(RHF) =  -575.388401809     A.U. after   16 cycles
 Normal termination of Gaussian 16 at Wed Apr  9 00:55:25 2025.
 Gaussian 16:  ES64L-G16RevC.01  3-Jul-2019

 ----------------------------------------------------------------------
 #t hf aug-cc-pvdz iop(5/13=1,5/36=2,99/5=2) pseudo=read geom=check gue
 ss=(read,tcheck) scf=(maxcycle=1)
 ----------------------------------------------------------------------
 -----
 title
 -----
 Structure from the checkpoint file:  "BDE49_nonexpt_950_mol1.chk"
 Charge =  0 Multiplicity = 1

                         Standard orientation:
 ---------------------------------------------------------------------
 Center     Atomic      Atomic             Coordinates (Angstroms)
 Number     Number       Type             X           Y           Z
 ---------------------------------------------------------------------
      1          6           0        0.474965    2.225120    0.699671
      2          1           0        1.229780    2.962420    0.977338
      3          1           0       -0.196886    2.077215    1.549313
      4          1           0       -0.125687    2.627873   -0.119859
      5          9           0       -1.432803   -1.399249    1.114950
      6          8           0       -1.689056    1.071551   -1.289238
      7          7           0       -1.017351   -0.233404    0.422320
      8          6           0       -3.391280   -0.279613   -0.234632
      9          1           0       -4.064645    0.285590   -0.875804
     10          1           0       -3.686815   -0.179284    0.811029
     11          1           0       -3.444639   -1.341427   -0.486359
     12          6           0        0.385166   -0.258893    0.160578
     13          6           0       -1.993326    0.243274   -0.459575
     14          6           0        1.121297    0.929015    0.291862
     15          6           0        0.995185   -1.462196   -0.201118
     16          1           0        0.395418   -2.360474   -0.270441
     17          6           0        3.110307   -0.328635   -0.344447
     18          1           0        4.176585   -0.345722   -0.539075
     19          6           0        2.491348    0.863524    0.015320
     20          1           0        3.081597    1.769389    0.102094
     21          6           0        2.361205   -1.499365   -0.445199
     22          1           0        2.835222   -2.434310   -0.719877
 ---------------------------------------------------------------------

 SCF Done:  E(RHF) =  -575.962657792     A.U. after    2 cycles

 The electronic state is 1-A.
 Alpha  occ. eigenvalues --  -26.50043 -20.53853 -15.62369 -11.38625 -11.29171
 Alpha  occ. eigenvalues --  -11.26150 -11.25818 -11.25464 -11.25090 -11.24809
 Alpha  occ. eigenvalues --  -11.24590 -11.23168  -1.61277  -1.48670  -1.23511
 Alpha  occ. eigenvalues --   -1.15397  -1.05932  -1.05064  -1.00346  -0.94552
 Alpha  occ. eigenvalues --   -0.88043  -0.84045  -0.79362  -0.74963  -0.72327
 Alpha  occ. eigenvalues --   -0.71608  -0.68566  -0.65815  -0.64429  -0.62579
 Alpha  occ. eigenvalues --   -0.61529  -0.60964  -0.59257  -0.58667  -0.58130
 Alpha  occ. eigenvalues --   -0.56119  -0.55335  -0.52055  -0.51376  -0.50543
 Alpha  occ. eigenvalues --   -0.45916  -0.44534  -0.35176  -0.34313
 Alpha virt. eigenvalues --    0.03388   0.03553   0.03802   0.04506   0.04737
 Alpha virt. eigenvalues --    0.05471   0.06673   0.07005   0.07325   0.08520
 Alpha virt. eigenvalues --    0.08932   0.10177   0.10521   0.10645   0.11743

 Mulliken charges:
               1
     1  C   -0.813710
     2  H   -0.016151
     3  H    0.303851
     4  H    0.337722
     5  F   -0.778793
     6  O   -1.267661
     7  N    1.761317
     8  C   -0.531210
     9  H    0.161418
    10  H    0.271432
    11  H    0.293429
    12  C   -1.656806
    13  C    0.994141
    14  C    0.701949
    15  C    0.443712
    16  H   -0.306712
    17  C   -0.070338
    18  H   -0.238727
    19  C    0.868191
    20  H   -0.286909
    21  C    0.047288
    22  H   -0.217432
 Sum of Mulliken charges =   0.00000

 Dipole moment (field-independent basis, Debye):
    X=              0.0103    Y=             -1.0089    Z=              0.7276  Tot=              1.2439

 Test job not archived.
 1\1\GINC-SE128\SP\RHF\Aug-CC-pVDZ\C9H10F1N1O1\OHZDE\09-Apr-2025\0\\#t
 hf aug-cc-pvdz iop(5/13=1,5/36=2,99/5=2) pseudo=read geom=check guess=
 (read,tcheck) scf=(maxcycle=1)\\title\\0,1\C,0,0.474965,2.22512,0.6996
 71\H,0,1.22978,2.96242,0.977338\H,0,-0.196886,2.077215,1.549313\H,0,-0
 .125687,2.627873,-0.119859\F,0,-1.432803,-1.399249,1.11495\O,0,-1.6890
 56,1.071551,-1.289238\N,0,-1.017351,-0.233404,0.42232\C,0,-3.39128,-0.
 279613,-0.234632\H,0,-4.064645,0.28559,-0.875804\H,0,-3.686815,-0.1792
 84,0.811029\H,0,-3.444639,-1.341427,-0.486359\C,0,0.385166,-0.258893,0

 Normal termination of Gaussian 16 at Wed Apr  9 00:55:41 2025.
