 Gaussian 16, Revision C.01,

 ----------------------------------------------------------------------
 #t hf aug-cc-pvdz symm=none int=(grid=ultrafine) guess=(read,tcheck) s
 table=(opt,rrhf)
 ----------------------------------------------------------------------
 -----
 title
 -----
 Symbolic Z-matrix:
 Charge =  0 Multiplicity = 1

 SCF Done:  E(RHF) =  -971.480369167     A.U. after   14 cycles
 Normal termination of Gaussian 16 at Wed Apr  9 00:19:56 2025.
 Gaussian 16:  ES64L-G16RevC.01  3-Jul-2019

 ----------------------------------------------------------------------
 #t hf aug-cc-pvdz iop(5/13=1,5/36=2,99/5=2) pseudo=read geom=check gue
 ss=(read,tcheck) scf=(maxcycle=1)
 ----------------------------------------------------------------------
 -----
 title
 -----
 Structure from the checkpoint file:  "BDE49_nonexpt_2606_mol1.chk"
 Charge =  0 Multiplicity = 1

                         Standard orientation:
 ---------------------------------------------------------------------
 Center     Atomic      Atomic             Coordinates (Angstroms)
 Number     Number       Type             X           Y           Z
 ---------------------------------------------------------------------
      1         16           0       -0.057569    0.911860    0.158492
      2         17           0       -1.596337   -0.506319   -0.034448
      3          8           0        1.234364    0.208081   -0.558851
      4          6           0        1.958579   -0.769770    0.222322
      5          1           0        2.864898   -0.979693   -0.344468
      6          1           0        1.362295   -1.678918    0.323190
      7          1           0        2.205244   -0.369747    1.207905
 ---------------------------------------------------------------------

 SCF Done:  E(RHF) =  -971.732435783     A.U. after    2 cycles

 The electronic state is 1-A.
 Alpha  occ. eigenvalues -- -105.58448 -94.06403 -20.61262 -11.31158 -10.63175
 Alpha  occ. eigenvalues --   -8.33450  -7.80099  -7.79681  -7.79636  -6.31228
 Alpha  occ. eigenvalues --   -6.31018  -6.30631  -1.50976  -1.10369  -0.98931
 Alpha  occ. eigenvalues --   -0.88600  -0.67618  -0.66882  -0.65820  -0.56026
 Alpha  occ. eigenvalues --   -0.54071  -0.51028  -0.47613  -0.46591  -0.37722
 Alpha virt. eigenvalues --    0.03485   0.04333   0.05379   0.06638   0.08045
 Alpha virt. eigenvalues --    0.08803   0.12182   0.12672   0.13725   0.14645
 Alpha virt. eigenvalues --    0.15308   0.16142   0.17625   0.18147   0.19809

 Mulliken charges:
               1
     1  S    0.860123
     2  Cl  -0.298403
     3  O   -1.181866
     4  C    0.268778
     5  H    0.036395
     6  H    0.154994
     7  H    0.159979
 Sum of Mulliken charges =   0.00000

 Dipole moment (field-independent basis, Debye):
    X=              2.0783    Y=             -0.5657    Z=              0.9847  Tot=              2.3683

 Test job not archived.
 1\1\GINC-SE058\SP\RHF\Aug-CC-pVDZ\C1H3Cl1O1S1\OHZDE\09-Apr-2025\0\\#t
 hf aug-cc-pvdz iop(5/13=1,5/36=2,99/5=2) pseudo=read geom=check guess=
 (read,tcheck) scf=(maxcycle=1)\\title\\0,1\S,0,-0.057569,0.91186,0.158
 492\Cl,0,-1.596337,-0.506319,-0.034448\O,0,1.234364,0.208081,-0.558851
 \C,0,1.958579,-0.76977,0.222322\H,0,2.864898,-0.979693,-0.344468\H,0,1
 .362295,-1.678918,0.32319\H,0,2.205244,-0.369747,1.207905\\Version=ES6
 4L-G16RevC.01\State=1-A\HF=-971.7324358\RMSD=5.347e-03\Dipole=0.817670
 6,-0.2225527,0.3874246\Quadrupole=1.5592681,0.5446102,-2.1038783,-1.43

 Normal termination of Gaussian 16 at Wed Apr  9 00:19:59 2025.
