 Gaussian 16, Revision C.01,

 ----------------------------------------------------------------------
 #t hf aug-cc-pvdz symm=none int=(grid=ultrafine) guess=(read,tcheck) s
 table=(opt,rrhf)
 ----------------------------------------------------------------------
 -----
 title
 -----
 Symbolic Z-matrix:
 Charge =  0 Multiplicity = 1

 SCF Done:  E(RHF) =  -1013.76294951     A.U. after   14 cycles
 Normal termination of Gaussian 16 at Wed Apr  9 00:16:59 2025.
 Gaussian 16:  ES64L-G16RevC.01  3-Jul-2019

 ----------------------------------------------------------------------
 #t hf aug-cc-pvdz iop(5/13=1,5/36=2,99/5=2) pseudo=read geom=check gue
 ss=(read,tcheck) scf=(maxcycle=1)
 ----------------------------------------------------------------------
 -----
 title
 -----
 Structure from the checkpoint file:  "BDE49_nonexpt_2545_mol1.chk"
 Charge =  0 Multiplicity = 1

                         Standard orientation:
 ---------------------------------------------------------------------
 Center     Atomic      Atomic             Coordinates (Angstroms)
 Number     Number       Type             X           Y           Z
 ---------------------------------------------------------------------
      1         17           0        1.860863   -0.535431   -0.615537
      2         16           0        0.668289   -0.142459    1.050903
      3          6           0       -0.763862    0.743870    0.307271
      4          6           0       -1.599575   -0.114795   -0.652671
      5          6           0       -0.365385    2.092975   -0.291345
      6          1           0        0.265159    1.955169   -1.172673
      7          1           0        0.184086    2.700216    0.429486
      8          1           0       -1.259591    2.642872   -0.600516
      9          1           0       -1.339415    0.911941    1.230738
     10          6           0       -2.215860   -1.371154   -0.036483
     11          1           0       -0.978157   -0.382851   -1.513228
     12          1           0       -2.396956    0.529066   -1.042810
     13          1           0       -1.446702   -2.057875    0.321972
     14          1           0       -2.823935   -1.900949   -0.773832
     15          1           0       -2.863686   -1.121284    0.809910
 ---------------------------------------------------------------------

 SCF Done:  E(RHF) =  -1014.07554771     A.U. after    2 cycles

 The electronic state is 1-A.
 Alpha  occ. eigenvalues -- -105.57644 -94.00010 -11.29230 -11.24503 -11.24088
 Alpha  occ. eigenvalues --  -11.23006 -10.62332  -8.27696  -7.79270  -7.78848
 Alpha  occ. eigenvalues --   -7.78812  -6.25522  -6.25234  -6.24986  -1.14179
 Alpha  occ. eigenvalues --   -1.07143  -1.00499  -0.93407  -0.87206  -0.78219
 Alpha  occ. eigenvalues --   -0.65461  -0.62085  -0.61350  -0.58970  -0.55485
 Alpha  occ. eigenvalues --   -0.52657  -0.52464  -0.50880  -0.49653  -0.49236
 Alpha  occ. eigenvalues --   -0.48829  -0.43391  -0.36400
 Alpha virt. eigenvalues --    0.03310   0.03612   0.03856   0.05111   0.05935
 Alpha virt. eigenvalues --    0.06381   0.06801   0.07059   0.07873   0.09594
 Alpha virt. eigenvalues --    0.10278   0.12039   0.13238   0.14039   0.14617

 Mulliken charges:
               1
     1  Cl  -0.356073
     2  S    0.289230
     3  C   -0.503627
     4  C   -0.305322
     5  C   -0.327968
     6  H    0.223445
     7  H    0.151779
     8  H    0.165814
     9  H    0.255050
    10  C   -0.399157
    11  H    0.140361
    12  H    0.169554
    13  H    0.213185
    14  H    0.123743
    15  H    0.159988
 Sum of Mulliken charges =   0.00000

 Dipole moment (field-independent basis, Debye):
    X=             -2.4551    Y=              1.1965    Z=             -0.0200  Tot=              2.7313

 Test job not archived.
 1\1\GINC-SE403\SP\RHF\Aug-CC-pVDZ\C4H9Cl1S1\OHZDE\09-Apr-2025\0\\#t hf
  aug-cc-pvdz iop(5/13=1,5/36=2,99/5=2) pseudo=read geom=check guess=(r
 ead,tcheck) scf=(maxcycle=1)\\title\\0,1\Cl,0,1.860863,-0.535431,-0.61
 5537\S,0,0.668289,-0.142459,1.050903\C,0,-0.763862,0.74387,0.307271\C,
 0,-1.599575,-0.114795,-0.652671\C,0,-0.365385,2.092975,-0.291345\H,0,0
 .265159,1.955169,-1.172673\H,0,0.184086,2.700216,0.429486\H,0,-1.25959
 1,2.642872,-0.600516\H,0,-1.339415,0.911941,1.230738\C,0,-2.21586,-1.3
 71154,-0.036483\H,0,-0.978157,-0.382851,-1.513228\H,0,-2.396956,0.5290

 Normal termination of Gaussian 16 at Wed Apr  9 00:17:05 2025.
