 Gaussian 16, Revision C.01,

 ----------------------------------------------------------------------
 #t hf aug-cc-pvdz symm=none int=(grid=ultrafine) guess=(read,tcheck) s
 table=(opt,rrhf)
 ----------------------------------------------------------------------
 -----
 title
 -----
 Symbolic Z-matrix:
 Charge =  0 Multiplicity = 1

 SCF Done:  E(RHF) =  -369.881363546     A.U. after   16 cycles
 Normal termination of Gaussian 16 at Wed Apr  9 00:37:32 2025.
 Gaussian 16:  ES64L-G16RevC.01  3-Jul-2019

 ----------------------------------------------------------------------
 #t hf aug-cc-pvdz iop(5/13=1,5/36=2,99/5=2) pseudo=read geom=check gue
 ss=(read,tcheck) scf=(maxcycle=1)
 ----------------------------------------------------------------------
 -----
 title
 -----
 Structure from the checkpoint file:  "BDE49_nonexpt_527_mol1.chk"
 Charge =  0 Multiplicity = 1

                         Standard orientation:
 ---------------------------------------------------------------------
 Center     Atomic      Atomic             Coordinates (Angstroms)
 Number     Number       Type             X           Y           Z
 ---------------------------------------------------------------------
      1          1           0       -0.923765    2.946047    0.000016
      2          1           0        1.097293    3.315925    0.000008
      3          5           0        0.191925    2.536407   -0.000003
      4          6           0        0.525684    1.039621   -0.000004
      5          6           0       -0.461030    0.013361   -0.000000
      6          6           0       -0.088373   -1.335532    0.000001
      7          1           0       -0.833088   -2.119435    0.000003
      8          6           0        1.261675   -1.680644   -0.000001
      9          6           0        1.875279    0.632017   -0.000006
     10          1           0        2.635671    1.405538   -0.000009
     11          6           0        2.254901   -0.703992   -0.000005
     12          1           0        3.301458   -0.983946   -0.000007
     13          1           0        1.533994   -2.730871   -0.000000
     14          8           0       -1.752874    0.419693    0.000001
     15          6           0       -2.789627   -0.551470    0.000009
     16          1           0       -3.720541    0.012719    0.000013
     17          1           0       -2.749348   -1.182865    0.894381
     18          1           0       -2.749358   -1.182870   -0.894359
 ---------------------------------------------------------------------

 SCF Done:  E(RHF) =  -370.262001023     A.U. after    2 cycles

 The electronic state is 1-A.
 Alpha  occ. eigenvalues --  -20.57662 -11.32055 -11.29977 -11.26254 -11.25536
 Alpha  occ. eigenvalues --  -11.24032 -11.23464 -11.21357  -7.58141  -1.50447
 Alpha  occ. eigenvalues --   -1.15200  -1.02896  -1.02120  -0.95122  -0.85101
 Alpha  occ. eigenvalues --   -0.82024  -0.74341  -0.69666  -0.68140  -0.66099
 Alpha  occ. eigenvalues --   -0.65003  -0.62872  -0.59149  -0.56672  -0.53600
 Alpha  occ. eigenvalues --   -0.52718  -0.51621  -0.47366  -0.47198  -0.46365
 Alpha  occ. eigenvalues --   -0.35764  -0.32330
 Alpha virt. eigenvalues --    0.03076   0.03363   0.03854   0.04078   0.04897
 Alpha virt. eigenvalues --    0.05302   0.05416   0.06949   0.07024   0.07309
 Alpha virt. eigenvalues --    0.08473   0.09787   0.11299   0.11639   0.12651

 Mulliken charges:
               1
     1  H    0.402362
     2  H    0.236818
     3  B   -1.150836
     4  C   -0.569996
     5  C    2.358541
     6  C   -0.316389
     7  H   -0.438984
     8  C    0.532724
     9  C    1.071093
    10  H   -0.272449
    11  C   -0.057397
    12  H   -0.217492
    13  H   -0.228754
    14  O   -1.870428
    15  C    0.163078
    16  H   -0.036055
    17  H    0.197084
    18  H    0.197082
 Sum of Mulliken charges =   0.00000

 Dipole moment (field-independent basis, Debye):
    X=             -0.7087    Y=             -2.5553    Z=             -0.0000  Tot=              2.6518

 Test job not archived.
 1\1\GINC-SE058\SP\RHF\Aug-CC-pVDZ\C7H9B1O1\OHZDE\09-Apr-2025\0\\#t hf
 aug-cc-pvdz iop(5/13=1,5/36=2,99/5=2) pseudo=read geom=check guess=(re
 ad,tcheck) scf=(maxcycle=1)\\title\\0,1\H,0,-0.923765,2.946047,0.00001
 6\H,0,1.097293,3.315925,0.000008\B,0,0.191925,2.536407,-0.000003\C,0,0
 .525684,1.039621,-0.000004\C,0,-0.46103,0.013361,0.\C,0,-0.088373,-1.3
 35532,0.000001\H,0,-0.833088,-2.119435,0.000003\C,0,1.261675,-1.680644
 ,-0.000001\C,0,1.875279,0.632017,-0.000006\H,0,2.635671,1.405538,-0.00
 0009\C,0,2.254901,-0.703992,-0.000005\H,0,3.301458,-0.983946,-0.000007

 Normal termination of Gaussian 16 at Wed Apr  9 00:37:41 2025.
