 Gaussian 16, Revision C.01,

 ----------------------------------------------------------------------
 #t hf aug-cc-pvdz symm=none int=(grid=ultrafine) guess=(read,tcheck) s
 table=(opt,rrhf)
 ----------------------------------------------------------------------
 -----
 title
 -----
 Symbolic Z-matrix:
 Charge =  0 Multiplicity = 1

 SCF Done:  E(RHF) =  -1168.59352890     A.U. after   16 cycles
 Normal termination of Gaussian 16 at Tue Apr  8 23:11:31 2025.
 Gaussian 16:  ES64L-G16RevC.01  3-Jul-2019

 ----------------------------------------------------------------------
 #t hf aug-cc-pvdz iop(5/13=1,5/36=2,99/5=2) pseudo=read geom=check gue
 ss=(read,tcheck) scf=(maxcycle=1)
 ----------------------------------------------------------------------
 -----
 title
 -----
 Structure from the checkpoint file:  "BDE49_expt_473_mol1.chk"
 Charge =  0 Multiplicity = 1

                         Standard orientation:
 ---------------------------------------------------------------------
 Center     Atomic      Atomic             Coordinates (Angstroms)
 Number     Number       Type             X           Y           Z
 ---------------------------------------------------------------------
      1          6           0       -2.331510    1.795377   -0.407094
      2          6           0       -3.205925    0.716330   -0.438945
      3          6           0       -2.785925   -0.573067   -0.064861
      4          6           0       -1.006752    1.633007   -0.008683
      5          6           0       -0.598456    0.351011    0.354052
      6          6           0       -1.453005   -0.746736    0.335737
      7          1           0       -2.689293    2.777886   -0.691881
      8          1           0       -4.232907    0.866335   -0.755657
      9          7           0       -3.649833   -1.654168   -0.140980
     10          1           0       -4.635772   -1.445149   -0.109821
     11          1           0       -3.399997   -2.468190    0.399337
     12         16           0        1.083243    0.099519    0.879126
     13          1           0       -0.317755    2.464364    0.038480
     14          6           0        1.955724   -0.270692   -0.745723
     15          1           0       -1.087642   -1.718068    0.645169
     16          8           0        1.174053   -1.121877    1.643682
     17          8           0        1.641015    1.349727    1.334443
     18          9           0        3.245375   -0.487603   -0.494820
     19          9           0        1.837659    0.762089   -1.584222
     20          9           0        1.429727   -1.357205   -1.318367
 ---------------------------------------------------------------------

 SCF Done:  E(RHF) =  -1169.39745428     A.U. after    2 cycles

 The electronic state is 1-A.
 Alpha  occ. eigenvalues --  -94.22258 -26.53461 -26.53447 -26.53251 -20.56229
 Alpha  occ. eigenvalues --  -20.56189 -15.53528 -11.55543 -11.31980 -11.30343
 Alpha  occ. eigenvalues --  -11.27763 -11.27683 -11.27377 -11.27321  -8.47542
 Alpha  occ. eigenvalues --   -6.45651  -6.45412  -6.45350  -1.74489  -1.64303
 Alpha  occ. eigenvalues --   -1.64273  -1.58125  -1.46494  -1.25702  -1.17914
 Alpha  occ. eigenvalues --   -1.08522  -1.03818  -1.02060  -0.93974  -0.87954
 Alpha  occ. eigenvalues --   -0.87289  -0.83746  -0.83716  -0.81419  -0.75984
 Alpha  occ. eigenvalues --   -0.75196  -0.71318  -0.71158  -0.70880  -0.68578
 Alpha  occ. eigenvalues --   -0.67431  -0.66581  -0.66293  -0.66176  -0.64690
 Alpha  occ. eigenvalues --   -0.64476  -0.64179  -0.59026  -0.57243  -0.55509
 Alpha  occ. eigenvalues --   -0.52014  -0.51784  -0.50502  -0.48891  -0.45967
 Alpha  occ. eigenvalues --   -0.39217  -0.34430
 Alpha virt. eigenvalues --    0.01990   0.03098   0.04112   0.04936   0.05414
 Alpha virt. eigenvalues --    0.06261   0.07963   0.08405   0.08682   0.09255
 Alpha virt. eigenvalues --    0.10027   0.11162   0.11568   0.11982   0.12788

 Mulliken charges:
               1
     1  C    0.395451
     2  C    0.645426
     3  C   -1.298332
     4  C   -0.429616
     5  C    0.289687
     6  C    0.090047
     7  H   -0.225867
     8  H   -0.280232
     9  N    0.791171
    10  H    0.020972
    11  H    0.022499
    12  S    4.328590
    13  H   -0.289784
    14  C    2.011983
    15  H   -0.303985
    16  O   -1.743686
    17  O   -1.720714
    18  F   -0.747686
    19  F   -0.775585
    20  F   -0.780339
 Sum of Mulliken charges =  -0.00000

 Dipole moment (field-independent basis, Debye):
    X=             -5.9430    Y=             -0.1032    Z=             -1.7205  Tot=              6.1879

 Test job not archived.
 1\1\GINC-SE334\SP\RHF\Aug-CC-pVDZ\C7H6F3N1O2S1\OHZDE\08-Apr-2025\0\\#t
  hf aug-cc-pvdz iop(5/13=1,5/36=2,99/5=2) pseudo=read geom=check guess
 =(read,tcheck) scf=(maxcycle=1)\\title\\0,1\C,0,-2.33151,1.795377,-0.4
 07094\C,0,-3.205925,0.71633,-0.438945\C,0,-2.785925,-0.573067,-0.06486
 1\C,0,-1.006752,1.633007,-0.008683\C,0,-0.598456,0.351011,0.354052\C,0
 ,-1.453005,-0.746736,0.335737\H,0,-2.689293,2.777886,-0.691881\H,0,-4.
 232907,0.866335,-0.755657\N,0,-3.649833,-1.654168,-0.14098\H,0,-4.6357
 72,-1.445149,-0.109821\H,0,-3.399997,-2.46819,0.399337\S,0,1.083243,0.

 Normal termination of Gaussian 16 at Tue Apr  8 23:11:48 2025.
