 Gaussian 16, Revision C.01,

 ----------------------------------------------------------------------
 #t hf aug-cc-pvdz symm=none int=(grid=ultrafine) guess=(read,tcheck) s
 table=(opt,rrhf)
 ----------------------------------------------------------------------
 -----
 title
 -----
 Symbolic Z-matrix:
 Charge =  0 Multiplicity = 1

 SCF Done:  E(RHF) =  -293.417711672     A.U. after   13 cycles
 Normal termination of Gaussian 16 at Wed Apr  9 00:27:02 2025.
 Gaussian 16:  ES64L-G16RevC.01  3-Jul-2019

 ----------------------------------------------------------------------
 #t hf aug-cc-pvdz iop(5/13=1,5/36=2,99/5=2) pseudo=read geom=check gue
 ss=(read,tcheck) scf=(maxcycle=1)
 ----------------------------------------------------------------------
 -----
 title
 -----
 Structure from the checkpoint file:  "BDE49_nonexpt_276_mol1.chk"
 Charge =  0 Multiplicity = 1

                         Standard orientation:
 ---------------------------------------------------------------------
 Center     Atomic      Atomic             Coordinates (Angstroms)
 Number     Number       Type             X           Y           Z
 ---------------------------------------------------------------------
      1          6           0        0.716690   -0.154084   -0.385317
      2          5           0       -0.826102    0.052953   -0.079087
      3          8           0       -1.375612    1.219134    0.393766
      4          8           0       -1.677905   -0.993125   -0.294102
      5          6           0        1.285500   -1.330503    0.437646
      6          1           0        0.698637   -2.238267    0.284405
      7          1           0        1.274935   -1.105571    1.509850
      8          6           0        1.567294    1.114297   -0.203626
      9          1           0        0.773474   -0.447932   -1.443149
     10          1           0        1.557512    1.458120    0.838245
     11          1           0        1.217177    1.938893   -0.834196
     12          1           0        2.614656    0.934362   -0.464490
     13          1           0        2.322653   -1.542901    0.158177
     14          1           0       -0.729728    1.916796    0.531386
     15          1           0       -2.587574   -0.764584   -0.074323
 ---------------------------------------------------------------------

 SCF Done:  E(RHF) =  -293.726487353     A.U. after    2 cycles

 The electronic state is 1-A.
 Alpha  occ. eigenvalues --  -20.55630 -20.54681 -11.23158 -11.22313 -11.21417
 Alpha  occ. eigenvalues --   -7.62781  -1.47640  -1.43236  -1.05847  -0.93152
 Alpha  occ. eigenvalues --   -0.82222  -0.75557  -0.71751  -0.64943  -0.61223
 Alpha  occ. eigenvalues --   -0.57699  -0.56259  -0.55343  -0.54904  -0.53794
 Alpha  occ. eigenvalues --   -0.49112  -0.48489  -0.47668  -0.44287
 Alpha virt. eigenvalues --    0.03317   0.03940   0.04051   0.04303   0.06267
 Alpha virt. eigenvalues --    0.06654   0.07184   0.07271   0.07388   0.09513
 Alpha virt. eigenvalues --    0.10121   0.10998   0.11948   0.14100   0.15386

 Mulliken charges:
               1
     1  C   -0.631437
     2  B    1.929774
     3  O   -1.300712
     4  O   -1.322531
     5  C   -0.247233
     6  H    0.102523
     7  H    0.132230
     8  C   -0.358876
     9  H    0.166833
    10  H    0.167064
    11  H    0.073640
    12  H    0.064851
    13  H    0.135640
    14  H    0.593513
    15  H    0.494720
 Sum of Mulliken charges =  -0.00000

 Dipole moment (field-independent basis, Debye):
    X=              0.6125    Y=              1.1833    Z=              0.2195  Tot=              1.3504

 Test job not archived.
 1\1\GINC-SE329\SP\RHF\Aug-CC-pVDZ\C3H9B1O2\OHZDE\09-Apr-2025\0\\#t hf
 aug-cc-pvdz iop(5/13=1,5/36=2,99/5=2) pseudo=read geom=check guess=(re
 ad,tcheck) scf=(maxcycle=1)\\title\\0,1\C,0,0.71669,-0.154084,-0.38531
 7\B,0,-0.826102,0.052953,-0.079087\O,0,-1.375612,1.219134,0.393766\O,0
 ,-1.677905,-0.993125,-0.294102\C,0,1.2855,-1.330503,0.437646\H,0,0.698
 637,-2.238267,0.284405\H,0,1.274935,-1.105571,1.50985\C,0,1.567294,1.1
 14297,-0.203626\H,0,0.773474,-0.447932,-1.443149\H,0,1.557512,1.45812,
 0.838245\H,0,1.217177,1.938893,-0.834196\H,0,2.614656,0.934362,-0.4644

 Normal termination of Gaussian 16 at Wed Apr  9 00:27:06 2025.
