 Gaussian 16, Revision C.01,

 ----------------------------------------------------------------------
 #t hf aug-cc-pvdz symm=none int=(grid=ultrafine) guess=(read,tcheck) s
 table=(opt,rrhf)
 ----------------------------------------------------------------------
 -----
 title
 -----
 Symbolic Z-matrix:
 Charge =  0 Multiplicity = 1

 SCF Done:  E(RHF) =  -1130.65880396     A.U. after   15 cycles
 Normal termination of Gaussian 16 at Wed Apr  9 00:12:58 2025.
 Gaussian 16:  ES64L-G16RevC.01  3-Jul-2019

 ----------------------------------------------------------------------
 #t hf aug-cc-pvdz iop(5/13=1,5/36=2,99/5=2) pseudo=read geom=check gue
 ss=(read,tcheck) scf=(maxcycle=1)
 ----------------------------------------------------------------------
 -----
 title
 -----
 Structure from the checkpoint file:  "BDE49_nonexpt_2436_mol1.chk"
 Charge =  0 Multiplicity = 1

                         Standard orientation:
 ---------------------------------------------------------------------
 Center     Atomic      Atomic             Coordinates (Angstroms)
 Number     Number       Type             X           Y           Z
 ---------------------------------------------------------------------
      1         14           0        2.815896    0.428512   -0.538906
      2         14           0        1.136776   -0.820509    0.546780
      3          6           0       -0.518688    0.166684    0.435637
      4          1           0        1.433603   -0.968684    1.990187
      5          1           0        0.960839   -2.158176   -0.065940
      6          8           0       -0.613249    1.277282    0.903958
      7         16           0       -1.869840   -0.672534   -0.418838
      8          1           0        2.434004    0.661483   -1.951361
      9          1           0        4.091551   -0.326263   -0.503765
     10          1           0        3.000235    1.729649    0.141990
     11          6           0       -3.176920    0.594236   -0.326052
     12          1           0       -3.477228    0.878995   -1.333307
     13          1           0       -2.754798    1.451688    0.200809
     14          1           0       -4.028538    0.196017    0.223388
 ---------------------------------------------------------------------

 SCF Done:  E(RHF) =  -1130.94052322     A.U. after    2 cycles

 The electronic state is 1-A.
 Alpha  occ. eigenvalues --  -93.96570 -69.54744 -69.53696 -20.55905 -11.36556
 Alpha  occ. eigenvalues --  -11.27025  -8.24786  -6.22591  -6.22414  -6.22247
 Alpha  occ. eigenvalues --   -6.21962  -6.20896  -3.97312  -3.97276  -3.97266
 Alpha  occ. eigenvalues --   -3.96253  -3.96246  -3.96241  -1.49226  -1.08524
 Alpha  occ. eigenvalues --   -0.93283  -0.82014  -0.75343  -0.70133  -0.65256
 Alpha  occ. eigenvalues --   -0.61046  -0.60711  -0.56618  -0.56021  -0.51570
 Alpha  occ. eigenvalues --   -0.50009  -0.48943  -0.47617  -0.42889  -0.38566
 Alpha  occ. eigenvalues --   -0.37749
 Alpha virt. eigenvalues --    0.03647   0.03770   0.04095   0.05291   0.05730
 Alpha virt. eigenvalues --    0.06336   0.06648   0.07304   0.07799   0.08381
 Alpha virt. eigenvalues --    0.08642   0.09127   0.09635   0.10185   0.10611

 Mulliken charges:
               1
     1  Si   0.309012
     2  Si   0.761444
     3  C    0.307020
     4  H   -0.130720
     5  H   -0.146524
     6  O   -1.082683
     7  S    0.396608
     8  H   -0.095841
     9  H   -0.132062
    10  H   -0.088860
    11  C   -0.703236
    12  H    0.226949
    13  H    0.158573
    14  H    0.220322
 Sum of Mulliken charges =  -0.00000

 Dipole moment (field-independent basis, Debye):
    X=             -0.1363    Y=             -0.6614    Z=             -0.6216  Tot=              0.9179

 Test job not archived.
 1\1\GINC-SE459\SP\RHF\Aug-CC-pVDZ\C2H8O1S1Si2\OHZDE\09-Apr-2025\0\\#t
 hf aug-cc-pvdz iop(5/13=1,5/36=2,99/5=2) pseudo=read geom=check guess=
 (read,tcheck) scf=(maxcycle=1)\\title\\0,1\Si,0,2.815896,0.428512,-0.5
 38906\Si,0,1.136776,-0.820509,0.54678\C,0,-0.518688,0.166684,0.435637\
 H,0,1.433603,-0.968684,1.990187\H,0,0.960839,-2.158176,-0.06594\O,0,-0
 .613249,1.277282,0.903958\S,0,-1.86984,-0.672534,-0.418838\H,0,2.43400
 4,0.661483,-1.951361\H,0,4.091551,-0.326263,-0.503765\H,0,3.000235,1.7
 29649,0.14199\C,0,-3.17692,0.594236,-0.326052\H,0,-3.477228,0.878995,-

 Normal termination of Gaussian 16 at Wed Apr  9 00:13:03 2025.
