 Gaussian 16, Revision C.01,

 ----------------------------------------------------------------------
 #t hf aug-cc-pvdz symm=none int=(grid=ultrafine) guess=(read,tcheck) s
 table=(opt,rrhf)
 ----------------------------------------------------------------------
 -----
 title
 -----
 Symbolic Z-matrix:
 Charge =  0 Multiplicity = 1

 SCF Done:  E(RHF) =  -882.864395689     A.U. after   12 cycles
 Normal termination of Gaussian 16 at Wed Apr  9 00:15:25 2025.
 Gaussian 16:  ES64L-G16RevC.01  3-Jul-2019

 ----------------------------------------------------------------------
 #t hf aug-cc-pvdz iop(5/13=1,5/36=2,99/5=2) pseudo=read geom=check gue
 ss=(read,tcheck) scf=(maxcycle=1)
 ----------------------------------------------------------------------
 -----
 title
 -----
 Structure from the checkpoint file:  "BDE49_nonexpt_2484_mol1.chk"
 Charge =  0 Multiplicity = 1

                         Standard orientation:
 ---------------------------------------------------------------------
 Center     Atomic      Atomic             Coordinates (Angstroms)
 Number     Number       Type             X           Y           Z
 ---------------------------------------------------------------------
      1          6           0        1.418583   -1.320478   -0.478235
      2          6           0        0.400922   -1.465265    0.677776
      3          6           0        2.260269   -0.033270   -0.411489
      4          1           0        0.889568   -1.347884   -1.438198
      5          1           0        2.089948   -2.186129   -0.477889
      6         14           0       -0.697504    0.053780    0.835831
      7          1           0        0.940504   -1.571522    1.628285
      8          1           0       -0.193179   -2.376856    0.561595
      9          6           0        1.452801    1.267691   -0.570283
     10          1           0        3.021765   -0.071970   -1.197444
     11          1           0        2.806636   -0.006876    0.541129
     12          6           0        0.450096    1.523390    0.577442
     13          1           0        0.912792    1.236476   -1.523900
     14          1           0        2.146924    2.112307   -0.640661
     15          1           0        0.996884    1.673657    1.518896
     16          1           0       -0.113478    2.445174    0.401498
     17         16           0       -2.213338   -0.104276   -0.724120
     18          1           0       -2.837618    1.045558   -0.411923
     19          1           0       -1.378314    0.131150    2.151639
 ---------------------------------------------------------------------

 SCF Done:  E(RHF) =  -883.176711457     A.U. after    2 cycles

 The electronic state is 1-A.
 Alpha  occ. eigenvalues --  -93.93516 -69.54075 -11.23539 -11.23427 -11.23052
 Alpha  occ. eigenvalues --  -11.22089 -11.22056  -8.21764  -6.20976  -6.19595
 Alpha  occ. eigenvalues --   -6.19473  -6.19266  -3.96350  -3.96252  -3.96229
 Alpha  occ. eigenvalues --   -1.09400  -1.00759  -0.99735  -0.93601  -0.83442
 Alpha  occ. eigenvalues --   -0.78569  -0.68818  -0.63916  -0.60962  -0.60667
 Alpha  occ. eigenvalues --   -0.57410  -0.54886  -0.53982  -0.51188  -0.50090
 Alpha  occ. eigenvalues --   -0.49177  -0.47494  -0.44717  -0.43101  -0.41528
 Alpha  occ. eigenvalues --   -0.36996
 Alpha virt. eigenvalues --    0.03225   0.03546   0.03702   0.04059   0.05657
 Alpha virt. eigenvalues --    0.05876   0.06110   0.06592   0.06683   0.08848
 Alpha virt. eigenvalues --    0.09011   0.09262   0.09648   0.10537   0.11655

 Mulliken charges:
               1
     1  C   -0.344594
     2  C   -0.454844
     3  C   -0.247619
     4  H    0.162638
     5  H    0.105121
     6  Si   1.614671
     7  H    0.083837
     8  H    0.064914
     9  C   -0.352918
    10  H    0.110760
    11  H    0.171201
    12  C   -0.406849
    13  H    0.166597
    14  H    0.104498
    15  H    0.083989
    16  H    0.054702
    17  S   -0.920623
    18  H    0.258017
    19  H   -0.253496
 Sum of Mulliken charges =  -0.00000

 Dipole moment (field-independent basis, Debye):
    X=              1.4325    Y=              0.7801    Z=              0.8838  Tot=              1.8552

 Test job not archived.
 1\1\GINC-SE334\SP\RHF\Aug-CC-pVDZ\C5H12S1Si1\OHZDE\09-Apr-2025\0\\#t h
 f aug-cc-pvdz iop(5/13=1,5/36=2,99/5=2) pseudo=read geom=check guess=(
 read,tcheck) scf=(maxcycle=1)\\title\\0,1\C,0,1.418583,-1.320478,-0.47
 8235\C,0,0.400922,-1.465265,0.677776\C,0,2.260269,-0.03327,-0.411489\H
 ,0,0.889568,-1.347884,-1.438198\H,0,2.089948,-2.186129,-0.477889\Si,0,
 -0.697504,0.05378,0.835831\H,0,0.940504,-1.571522,1.628285\H,0,-0.1931
 79,-2.376856,0.561595\C,0,1.452801,1.267691,-0.570283\H,0,3.021765,-0.
 07197,-1.197444\H,0,2.806636,-0.006876,0.541129\C,0,0.450096,1.52339,0

 Normal termination of Gaussian 16 at Wed Apr  9 00:15:34 2025.
