 Gaussian 16, Revision C.01,

 ----------------------------------------------------------------------
 #t hf aug-cc-pvdz symm=none int=(grid=ultrafine) guess=(read,tcheck) s
 table=opt
 ----------------------------------------------------------------------
 -----
 title
 -----
 Symbolic Z-matrix:
 Charge =  0 Multiplicity = 2

 SCF Done:  E(UHF) =  -1205.92808362     A.U. after   19 cycles
 Normal termination of Gaussian 16 at Tue Apr  8 22:52:39 2025.
 Gaussian 16:  ES64L-G16RevC.01  3-Jul-2019

 ----------------------------------------------------------------------
 #t hf aug-cc-pvdz iop(5/13=1,5/36=2,99/5=2) pseudo=read geom=check gue
 ss=(read,tcheck) scf=(maxcycle=1)
 ----------------------------------------------------------------------
 -----
 title
 -----
 Structure from the checkpoint file:  "BDE49_expt_1797_mol2.chk"
 Charge =  0 Multiplicity = 2

                         Standard orientation:
 ---------------------------------------------------------------------
 Center     Atomic      Atomic             Coordinates (Angstroms)
 Number     Number       Type             X           Y           Z
 ---------------------------------------------------------------------
      1          8           0        0.000001    2.039653   -0.443460
      2          8           0        0.000001    1.293478    0.639739
      3          6           0       -0.000000   -0.124583    0.355787
      4          9           0       -0.000001   -0.674570    1.566129
      5         17           0        1.468361   -0.583719   -0.523533
      6         17           0       -1.468362   -0.583717   -0.523533
 ---------------------------------------------------------------------

 SCF Done:  E(UHF) =  -1206.34086418     A.U. after    2 cycles

 The electronic state is 2-A.
 Alpha  occ. eigenvalues -- -105.61684-105.61683 -26.54312 -20.71381 -20.70471
 Alpha  occ. eigenvalues --  -11.54878 -10.66580 -10.66574  -7.83545  -7.83536
 Alpha  occ. eigenvalues --   -7.83074  -7.83073  -7.83070  -7.83069  -1.75256
 Alpha  occ. eigenvalues --   -1.68571  -1.32587  -1.17184  -1.10240  -0.91071
 Alpha  occ. eigenvalues --   -0.81454  -0.80557  -0.77644  -0.75193  -0.68553
 Alpha  occ. eigenvalues --   -0.66438  -0.61314  -0.56143  -0.53067  -0.52686
 Alpha  occ. eigenvalues --   -0.51302  -0.50567  -0.48846
 Alpha virt. eigenvalues --    0.06281   0.08033   0.09277   0.10120   0.10651
 Alpha virt. eigenvalues --    0.11746   0.13162   0.14225   0.15338   0.16154
 Alpha virt. eigenvalues --    0.18009   0.21285   0.22114   0.23110   0.24456

  Beta  occ. eigenvalues -- -105.61680-105.61679 -26.54334 -20.69808 -20.67277
  Beta  occ. eigenvalues --  -11.54951 -10.66577 -10.66570  -7.83518  -7.83509
  Beta  occ. eigenvalues --   -7.83075  -7.83074  -7.83068  -7.83067  -1.71480
  Beta  occ. eigenvalues --   -1.66441  -1.24241  -1.15836  -1.10157  -0.90197
  Beta  occ. eigenvalues --   -0.80516  -0.77126  -0.76898  -0.66882  -0.65678
  Beta  occ. eigenvalues --   -0.65108  -0.55986  -0.54735  -0.52360  -0.50331
  Beta  occ. eigenvalues --   -0.49507  -0.48868
  Beta virt. eigenvalues --    0.06291   0.06597   0.08077   0.09312   0.10149
  Beta virt. eigenvalues --    0.10770   0.12254   0.13227   0.14233   0.15880
  Beta virt. eigenvalues --    0.16372   0.18054   0.21300   0.23251   0.23251

 Mulliken charges and spin densities:
               1          2
     1  O   -0.248315   0.968643
     2  O   -0.473709   0.042320
     3  C    1.135162  -0.014343
     4  F   -0.565053  -0.002472
     5  Cl   0.075957   0.002926
     6  Cl   0.075957   0.002926
 Sum of Mulliken charges =  -0.00000   1.00000

 Dipole moment (field-independent basis, Debye):
    X=             -0.0000    Y=             -0.4865    Z=             -0.3562  Tot=              0.6029
                          Isotropic Fermi Contact Couplings
        Atom                 a.u.       MegaHertz       Gauss      10(-4) cm-1
     1  O(17)              0.26677    -161.71600     -57.70429     -53.94265
     2  O(17)              0.06446     -39.07530     -13.94304     -13.03412
     3  C(13)             -0.01457     -16.38017      -5.84485      -5.46384
     4  F(19)             -0.00350     -14.71509      -5.25071      -4.90843
     5  Cl(35)            -0.00433      -1.89731      -0.67701      -0.63287
     6  Cl(35)            -0.00433      -1.89731      -0.67701      -0.63287
 --------------------------------------------------------
       Center         ----  Spin Dipole Couplings  ----

 Normal termination of Gaussian 16 at Tue Apr  8 22:52:42 2025.
