 Gaussian 16, Revision C.01,

 ----------------------------------------------------------------------
 #t hf aug-cc-pvdz symm=none int=(grid=ultrafine) guess=(read,tcheck) s
 table=(opt,rrhf)
 ----------------------------------------------------------------------
 -----
 title
 -----
 Symbolic Z-matrix:
 Charge =  0 Multiplicity = 1

 SCF Done:  E(RHF) =  -565.609600603     A.U. after   12 cycles
 Normal termination of Gaussian 16 at Wed Apr  9 00:31:17 2025.
 Gaussian 16:  ES64L-G16RevC.01  3-Jul-2019

 ----------------------------------------------------------------------
 #t hf aug-cc-pvdz iop(5/13=1,5/36=2,99/5=2) pseudo=read geom=check gue
 ss=(read,tcheck) scf=(maxcycle=1)
 ----------------------------------------------------------------------
 -----
 title
 -----
 Structure from the checkpoint file:  "BDE49_nonexpt_361_mol1.chk"
 Charge =  0 Multiplicity = 1

                         Standard orientation:
 ---------------------------------------------------------------------
 Center     Atomic      Atomic             Coordinates (Angstroms)
 Number     Number       Type             X           Y           Z
 ---------------------------------------------------------------------
      1          9           0       -1.207729   -1.130974    0.003979
      2          9           0       -1.207725    1.130976    0.003978
      3          5           0       -0.516657   -0.000000    0.016123
      4         15           0        1.405615   -0.000000   -0.116993
      5          1           0        1.619079   -1.054585    0.801331
      6          1           0        1.619077    1.054575    0.801342
 ---------------------------------------------------------------------

 SCF Done:  E(RHF) =  -565.857662277     A.U. after    2 cycles

 The electronic state is 1-A.
 Alpha  occ. eigenvalues --  -84.28259 -26.48845 -26.48845  -7.74111  -6.75639
 Alpha  occ. eigenvalues --   -4.28040  -4.28025  -4.27303  -1.64062  -1.60021
 Alpha  occ. eigenvalues --   -0.90179  -0.80812  -0.75191  -0.70462  -0.70014
 Alpha  occ. eigenvalues --   -0.64179  -0.63489  -0.52619  -0.48678  -0.37283
 Alpha virt. eigenvalues --    0.03565   0.05337   0.05628   0.05669   0.08007
 Alpha virt. eigenvalues --    0.08733   0.09855   0.10670   0.13312   0.13971
 Alpha virt. eigenvalues --    0.18082   0.19326   0.21330   0.23369   0.24468

 Mulliken charges:
               1
     1  F   -0.577565
     2  F   -0.577564
     3  B    1.654354
     4  P   -1.137928
     5  H    0.319352
     6  H    0.319351
 Sum of Mulliken charges =  -0.00000

 Dipole moment (field-independent basis, Debye):
    X=              1.2320    Y=             -0.0000    Z=              0.4258  Tot=              1.3035

 Test job not archived.
 1\1\GINC-SE039\SP\RHF\Aug-CC-pVDZ\B1F2H2P1\OHZDE\09-Apr-2025\0\\#t hf
 aug-cc-pvdz iop(5/13=1,5/36=2,99/5=2) pseudo=read geom=check guess=(re
 ad,tcheck) scf=(maxcycle=1)\\title\\0,1\F,0,-1.207729,-1.130974,0.0039
 79\F,0,-1.207725,1.130976,0.003978\B,0,-0.516657,0.,0.016123\P,0,1.405
 615,0.,-0.116993\H,0,1.619079,-1.054585,0.801331\H,0,1.619077,1.054575
 ,0.801342\\Version=ES64L-G16RevC.01\State=1-A\HF=-565.8576623\RMSD=2.3
 90e-02\Dipole=0.4847117,-0.0000011,0.1675338\Quadrupole=-0.6770485,-0.
 2799546,0.9570031,-0.0000092,1.0840743,0.0000106\PG=C01 [X(B1F2H2P1)]\

 Normal termination of Gaussian 16 at Wed Apr  9 00:31:23 2025.
