 Gaussian 16, Revision C.01,

 ----------------------------------------------------------------------
 #t hf aug-cc-pvdz symm=none int=(grid=ultrafine) guess=(read,tcheck) s
 table=opt
 ----------------------------------------------------------------------
 -----
 title
 -----
 Symbolic Z-matrix:
 Charge =  0 Multiplicity = 2

 SCF Done:  E(UHF) =  -640.908108680     A.U. after   18 cycles
 Normal termination of Gaussian 16 at Tue Apr  8 23:49:42 2025.
 Gaussian 16:  ES64L-G16RevC.01  3-Jul-2019

 ----------------------------------------------------------------------
 #t hf aug-cc-pvdz iop(5/13=1,5/36=2,99/5=2) pseudo=read geom=check gue
 ss=(read,tcheck) scf=(maxcycle=1)
 ----------------------------------------------------------------------
 -----
 title
 -----
 Structure from the checkpoint file:  "BDE49_nonexpt_181_mol2.chk"
 Charge =  0 Multiplicity = 2

                         Standard orientation:
 ---------------------------------------------------------------------
 Center     Atomic      Atomic             Coordinates (Angstroms)
 Number     Number       Type             X           Y           Z
 ---------------------------------------------------------------------
      1         17           0        2.282352   -0.526174    0.038816
      2          5           0        0.635449   -0.315827   -0.507442
      3          6           0       -0.484460    0.478737    0.236124
      4          6           0       -1.914673    0.097144   -0.197051
      5          6           0       -0.215607    1.993941    0.025360
      6          1           0       -0.272302    2.264284   -1.032906
      7          1           0        0.766920    2.290472    0.398966
      8          1           0       -0.970476    2.579285    0.557998
      9          1           0       -0.379051    0.273322    1.313258
     10          6           0       -2.278336   -1.357952    0.108834
     11          1           0       -2.024583    0.285671   -1.270900
     12          1           0       -2.623589    0.764236    0.308057
     13          1           0       -1.612300   -2.051099   -0.415400
     14          1           0       -3.301541   -1.584792   -0.201654
     15          1           0       -2.201855   -1.568513    1.180311
 ---------------------------------------------------------------------

 SCF Done:  E(UHF) =  -641.180903307     A.U. after    2 cycles

 The electronic state is 2-A.
 Alpha  occ. eigenvalues -- -105.57061 -11.24002 -11.23646 -11.23161 -11.22892
 Alpha  occ. eigenvalues --  -10.62060  -7.78995  -7.78681  -7.78635  -7.66672
 Alpha  occ. eigenvalues --   -1.09706  -1.07020  -0.99324  -0.87665  -0.81428
 Alpha  occ. eigenvalues --   -0.68575  -0.63295  -0.60414  -0.59566  -0.58450
 Alpha  occ. eigenvalues --   -0.53646  -0.51658  -0.51507  -0.49799  -0.48314
 Alpha  occ. eigenvalues --   -0.48075  -0.46688  -0.33560
 Alpha virt. eigenvalues --    0.03470   0.03677   0.03780   0.04057   0.06176
 Alpha virt. eigenvalues --    0.06268   0.06511   0.06829   0.07034   0.08081
 Alpha virt. eigenvalues --    0.09694   0.09763   0.10155   0.12947   0.13714

  Beta  occ. eigenvalues -- -105.56985 -11.24005 -11.23624 -11.23017 -11.22883
  Beta  occ. eigenvalues --  -10.61970  -7.78859  -7.78647  -7.78443  -7.64738
  Beta  occ. eigenvalues --   -1.09013  -1.06418  -0.99216  -0.87428  -0.80768
  Beta  occ. eigenvalues --   -0.66440  -0.62531  -0.59595  -0.59283  -0.58057
  Beta  occ. eigenvalues --   -0.53456  -0.51157  -0.50126  -0.49160  -0.48085
  Beta  occ. eigenvalues --   -0.47563  -0.45501
  Beta virt. eigenvalues --    0.03283   0.03671   0.03818   0.03881   0.06092
  Beta virt. eigenvalues --    0.06441   0.06497   0.06728   0.07206   0.08381
  Beta virt. eigenvalues --    0.09178   0.09971   0.10134   0.11200   0.13729

 Mulliken charges and spin densities:
               1          2
     1  Cl  -0.310516   0.012089
     2  B    0.091350   1.060714
     3  C   -0.066442  -0.061134
     4  C   -0.300830  -0.001655
     5  C   -0.377432   0.003431
     6  H    0.180210  -0.002261
     7  H    0.103684  -0.000686
     8  H    0.140473  -0.001398
     9  H    0.160330  -0.009817
    10  C   -0.368118   0.015277
    11  H    0.149858  -0.004525
    12  H    0.147800  -0.003043
    13  H    0.171873  -0.008658
    14  H    0.103612   0.000357
    15  H    0.174148   0.001308
 Sum of Mulliken charges =  -0.00000   1.00000

 Dipole moment (field-independent basis, Debye):
    X=             -1.4341    Y=              0.7572    Z=              0.4566  Tot=              1.6848
                          Isotropic Fermi Contact Couplings
        Atom                 a.u.       MegaHertz       Gauss      10(-4) cm-1
     1  Cl(35)             0.08231      36.09129      12.87827      12.03876
     2  B(11)              0.31109     446.21256     159.21974     148.84049
     3  C(13)              0.03461      38.90349      13.88173      12.97681
     4  C(13)              0.00760       8.54480       3.04900       2.85024
     5  C(13)             -0.00146      -1.63983      -0.58513      -0.54699
     6  H(1)              -0.00034      -1.50129      -0.53570      -0.50078
     7  H(1)              -0.00004      -0.17234      -0.06149      -0.05748
     8  H(1)              -0.00009      -0.41983      -0.14980      -0.14004

 Normal termination of Gaussian 16 at Tue Apr  8 23:49:48 2025.
