 Gaussian 16, Revision C.01,

 ----------------------------------------------------------------------
 #t hf aug-cc-pvdz symm=none int=(grid=ultrafine) guess=(read,tcheck) s
 table=(opt,rrhf)
 ----------------------------------------------------------------------
 -----
 title
 -----
 Symbolic Z-matrix:
 Charge =  0 Multiplicity = 1

 SCF Done:  E(RHF) =  -973.121450619     A.U. after   15 cycles
 Normal termination of Gaussian 16 at Tue Apr  8 23:14:07 2025.
 Gaussian 16:  ES64L-G16RevC.01  3-Jul-2019

 ----------------------------------------------------------------------
 #t hf aug-cc-pvdz iop(5/13=1,5/36=2,99/5=2) pseudo=read geom=check gue
 ss=(read,tcheck) scf=(maxcycle=1)
 ----------------------------------------------------------------------
 -----
 title
 -----
 Structure from the checkpoint file:  "BDE49_expt_394_mol1.chk"
 Charge =  0 Multiplicity = 1

                         Standard orientation:
 ---------------------------------------------------------------------
 Center     Atomic      Atomic             Coordinates (Angstroms)
 Number     Number       Type             X           Y           Z
 ---------------------------------------------------------------------
      1         16           0       -1.348096   -0.838134   -0.177729
      2          8           0       -2.395527   -1.318197   -1.067573
      3          8           0       -1.020615   -1.587039    1.026731
      4          6           0        1.452902   -0.364789   -0.608343
      5          6           0        2.124057    0.769117   -1.078519
      6          6           0        2.031943   -1.112743    0.424075
      7          6           0        3.247212   -0.723149    0.978181
      8          6           0        3.906103    0.411842    0.507160
      9          6           0        3.342871    1.156433   -0.525883
     10          1           0        3.851634    2.035576   -0.904978
     11          1           0        1.695342    1.349026   -1.889783
     12          1           0        1.516602   -1.987567    0.800490
     13          1           0        3.682796   -1.309665    1.779219
     14          1           0        4.854636    0.709966    0.939152
     15          6           0        0.154069   -0.785872   -1.237834
     16          1           0       -0.108794   -0.175932   -2.101585
     17          1           0        0.177532   -1.829223   -1.565855
     18          6           0       -1.813164    0.893596    0.338828
     19          6           0       -1.920885    1.775307   -0.910080
     20          1           0       -2.332194    2.747678   -0.623534
     21          1           0       -2.585847    1.330288   -1.652162
     22          1           0       -0.946508    1.957307   -1.368827
     23          6           0       -3.188591    0.722345    1.006533
     24          1           0       -3.530738    1.701554    1.353178
     25          1           0       -3.126987    0.055139    1.867965
     26          1           0       -3.922564    0.321359    0.307085
     27          6           0       -0.787270    1.428556    1.343733
     28          1           0        0.195757    1.574109    0.895235
     29          1           0       -0.682892    0.751075    2.191540
     30          1           0       -1.134571    2.397506    1.716159
 ---------------------------------------------------------------------

 SCF Done:  E(RHF) =  -973.781816996     A.U. after    2 cycles

 The electronic state is 1-A.
 Alpha  occ. eigenvalues --  -94.16951 -20.52300 -20.52118 -11.29509 -11.28899
 Alpha  occ. eigenvalues --  -11.26789 -11.25836 -11.25576 -11.25479 -11.25317
 Alpha  occ. eigenvalues --  -11.25084 -11.24946 -11.23990 -11.23895  -8.42409
 Alpha  occ. eigenvalues --   -6.40505  -6.40270  -6.40201  -1.53708  -1.41994
 Alpha  occ. eigenvalues --   -1.17454  -1.13158  -1.08112  -1.02883  -0.99442
 Alpha  occ. eigenvalues --   -0.96060  -0.95376  -0.89332  -0.85007  -0.82933
 Alpha  occ. eigenvalues --   -0.76085  -0.72263  -0.69671  -0.67247  -0.66871
 Alpha  occ. eigenvalues --   -0.65506  -0.64128  -0.62431  -0.62164  -0.61086
 Alpha  occ. eigenvalues --   -0.60462  -0.59051  -0.57202  -0.56370  -0.55710
 Alpha  occ. eigenvalues --   -0.54212  -0.53000  -0.52140  -0.51402  -0.50434
 Alpha  occ. eigenvalues --   -0.50027  -0.47726  -0.46751  -0.44755  -0.41466
 Alpha  occ. eigenvalues --   -0.35783  -0.34876
 Alpha virt. eigenvalues --    0.02510   0.02953   0.03189   0.03924   0.04635
 Alpha virt. eigenvalues --    0.04837   0.05365   0.05784   0.06449   0.07290
 Alpha virt. eigenvalues --    0.07646   0.08454   0.08746   0.09091   0.09145

 Mulliken charges:
               1
     1  S    4.030951
     2  O   -1.715726
     3  O   -1.813159
     4  C    2.030882
     5  C    0.197499
     6  C    0.018302
     7  C    0.017644
     8  C    0.179743
     9  C    0.037585
    10  H   -0.249001
    11  H   -0.354165
    12  H   -0.355425
    13  H   -0.239092
    14  H   -0.218512
    15  C   -1.569624
    16  H    0.035793
    17  H    0.180928
    18  C   -2.230169
    19  C   -0.049928
    20  H    0.215779
    21  H    0.224023
    22  H    0.102812
    23  C    0.284157
    24  H    0.189190
    25  H    0.231931
    26  H    0.248712
    27  C    0.014666
    28  H    0.128260
    29  H    0.230836
    30  H    0.195109
 Sum of Mulliken charges =  -0.00000

 Dipole moment (field-independent basis, Debye):
    X=              2.5266    Y=              4.2422    Z=             -0.4442  Tot=              4.9576

 Test job not archived.
 1\1\GINC-SE100\SP\RHF\Aug-CC-pVDZ\C11H16O2S1\OHZDE\08-Apr-2025\0\\#t h
 f aug-cc-pvdz iop(5/13=1,5/36=2,99/5=2) pseudo=read geom=check guess=(
 read,tcheck) scf=(maxcycle=1)\\title\\0,1\S,0,-1.348096,-0.838134,-0.1
 77729\O,0,-2.395527,-1.318197,-1.067573\O,0,-1.020615,-1.587039,1.0267
 31\C,0,1.452902,-0.364789,-0.608343\C,0,2.124057,0.769117,-1.078519\C,
 0,2.031943,-1.112743,0.424075\C,0,3.247212,-0.723149,0.978181\C,0,3.90
 6103,0.411842,0.50716\C,0,3.342871,1.156433,-0.525883\H,0,3.851634,2.0
 35576,-0.904978\H,0,1.695342,1.349026,-1.889783\H,0,1.516602,-1.987567

 Normal termination of Gaussian 16 at Tue Apr  8 23:14:45 2025.
