 Gaussian 16, Revision C.01,

 ----------------------------------------------------------------------
 #t hf aug-cc-pvdz symm=none int=(grid=ultrafine) guess=(read,tcheck) s
 table=opt
 ----------------------------------------------------------------------
 -----
 title
 -----
 Symbolic Z-matrix:
 Charge =  0 Multiplicity = 2

 SCF Done:  E(UHF) =  -119.893413510     A.U. after   15 cycles
 Normal termination of Gaussian 16 at Wed Apr  9 00:34:46 2025.
 Gaussian 16:  ES64L-G16RevC.01  3-Jul-2019

 ----------------------------------------------------------------------
 #t hf aug-cc-pvdz iop(5/13=1,5/36=2,99/5=2) pseudo=read geom=check gue
 ss=(read,tcheck) scf=(maxcycle=1)
 ----------------------------------------------------------------------
 -----
 title
 -----
 Structure from the checkpoint file:  "BDE49_nonexpt_452_mol2.chk"
 Charge =  0 Multiplicity = 2

                         Standard orientation:
 ---------------------------------------------------------------------
 Center     Atomic      Atomic             Coordinates (Angstroms)
 Number     Number       Type             X           Y           Z
 ---------------------------------------------------------------------
      1          1           0       -2.492935    0.027543   -0.000003
      2          7           0       -0.233395    0.344720    0.000005
      3          5           0       -1.383623   -0.407199   -0.000009
      4          6           0        1.141703   -0.150468   -0.000001
      5          1           0       -0.295668    1.358882    0.000022
      6          1           0        1.122237   -1.240141   -0.000029
      7          1           0        1.684011    0.189718    0.888024
      8          1           0        1.684020    0.189764   -0.888003
 ---------------------------------------------------------------------

 SCF Done:  E(UHF) =  -120.019583909     A.U. after    2 cycles

 The electronic state is 2-A.
 Alpha  occ. eigenvalues --  -15.50352 -11.27018  -7.59806  -1.19879  -0.93769
 Alpha  occ. eigenvalues --   -0.76225  -0.67247  -0.61300  -0.57032  -0.54537
 Alpha  occ. eigenvalues --   -0.44005  -0.32723
 Alpha virt. eigenvalues --    0.03390   0.04808   0.05047   0.05523   0.06480
 Alpha virt. eigenvalues --    0.06549   0.07189   0.10144   0.13327   0.13774
 Alpha virt. eigenvalues --    0.14296   0.15510   0.15925   0.17460   0.19268

  Beta  occ. eigenvalues --  -15.50659 -11.26923  -7.57934  -1.20003  -0.93396
  Beta  occ. eigenvalues --   -0.74180  -0.66441  -0.61739  -0.55727  -0.52854
  Beta  occ. eigenvalues --   -0.45069
  Beta virt. eigenvalues --    0.03164   0.04856   0.04936   0.05515   0.06024
  Beta virt. eigenvalues --    0.06677   0.07071   0.09534   0.11802   0.14265
  Beta virt. eigenvalues --    0.14856   0.14961   0.17193   0.17319   0.17875

 Mulliken charges and spin densities:
               1          2
     1  H    0.367939   0.033411
     2  N    0.360143  -0.114517
     3  B   -0.619509   1.045206
     4  C   -0.474758   0.022253
     5  H    0.046988   0.033865
     6  H    0.069337  -0.017514
     7  H    0.124931  -0.001351
     8  H    0.124929  -0.001351
 Sum of Mulliken charges =  -0.00000   1.00000

 Dipole moment (field-independent basis, Debye):
    X=              1.5189    Y=              1.3262    Z=              0.0000  Tot=              2.0164
                          Isotropic Fermi Contact Couplings
        Atom                 a.u.       MegaHertz       Gauss      10(-4) cm-1
     1  H(1)               0.01247      55.73468      19.88752      18.59109
     2  N(14)             -0.02300      -7.43138      -2.65170      -2.47884
     3  B(11)              0.30176     432.82909     154.44418     144.37624
     4  C(13)              0.02578      28.98256      10.34170       9.66754
     5  H(1)               0.01377      61.55912      21.96582      20.53391
     6  H(1)              -0.00077      -3.44696      -1.22996      -1.14978
     7  H(1)              -0.00091      -4.08945      -1.45922      -1.36409
     8  H(1)              -0.00091      -4.08936      -1.45919      -1.36406

 Normal termination of Gaussian 16 at Wed Apr  9 00:34:48 2025.
