 Gaussian 16, Revision C.01,

 ----------------------------------------------------------------------
 #t hf aug-cc-pvdz symm=none int=(grid=ultrafine) guess=(read,tcheck) s
 table=(opt,rrhf)
 ----------------------------------------------------------------------
 -----
 title
 -----
 Symbolic Z-matrix:
 Charge =  0 Multiplicity = 1

 SCF Done:  E(RHF) =  -450.726469060     A.U. after   11 cycles
 Normal termination of Gaussian 16 at Tue Apr  8 22:40:29 2025.
 Gaussian 16:  ES64L-G16RevC.01  3-Jul-2019

 ----------------------------------------------------------------------
 #t hf aug-cc-pvdz iop(5/13=1,5/36=2,99/5=2) pseudo=read geom=check gue
 ss=(read,tcheck) scf=(maxcycle=1)
 ----------------------------------------------------------------------
 -----
 title
 -----
 Structure from the checkpoint file:  "BDE49_expt_1331_mol1.chk"
 Charge =  0 Multiplicity = 1

                         Standard orientation:
 ---------------------------------------------------------------------
 Center     Atomic      Atomic             Coordinates (Angstroms)
 Number     Number       Type             X           Y           Z
 ---------------------------------------------------------------------
      1          6           0        0.909004    0.740061   -0.000001
      2          8           0        1.939433   -0.221891    0.000000
      3          1           0        2.782459    0.239037    0.000009
      4          6           0       -0.417862    0.006498    0.000000
      5          1           0        0.919718    1.377817   -0.892639
      6          1           0        0.919718    1.377820    0.892635
      7          9           0       -1.426384    0.910151   -0.000003
      8          9           0       -0.569265   -0.771678    1.085653
      9          9           0       -0.569264   -0.771684   -1.085650
 ---------------------------------------------------------------------

 SCF Done:  E(RHF) =  -451.151444984     A.U. after    2 cycles

 The electronic state is 1-A.
 Alpha  occ. eigenvalues --  -26.50469 -26.50147 -26.50143 -20.58433 -11.51696
 Alpha  occ. eigenvalues --  -11.33236  -1.70979  -1.60966  -1.60879  -1.48779
 Alpha  occ. eigenvalues --   -1.05302  -0.90705  -0.81285  -0.80992  -0.77527
 Alpha  occ. eigenvalues --   -0.72622  -0.69433  -0.67868  -0.65815  -0.63029
 Alpha  occ. eigenvalues --   -0.62506  -0.61604  -0.59504  -0.53772  -0.48375
 Alpha virt. eigenvalues --    0.02712   0.04914   0.04932   0.08224   0.11161
 Alpha virt. eigenvalues --    0.11430   0.11690   0.13144   0.15879   0.15925
 Alpha virt. eigenvalues --    0.20115   0.21027   0.22344   0.22476   0.26689

 Mulliken charges:
               1
     1  C    0.389626
     2  O   -1.102820
     3  H    0.327912
     4  C    2.299752
     5  H    0.153823
     6  H    0.153823
     7  F   -0.740448
     8  F   -0.740834
     9  F   -0.740834
 Sum of Mulliken charges =   0.00000

 Dipole moment (field-independent basis, Debye):
    X=              2.4278    Y=              2.5702    Z=              0.0000  Tot=              3.5356

 Test job not archived.
 1\1\GINC-SE127\SP\RHF\Aug-CC-pVDZ\C2H3F3O1\OHZDE\08-Apr-2025\0\\#t hf
 aug-cc-pvdz iop(5/13=1,5/36=2,99/5=2) pseudo=read geom=check guess=(re
 ad,tcheck) scf=(maxcycle=1)\\title\\0,1\C,0,0.909004,0.740061,-0.00000
 1\O,0,1.939433,-0.221891,0.\H,0,2.782459,0.239037,0.000009\C,0,-0.4178
 62,0.006498,0.\H,0,0.919718,1.377817,-0.892639\H,0,0.919718,1.37782,0.
 892635\F,0,-1.426384,0.910151,-0.000003\F,0,-0.569265,-0.771678,1.0856
 53\F,0,-0.569264,-0.771684,-1.08565\\Version=ES64L-G16RevC.01\State=1-
 A\HF=-451.151445\RMSD=6.711e-03\Dipole=0.9551796,1.0112087,0.0000065\Q

 Normal termination of Gaussian 16 at Tue Apr  8 22:40:32 2025.
