 Gaussian 16, Revision C.01,

 ----------------------------------------------------------------------
 #t hf aug-cc-pvdz symm=none int=(grid=ultrafine) guess=(read,tcheck) s
 table=(opt,rrhf)
 ----------------------------------------------------------------------
 -----
 title
 -----
 Symbolic Z-matrix:
 Charge =  0 Multiplicity = 1

 SCF Done:  E(RHF) =  -916.943966293     A.U. after   13 cycles
 Normal termination of Gaussian 16 at Wed Apr  9 00:21:14 2025.
 Gaussian 16:  ES64L-G16RevC.01  3-Jul-2019

 ----------------------------------------------------------------------
 #t hf aug-cc-pvdz iop(5/13=1,5/36=2,99/5=2) pseudo=read geom=check gue
 ss=(read,tcheck) scf=(maxcycle=1)
 ----------------------------------------------------------------------
 -----
 title
 -----
 Structure from the checkpoint file:  "BDE49_nonexpt_2629_mol1.chk"
 Charge =  0 Multiplicity = 1

                         Standard orientation:
 ---------------------------------------------------------------------
 Center     Atomic      Atomic             Coordinates (Angstroms)
 Number     Number       Type             X           Y           Z
 ---------------------------------------------------------------------
      1          9           0       -1.671166   -0.000000    1.067265
      2         16           0       -1.272199   -0.000000   -0.593130
      3         15           0        0.813602   -0.000000   -0.635627
      4          6           0        1.255922   -1.430894    0.454040
      5          6           0        1.255922    1.430894    0.454039
      6          1           0        0.989004   -2.360328   -0.050344
      7          1           0        0.735529   -1.376040    1.411292
      8          1           0        2.335762   -1.422481    0.624371
      9          1           0        0.989003    2.360328   -0.050345
     10          1           0        2.335761    1.422482    0.624370
     11          1           0        0.735529    1.376041    1.411291
 ---------------------------------------------------------------------

 SCF Done:  E(RHF) =  -917.228632851     A.U. after    2 cycles

 The electronic state is 1-A.
 Alpha  occ. eigenvalues --  -94.02774 -84.30855 -26.45766 -11.25322 -11.25317
 Alpha  occ. eigenvalues --   -8.30184  -6.77886  -6.27947  -6.27633  -6.27372
 Alpha  occ. eigenvalues --   -4.30125  -4.30099  -4.29464  -1.54851  -1.06050
 Alpha  occ. eigenvalues --   -0.97100  -0.95897  -0.75179  -0.64396  -0.63730
 Alpha  occ. eigenvalues --   -0.62613  -0.59967  -0.59189  -0.58202  -0.57653
 Alpha  occ. eigenvalues --   -0.48858  -0.45410  -0.38636  -0.34859
 Alpha virt. eigenvalues --    0.03244   0.04275   0.05137   0.05394   0.06689
 Alpha virt. eigenvalues --    0.07010   0.07769   0.08110   0.08661   0.11801
 Alpha virt. eigenvalues --    0.13698   0.14195   0.14689   0.15166   0.16471

 Mulliken charges:
               1
     1  F   -0.659530
     2  S    0.267421
     3  P    1.148045
     4  C   -0.817910
     5  C   -0.817908
     6  H    0.137120
     7  H    0.160527
     8  H    0.142294
     9  H    0.137121
    10  H    0.142292
    11  H    0.160527
 Sum of Mulliken charges =  -0.00000

 Dipole moment (field-independent basis, Debye):
    X=              2.8454    Y=              0.0000    Z=              0.1313  Tot=              2.8484

 Test job not archived.
 1\1\GINC-SE212\SP\RHF\Aug-CC-pVDZ\C2H6F1P1S1\OHZDE\09-Apr-2025\0\\#t h
 f aug-cc-pvdz iop(5/13=1,5/36=2,99/5=2) pseudo=read geom=check guess=(
 read,tcheck) scf=(maxcycle=1)\\title\\0,1\F,0,-1.671166,0.,1.067265\S,
 0,-1.272199,0.,-0.59313\P,0,0.813602,0.,-0.635627\C,0,1.255922,-1.4308
 94,0.45404\C,0,1.255922,1.430894,0.454039\H,0,0.989004,-2.360328,-0.05
 0344\H,0,0.735529,-1.37604,1.411292\H,0,2.335762,-1.422481,0.624371\H,
 0,0.989003,2.360328,-0.050345\H,0,2.335761,1.422482,0.62437\H,0,0.7355
 29,1.376041,1.411291\\Version=ES64L-G16RevC.01\State=1-A\HF=-917.22863

 Normal termination of Gaussian 16 at Wed Apr  9 00:21:18 2025.
