 Gaussian 16, Revision C.01,

 ----------------------------------------------------------------------
 #t hf aug-cc-pvdz symm=none int=(grid=ultrafine) guess=(read,tcheck) s
 table=opt
 ----------------------------------------------------------------------
 -----
 title
 -----
 Symbolic Z-matrix:
 Charge =  0 Multiplicity = 2

 SCF Done:  E(UHF) =  -1528.67035907     A.U. after   19 cycles
 Normal termination of Gaussian 16 at Tue Apr  8 23:43:16 2025.
 Gaussian 16:  ES64L-G16RevC.01  3-Jul-2019

 ----------------------------------------------------------------------
 #t hf aug-cc-pvdz iop(5/13=1,5/36=2,99/5=2) pseudo=read geom=check gue
 ss=(read,tcheck) scf=(maxcycle=1)
 ----------------------------------------------------------------------
 -----
 title
 -----
 Structure from the checkpoint file:  "BDE49_nonexpt_1702_mol2.chk"
 Charge =  0 Multiplicity = 2

                         Standard orientation:
 ---------------------------------------------------------------------
 Center     Atomic      Atomic             Coordinates (Angstroms)
 Number     Number       Type             X           Y           Z
 ---------------------------------------------------------------------
      1         16           0        2.070198   -0.598756    0.000000
      2          8           0        1.010656    0.680626   -0.000000
      3          6           0       -0.366977    0.462785   -0.000000
      4          9           0       -0.907129    1.682134   -0.000000
      5         17           0       -0.907129   -0.405319    1.472358
      6         17           0       -0.907129   -0.405319   -1.472358
 ---------------------------------------------------------------------

 SCF Done:  E(UHF) =  -1529.06816552     A.U. after    2 cycles

 The electronic state is 2-A".
 Alpha  occ. eigenvalues -- -105.60611-105.60610 -94.05591 -26.52824 -20.65624
 Alpha  occ. eigenvalues --  -11.54272 -10.65491 -10.65490  -8.33016  -7.82451
 Alpha  occ. eigenvalues --   -7.82442  -7.81999  -7.81999  -7.81993  -7.81991
 Alpha  occ. eigenvalues --   -6.32078  -6.30460  -6.29976  -1.68669  -1.55901
 Alpha  occ. eigenvalues --   -1.16543  -1.08823  -1.04331  -0.87796  -0.77769
 Alpha  occ. eigenvalues --   -0.76275  -0.75625  -0.67038  -0.63610  -0.61114
 Alpha  occ. eigenvalues --   -0.56367  -0.52760  -0.51063  -0.49656  -0.47924
 Alpha  occ. eigenvalues --   -0.45733  -0.42380
 Alpha virt. eigenvalues --    0.05240   0.06678   0.08060   0.09054   0.10453
 Alpha virt. eigenvalues --    0.10972   0.11748   0.12541   0.12691   0.14425
 Alpha virt. eigenvalues --    0.16295   0.16875   0.17708   0.18522   0.18732

  Beta  occ. eigenvalues -- -105.60605-105.60604 -94.04702 -26.52834 -20.65115
  Beta  occ. eigenvalues --  -11.54313 -10.65486 -10.65485  -8.31996  -7.82424
  Beta  occ. eigenvalues --   -7.82416  -7.81996  -7.81995  -7.81989  -7.81988
  Beta  occ. eigenvalues --   -6.30065  -6.29451  -6.28030  -1.68593  -1.54584
  Beta  occ. eigenvalues --   -1.16338  -1.08754  -0.98848  -0.85825  -0.76986
  Beta  occ. eigenvalues --   -0.75701  -0.74579  -0.63745  -0.63344  -0.59722
  Beta  occ. eigenvalues --   -0.53601  -0.52690  -0.51011  -0.49270  -0.47840
  Beta  occ. eigenvalues --   -0.40353
  Beta virt. eigenvalues --   -0.01699   0.05759   0.06828   0.08295   0.09222
  Beta virt. eigenvalues --    0.10489   0.11074   0.12370   0.12905   0.13899
  Beta virt. eigenvalues --    0.14645   0.16724   0.17308   0.17849   0.18558

 Mulliken charges and spin densities:
               1          2
     1  S    0.559469   0.972572
     2  O   -1.146372   0.028075
     3  C    1.051084  -0.011791
     4  F   -0.556671  -0.000131
     5  Cl   0.046245   0.005637
     6  Cl   0.046245   0.005637
 Sum of Mulliken charges =  -0.00000   1.00000

 Dipole moment (field-independent basis, Debye):
    X=              0.7199    Y=             -0.8999    Z=             -0.0000  Tot=              1.1524
                          Isotropic Fermi Contact Couplings
        Atom                 a.u.       MegaHertz       Gauss      10(-4) cm-1
     1  S(33)              0.20718      71.16138      25.39215      23.73688
     2  O(17)              0.04990     -30.24638     -10.79266     -10.08911
     3  C(13)             -0.00752      -8.45865      -3.01826      -2.82150
     4  F(19)             -0.00176      -7.39216      -2.63771      -2.46576
     5  Cl(35)            -0.00351      -1.54054      -0.54970      -0.51387
     6  Cl(35)            -0.00351      -1.54054      -0.54970      -0.51387
 --------------------------------------------------------
       Center         ----  Spin Dipole Couplings  ----

 1\1\GINC-SE250\SP\UHF\Aug-CC-pVDZ\C1Cl2F1O1S1(2)\OHZDE\08-Apr-2025\0\\
 #t hf aug-cc-pvdz iop(5/13=1,5/36=2,99/5=2) pseudo=read geom=check gue
 ss=(read,tcheck) scf=(maxcycle=1)\\title\\0,2\S,0,2.150706,0.,-0.13672
 4\O,0,0.839481,0.,0.883147\C,0,-0.458403,0.,0.372436\F,0,-1.24955,0.,1
 .446058\Cl,0,-0.797964,-1.472358,-0.591963\Cl,0,-0.797964,1.472358,-0.
 591963\\Version=ES64L-G16RevC.01\State=2-A"\HF=-1529.0681655\S2=0.7623
 46\S2-1=0.\S2A=0.750052\RMSD=4.443e-03\Dipole=0.3531224,0.,-0.2843704\
 Quadrupole=0.8178423,0.9379013,-1.7557437,0.,-0.9155946,0.\PG=CS [SG(C

 Normal termination of Gaussian 16 at Tue Apr  8 23:43:20 2025.
