 Gaussian 16, Revision C.01,

 ----------------------------------------------------------------------
 #t hf aug-cc-pvdz symm=none int=(grid=ultrafine) guess=(read,tcheck) s
 table=(opt,rrhf)
 ----------------------------------------------------------------------
 -----
 title
 -----
 Symbolic Z-matrix:
 Charge =  0 Multiplicity = 1

 SCF Done:  E(RHF) =  -669.726399798     A.U. after   13 cycles
 Normal termination of Gaussian 16 at Tue Apr  8 23:55:37 2025.
 Gaussian 16:  ES64L-G16RevC.01  3-Jul-2019

 ----------------------------------------------------------------------
 #t hf aug-cc-pvdz iop(5/13=1,5/36=2,99/5=2) pseudo=read geom=check gue
 ss=(read,tcheck) scf=(maxcycle=1)
 ----------------------------------------------------------------------
 -----
 title
 -----
 Structure from the checkpoint file:  "BDE49_nonexpt_1968_mol1.chk"
 Charge =  0 Multiplicity = 1

                         Standard orientation:
 ---------------------------------------------------------------------
 Center     Atomic      Atomic             Coordinates (Angstroms)
 Number     Number       Type             X           Y           Z
 ---------------------------------------------------------------------
      1         14           0        2.514895   -0.790356    0.185577
      2          6           0        1.575228    0.531167   -0.819244
      3          1           0        3.775149   -1.081926   -0.533989
      4          1           0        1.706649   -2.024539    0.281536
      5          1           0        2.816481   -0.276821    1.537393
      6          6           0        0.267857    0.898017   -0.193343
      7          8           0        0.064096    1.784993    0.577313
      8          8           0       -0.747772    0.049779   -0.655481
      9          6           0       -1.813171   -0.296332    0.178057
     10          8           0       -1.711855   -0.364616    1.363368
     11          6           0       -3.028949   -0.608262   -0.648013
     12          1           0       -2.772636   -1.298737   -1.453672
     13          1           0       -3.393862    0.313157   -1.109709
     14          1           0       -3.802346   -1.033603   -0.012028
     15          1           0        1.419216    0.134576   -1.824685
     16          1           0        2.201275    1.424086   -0.869260
 ---------------------------------------------------------------------

 SCF Done:  E(RHF) =  -670.136958167     A.U. after    2 cycles

 The electronic state is 1-A.
 Alpha  occ. eigenvalues --  -69.54732 -20.61009 -20.55440 -20.55195 -11.41166
 Alpha  occ. eigenvalues --  -11.41013 -11.26484 -11.25727  -6.21774  -3.97161
 Alpha  occ. eigenvalues --   -3.97141  -3.97128  -1.57287  -1.50106  -1.46241
 Alpha  occ. eigenvalues --   -1.06461  -1.02352  -0.87876  -0.75890  -0.74412
 Alpha  occ. eigenvalues --   -0.71040  -0.70198  -0.68954  -0.63530  -0.62097
 Alpha  occ. eigenvalues --   -0.60510  -0.58981  -0.57039  -0.54053  -0.50449
 Alpha  occ. eigenvalues --   -0.49583  -0.48829  -0.47046  -0.46678  -0.43844
 Alpha virt. eigenvalues --    0.02966   0.03629   0.04081   0.04390   0.05548
 Alpha virt. eigenvalues --    0.06217   0.06686   0.07862   0.08351   0.09514
 Alpha virt. eigenvalues --    0.09607   0.10016   0.11973   0.12661   0.13703

 Mulliken charges:
               1
     1  Si   0.922845
     2  C   -0.960976
     3  H   -0.169222
     4  H   -0.141054
     5  H   -0.139441
     6  C    2.096510
     7  O   -1.233053
     8  O   -1.372675
     9  C    1.826794
    10  O   -1.153991
    11  C   -0.632449
    12  H    0.219562
    13  H    0.253109
    14  H    0.193201
    15  H    0.114977
    16  H    0.175863
 Sum of Mulliken charges =  -0.00000

 Dipole moment (field-independent basis, Debye):
    X=              0.2813    Y=             -1.5755    Z=             -3.7615  Tot=              4.0878

 Test job not archived.
 1\1\GINC-SE094\SP\RHF\Aug-CC-pVDZ\C4H8O3Si1\OHZDE\08-Apr-2025\0\\#t hf
  aug-cc-pvdz iop(5/13=1,5/36=2,99/5=2) pseudo=read geom=check guess=(r
 ead,tcheck) scf=(maxcycle=1)\\title\\0,1\Si,0,2.514895,-0.790356,0.185
 577\C,0,1.575228,0.531167,-0.819244\H,0,3.775149,-1.081926,-0.533989\H
 ,0,1.706649,-2.024539,0.281536\H,0,2.816481,-0.276821,1.537393\C,0,0.2
 67857,0.898017,-0.193343\O,0,0.064096,1.784993,0.577313\O,0,-0.747772,
 0.049779,-0.655481\C,0,-1.813171,-0.296332,0.178057\O,0,-1.711855,-0.3
 64616,1.363368\C,0,-3.028949,-0.608262,-0.648013\H,0,-2.772636,-1.2987

 Normal termination of Gaussian 16 at Tue Apr  8 23:55:44 2025.
