 Gaussian 16, Revision C.01,

 ----------------------------------------------------------------------
 #t hf aug-cc-pvdz symm=none int=(grid=ultrafine) guess=(read,tcheck) s
 table=(opt,rrhf)
 ----------------------------------------------------------------------
 -----
 title
 -----
 Symbolic Z-matrix:
 Charge =  0 Multiplicity = 1

 SCF Done:  E(RHF) =  -737.278105630     A.U. after   16 cycles
 Normal termination of Gaussian 16 at Tue Apr  8 23:57:41 2025.
 Gaussian 16:  ES64L-G16RevC.01  3-Jul-2019

 ----------------------------------------------------------------------
 #t hf aug-cc-pvdz iop(5/13=1,5/36=2,99/5=2) pseudo=read geom=check gue
 ss=(read,tcheck) scf=(maxcycle=1)
 ----------------------------------------------------------------------
 -----
 title
 -----
 Structure from the checkpoint file:  "BDE49_nonexpt_2027_mol1.chk"
 Charge =  0 Multiplicity = 1

                         Standard orientation:
 ---------------------------------------------------------------------
 Center     Atomic      Atomic             Coordinates (Angstroms)
 Number     Number       Type             X           Y           Z
 ---------------------------------------------------------------------
      1         14           0        1.160843   -1.595382    0.050100
      2          6           0        0.067693   -0.109586   -0.531432
      3          7           0       -1.355420   -0.234738   -0.047429
      4          8           0       -1.496447   -0.504088    1.134464
      5          8           0       -2.237966   -0.080833   -0.869909
      6          7           0        0.644002    1.204145   -0.029152
      7          1           0        0.028381   -0.008316   -1.614838
      8          8           0       -0.102685    2.033025    0.438954
      9          8           0        1.851124    1.306500   -0.184987
     10          1           0        1.599514   -1.342204    1.430583
     11          1           0        2.290303   -1.695977   -0.889720
     12          1           0        0.291569   -2.783320   -0.050943
 ---------------------------------------------------------------------

 SCF Done:  E(RHF) =  -737.735086125     A.U. after    2 cycles

 The electronic state is 1-A.
 Alpha  occ. eigenvalues --  -69.58744 -20.63375 -20.62797 -20.62569 -20.62298
 Alpha  occ. eigenvalues --  -15.83187 -15.82414 -11.38978  -6.25764  -4.01180
 Alpha  occ. eigenvalues --   -4.01099  -4.01087  -1.71633  -1.70195  -1.55333
 Alpha  occ. eigenvalues --   -1.54503  -1.20102  -1.03414  -0.90400  -0.84800
 Alpha  occ. eigenvalues --   -0.82850  -0.81873  -0.77805  -0.77538  -0.75456
 Alpha  occ. eigenvalues --   -0.72116  -0.58915  -0.55215  -0.54198  -0.52910
 Alpha  occ. eigenvalues --   -0.52143  -0.51776  -0.50697  -0.48889  -0.47382
 Alpha virt. eigenvalues --    0.02070   0.02253   0.03341   0.03870   0.05070
 Alpha virt. eigenvalues --    0.05576   0.07045   0.08031   0.08388   0.11454
 Alpha virt. eigenvalues --    0.11937   0.12394   0.12869   0.14385   0.14601

 Mulliken charges:
               1
     1  Si   1.009735
     2  C   -0.794959
     3  N    2.870952
     4  O   -1.441902
     5  O   -1.336471
     6  N    2.726404
     7  H    0.059922
     8  O   -1.323976
     9  O   -1.438815
    10  H   -0.054323
    11  H   -0.122305
    12  H   -0.154263
 Sum of Mulliken charges =  -0.00000

 Dipole moment (field-independent basis, Debye):
    X=              2.1526    Y=             -2.9062    Z=             -1.6855  Tot=              3.9900

 Test job not archived.
 1\1\GINC-SE096\SP\RHF\Aug-CC-pVDZ\C1H4N2O4Si1\OHZDE\08-Apr-2025\0\\#t
 hf aug-cc-pvdz iop(5/13=1,5/36=2,99/5=2) pseudo=read geom=check guess=
 (read,tcheck) scf=(maxcycle=1)\\title\\0,1\Si,0,1.160844,-1.595381,0.0
 501\C,0,0.067693,-0.109586,-0.531432\N,0,-1.35542,-0.234739,-0.047429\
 O,0,-1.496447,-0.504089,1.134464\O,0,-2.237966,-0.080834,-0.869909\N,0
 ,0.644001,1.204146,-0.029152\H,0,0.028381,-0.008316,-1.614838\O,0,-0.1
 02686,2.033025,0.438954\O,0,1.851123,1.306501,-0.184987\H,0,1.599515,-
 1.342203,1.430583\H,0,2.290304,-1.695975,-0.88972\H,0,0.291571,-2.7833

 Normal termination of Gaussian 16 at Tue Apr  8 23:57:47 2025.
