 Gaussian 16, Revision C.01,

 ----------------------------------------------------------------------
 #t hf aug-cc-pvdz symm=none int=(grid=ultrafine) guess=(read,tcheck) s
 table=(opt,rrhf)
 ----------------------------------------------------------------------
 -----
 title
 -----
 Symbolic Z-matrix:
 Charge =  0 Multiplicity = 1

 SCF Done:  E(RHF) =  -674.233743693     A.U. after   13 cycles
 Normal termination of Gaussian 16 at Wed Apr  9 00:11:38 2025.
 Gaussian 16:  ES64L-G16RevC.01  3-Jul-2019

 ----------------------------------------------------------------------
 #t hf aug-cc-pvdz iop(5/13=1,5/36=2,99/5=2) pseudo=read geom=check gue
 ss=(read,tcheck) scf=(maxcycle=1)
 ----------------------------------------------------------------------
 -----
 title
 -----
 Structure from the checkpoint file:  "BDE49_nonexpt_2380_mol1.chk"
 Charge =  0 Multiplicity = 1

                         Standard orientation:
 ---------------------------------------------------------------------
 Center     Atomic      Atomic             Coordinates (Angstroms)
 Number     Number       Type             X           Y           Z
 ---------------------------------------------------------------------
      1         14           0        1.904779   -0.396995   -0.049961
      2         14           0       -0.121269    0.815045    0.004523
      3          6           0       -1.586960   -0.304878    0.470198
      4          1           0       -0.423106    1.390344   -1.331019
      5          1           0       -0.004491    1.913556    0.996905
      6          1           0        2.156589   -1.023247    1.270423
      7          1           0        3.033656    0.509789   -0.369728
      8          7           0       -2.566001   -0.632056   -0.278793
      9          1           0        1.838236   -1.461927   -1.078770
     10          1           0       -2.484352   -0.196016   -1.203509
     11          1           0       -1.601904   -0.731537    1.482191
 ---------------------------------------------------------------------

 SCF Done:  E(RHF) =  -674.398968994     A.U. after    2 cycles

 The electronic state is 1-A.
 Alpha  occ. eigenvalues --  -69.54187 -69.53703 -15.51351 -11.28437  -6.21421
 Alpha  occ. eigenvalues --   -6.20911  -3.96760  -3.96739  -3.96731  -3.96263
 Alpha  occ. eigenvalues --   -3.96260  -3.96258  -1.21439  -0.86087  -0.78770
 Alpha  occ. eigenvalues --   -0.72434  -0.64305  -0.59892  -0.51851  -0.50385
 Alpha  occ. eigenvalues --   -0.49224  -0.48463  -0.43710  -0.41062
 Alpha virt. eigenvalues --    0.03507   0.03581   0.04549   0.04911   0.06425
 Alpha virt. eigenvalues --    0.06742   0.07176   0.07873   0.08043   0.08586
 Alpha virt. eigenvalues --    0.09255   0.09793   0.09971   0.10389   0.13137

 Mulliken charges:
               1
     1  Si   0.399701
     2  Si   0.688660
     3  C   -0.973562
     4  H   -0.177784
     5  H   -0.148999
     6  H   -0.127369
     7  H   -0.127342
     8  N    0.487450
     9  H   -0.109479
    10  H    0.084518
    11  H    0.004205
 Sum of Mulliken charges =  -0.00000

 Dipole moment (field-independent basis, Debye):
    X=              2.1934    Y=              1.2163    Z=              0.1247  Tot=              2.5111

 Test job not archived.
 1\1\GINC-SE222\SP\RHF\Aug-CC-pVDZ\C1H7N1Si2\OHZDE\09-Apr-2025\0\\#t hf
  aug-cc-pvdz iop(5/13=1,5/36=2,99/5=2) pseudo=read geom=check guess=(r
 ead,tcheck) scf=(maxcycle=1)\\title\\0,1\Si,0,1.904779,-0.396995,-0.04
 9961\Si,0,-0.121269,0.815045,0.004523\C,0,-1.58696,-0.304878,0.470198\
 H,0,-0.423106,1.390344,-1.331019\H,0,-0.004491,1.913556,0.996905\H,0,2
 .156589,-1.023247,1.270423\H,0,3.033656,0.509789,-0.369728\N,0,-2.5660
 01,-0.632056,-0.278793\H,0,1.838236,-1.461927,-1.07877\H,0,-2.484352,-
 0.196016,-1.203509\H,0,-1.601904,-0.731537,1.482191\\Version=ES64L-G16

 Normal termination of Gaussian 16 at Wed Apr  9 00:11:42 2025.
