 Gaussian 16, Revision C.01,

 ----------------------------------------------------------------------
 #t hf aug-cc-pvdz symm=none int=(grid=ultrafine) guess=(read,tcheck) s
 table=(opt,rrhf)
 ----------------------------------------------------------------------
 -----
 title
 -----
 Symbolic Z-matrix:
 Charge =  0 Multiplicity = 1

 SCF Done:  E(RHF) =  -1462.36730834     A.U. after   13 cycles
 Normal termination of Gaussian 16 at Tue Apr  8 23:55:52 2025.
 Gaussian 16:  ES64L-G16RevC.01  3-Jul-2019

 ----------------------------------------------------------------------
 #t hf aug-cc-pvdz iop(5/13=1,5/36=2,99/5=2) pseudo=read geom=check gue
 ss=(read,tcheck) scf=(maxcycle=1)
 ----------------------------------------------------------------------
 -----
 title
 -----
 Structure from the checkpoint file:  "BDE49_nonexpt_1954_mol1.chk"
 Charge =  0 Multiplicity = 1

                         Standard orientation:
 ---------------------------------------------------------------------
 Center     Atomic      Atomic             Coordinates (Angstroms)
 Number     Number       Type             X           Y           Z
 ---------------------------------------------------------------------
      1         14           0        0.670228    1.741465    0.029341
      2          6           0       -1.212295    1.511294   -0.197756
      3         15           0       -1.755245   -0.183159    0.064856
      4          8           0       -3.345510   -0.054090    0.105551
      5          8           0       -1.492556   -0.982710   -1.274807
      6          1           0       -3.784663   -0.882970    0.335560
      7          1           0       -0.526347   -1.190672   -1.389813
      8          8           0       -1.146846   -0.785141    1.280179
      9         15           0        1.688508   -0.301840   -0.047252
     10          1           0        0.950741    2.400205    1.320802
     11          1           0        1.207332    2.545096   -1.088870
     12          8           0        3.265346   -0.025043   -0.112183
     13          1           0        3.691063   -0.540687   -0.809239
     14          8           0        1.534349   -0.993272    1.371766
     15          1           0        0.568920   -1.095519    1.567997
     16          8           0        1.187813   -1.083497   -1.216811
     17          1           0       -1.518680    1.839143   -1.193297
     18          1           0       -1.717497    2.142136    0.538989
 ---------------------------------------------------------------------

 SCF Done:  E(RHF) =  -1462.97924266     A.U. after    2 cycles

 The electronic state is 1-A.
 Alpha  occ. eigenvalues --  -84.44071 -84.42896 -69.57130 -20.60194 -20.59867
 Alpha  occ. eigenvalues --  -20.57461 -20.57381 -20.51897 -20.51868 -11.26399
 Alpha  occ. eigenvalues --   -6.89287  -6.88248  -6.24160  -4.43408  -4.42909
 Alpha  occ. eigenvalues --   -4.42327  -4.42010  -4.41803  -4.40650  -3.99520
 Alpha  occ. eigenvalues --   -3.99480  -3.99468  -1.53860  -1.53268  -1.47328
 Alpha  occ. eigenvalues --   -1.46693  -1.40558  -1.39678  -1.02466  -0.86770
 Alpha  occ. eigenvalues --   -0.84625  -0.75807  -0.73956  -0.71404  -0.69608
 Alpha  occ. eigenvalues --   -0.68371  -0.65060  -0.63192  -0.62699  -0.60600
 Alpha  occ. eigenvalues --   -0.58846  -0.57953  -0.56049  -0.55582  -0.54901
 Alpha  occ. eigenvalues --   -0.52334  -0.51511  -0.49786  -0.48670  -0.47055
 Alpha  occ. eigenvalues --   -0.46785  -0.46290  -0.41662
 Alpha virt. eigenvalues --    0.02975   0.03636   0.04179   0.04799   0.05675
 Alpha virt. eigenvalues --    0.06475   0.07185   0.07746   0.08188   0.08949
 Alpha virt. eigenvalues --    0.10651   0.11014   0.11731   0.11833   0.12264

 Mulliken charges:
               1
     1  Si   0.827733
     2  C   -1.216231
     3  P    4.386294
     4  O   -1.396157
     5  O   -1.618844
     6  H    0.373569
     7  H    0.637317
     8  O   -1.713527
     9  P    3.415326
    10  H   -0.047528
    11  H   -0.085825
    12  O   -1.364215
    13  H    0.320454
    14  O   -1.697804
    15  H    0.698954
    16  O   -1.687425
    17  H    0.109371
    18  H    0.058539
 Sum of Mulliken charges =  -0.00000

 Dipole moment (field-independent basis, Debye):
    X=             -0.7890    Y=              2.7083    Z=             -0.7974  Tot=              2.9315

 Test job not archived.
 1\1\GINC-SE094\SP\RHF\Aug-CC-pVDZ\C1H8O6P2Si1\OHZDE\08-Apr-2025\0\\#t
 hf aug-cc-pvdz iop(5/13=1,5/36=2,99/5=2) pseudo=read geom=check guess=
 (read,tcheck) scf=(maxcycle=1)\\title\\0,1\Si,0,0.670228,1.741465,0.02
 9341\C,0,-1.212295,1.511294,-0.197756\P,0,-1.755245,-0.183159,0.064856
 \O,0,-3.34551,-0.05409,0.105551\O,0,-1.492556,-0.98271,-1.274807\H,0,-
 3.784663,-0.88297,0.33556\H,0,-0.526347,-1.190672,-1.389813\O,0,-1.146
 846,-0.785141,1.280179\P,0,1.688508,-0.30184,-0.047252\H,0,0.950741,2.
 400205,1.320802\H,0,1.207332,2.545096,-1.08887\O,0,3.265346,-0.025043,

 Normal termination of Gaussian 16 at Tue Apr  8 23:56:03 2025.
