 Gaussian 16, Revision C.01,

 ----------------------------------------------------------------------
 #t hf aug-cc-pvdz symm=none int=(grid=ultrafine) guess=(read,tcheck) s
 table=(opt,rrhf)
 ----------------------------------------------------------------------
 -----
 title
 -----
 Symbolic Z-matrix:
 Charge =  0 Multiplicity = 1

 SCF Done:  E(RHF) =  -384.932986791     A.U. after   13 cycles
 Normal termination of Gaussian 16 at Wed Apr  9 00:48:18 2025.
 Gaussian 16:  ES64L-G16RevC.01  3-Jul-2019

 ----------------------------------------------------------------------
 #t hf aug-cc-pvdz iop(5/13=1,5/36=2,99/5=2) pseudo=read geom=check gue
 ss=(read,tcheck) scf=(maxcycle=1)
 ----------------------------------------------------------------------
 -----
 title
 -----
 Structure from the checkpoint file:  "BDE49_nonexpt_85_mol1.chk"
 Charge =  0 Multiplicity = 1

                         Standard orientation:
 ---------------------------------------------------------------------
 Center     Atomic      Atomic             Coordinates (Angstroms)
 Number     Number       Type             X           Y           Z
 ---------------------------------------------------------------------
      1          5           0       -0.447337    1.120010    0.722874
      2          5           0        0.447337    1.120019   -0.722859
      3          8           0        1.615496    0.387029   -0.907885
      4          6           0        2.084371   -0.418407   -0.006369
      5          7           0        2.532184   -1.141777    0.774943
      6          8           0       -1.615491    0.387011    0.907894
      7          6           0       -2.084372   -0.418406    0.006363
      8          7           0       -2.532191   -1.141757   -0.774962
      9          1           0        0.184842    1.806596   -1.657277
     10          1           0       -0.184823    1.806549    1.657314
 ---------------------------------------------------------------------

 SCF Done:  E(RHF) =  -385.295696166     A.U. after    2 cycles

 The electronic state is 1-A.
 Alpha  occ. eigenvalues --  -20.67788 -20.67788 -15.53940 -15.53935 -11.37192
 Alpha  occ. eigenvalues --  -11.37192  -7.69368  -7.69347  -1.60702  -1.60572
 Alpha  occ. eigenvalues --   -1.25999  -1.25988  -0.93251  -0.92003  -0.78472
 Alpha  occ. eigenvalues --   -0.73252  -0.70007  -0.69365  -0.67549  -0.63871
 Alpha  occ. eigenvalues --   -0.63408  -0.61132  -0.53053  -0.52052  -0.50784
 Alpha  occ. eigenvalues --   -0.50766  -0.48760
 Alpha virt. eigenvalues --    0.01352   0.02090   0.03112   0.03139   0.05516
 Alpha virt. eigenvalues --    0.05833   0.06326   0.07178   0.07432   0.09285
 Alpha virt. eigenvalues --    0.11341   0.11841   0.12780   0.13005   0.13014

 Mulliken charges:
               1
     1  B    0.317524
     2  B    0.317524
     3  O   -0.939853
     4  C   -0.371317
     5  N    0.800879
     6  O   -0.939853
     7  C   -0.371321
     8  N    0.800881
     9  H    0.192766
    10  H    0.192770
 Sum of Mulliken charges =  -0.00000

 Dipole moment (field-independent basis, Debye):
    X=             -0.0000    Y=              5.4168    Z=              0.0000  Tot=              5.4168

 Test job not archived.
 1\1\GINC-SE284\SP\RHF\Aug-CC-pVDZ\C2H2B2N2O2\OHZDE\09-Apr-2025\0\\#t h
 f aug-cc-pvdz iop(5/13=1,5/36=2,99/5=2) pseudo=read geom=check guess=(
 read,tcheck) scf=(maxcycle=1)\\title\\0,1\B,0,-0.447337,1.12001,0.7228
 74\B,0,0.447337,1.120019,-0.722859\O,0,1.615496,0.387029,-0.907885\C,0
 ,2.084371,-0.418407,-0.006369\N,0,2.532184,-1.141777,0.774943\O,0,-1.6
 15491,0.387011,0.907894\C,0,-2.084372,-0.418406,0.006363\N,0,-2.532191
 ,-1.141757,-0.774962\H,0,0.184842,1.806596,-1.657277\H,0,-0.184823,1.8
 06549,1.657314\\Version=ES64L-G16RevC.01\State=1-A\HF=-385.2956962\RMS

 Normal termination of Gaussian 16 at Wed Apr  9 00:48:25 2025.
