 Gaussian 16, Revision C.01,

 ----------------------------------------------------------------------
 #t hf aug-cc-pvdz symm=none int=(grid=ultrafine) guess=(read,tcheck) s
 table=opt
 ----------------------------------------------------------------------
 -----
 title
 -----
 Symbolic Z-matrix:
 Charge =  0 Multiplicity = 2

 SCF Done:  E(UHF) =  -270.599627189     A.U. after   16 cycles

 1\1\GINC-SE072\Stability\UHF\Aug-CC-pVDZ\C5H11O1\OHZDE\08-Apr-2025\0\\
 #t hf aug-cc-pvdz symm=none int=(grid=ultrafine) guess=(read,tcheck) s
 table=opt\\title\\0,2\O,0,2.103957,0.021159,0.000003\C,0,0.963383,0.76
 8386,-0.000206\C,0,-0.369358,-0.011504,0.\C,0,-1.526791,0.999726,-0.00
 0301\H,0,-1.495093,1.643795,0.884748\H,0,-2.491711,0.485088,-0.000155\
 H,0,-1.495084,1.643277,-0.885727\C,0,-0.428341,-0.891539,1.259789\H,0,
 -0.416274,-0.282507,2.169819\H,0,0.429201,-1.568034,1.29485\H,0,-1.340
 773,-1.494428,1.272911\C,0,-0.428318,-0.892271,-1.259276\H,0,-0.416263

 Normal termination of Gaussian 16 at Tue Apr  8 22:55:18 2025.
 Gaussian 16:  ES64L-G16RevC.01  3-Jul-2019

 ----------------------------------------------------------------------
 #t hf aug-cc-pvdz iop(5/13=1,5/36=2,99/5=2) pseudo=read geom=check gue
 ss=(read,tcheck) scf=(maxcycle=1)
 ----------------------------------------------------------------------
 -----
 title
 -----
 Structure from the checkpoint file:  "BDE49_expt_1849_mol2.chk"
 Charge =  0 Multiplicity = 2

                         Standard orientation:
 ---------------------------------------------------------------------
 Center     Atomic      Atomic             Coordinates (Angstroms)
 Number     Number       Type             X           Y           Z
 ---------------------------------------------------------------------
      1          8           0        2.103957    0.021159    0.000003
      2          6           0        0.963383    0.768386   -0.000206
      3          6           0       -0.369358   -0.011504    0.000000
      4          6           0       -1.526791    0.999726   -0.000301
      5          1           0       -1.495093    1.643795    0.884748
      6          1           0       -2.491711    0.485088   -0.000155
      7          1           0       -1.495084    1.643277   -0.885727
      8          6           0       -0.428341   -0.891539    1.259789
      9          1           0       -0.416274   -0.282507    2.169819
     10          1           0        0.429201   -1.568034    1.294850
     11          1           0       -1.340773   -1.494428    1.272911
     12          6           0       -0.428318   -0.892271   -1.259276
     13          1           0       -0.416263   -0.283766   -2.169659
     14          1           0       -1.340735   -1.495189   -1.272050
     15          1           0        0.429241   -1.568764   -1.293942
     16          1           0        1.021212    1.456951   -0.869190
     17          1           0        1.021175    1.457514    0.868329
 ---------------------------------------------------------------------

 SCF Done:  E(UHF) =  -270.887043611     A.U. after    2 cycles

 The electronic state is 2-A.
 Alpha  occ. eigenvalues --  -20.60589 -11.28583 -11.24425 -11.22907 -11.22283
 Alpha  occ. eigenvalues --  -11.22261  -1.49034  -1.10544  -0.94021  -0.93613
 Alpha  occ. eigenvalues --   -0.91385  -0.75422  -0.70474  -0.65695  -0.64359
 Alpha  occ. eigenvalues --   -0.61019  -0.59051  -0.54662  -0.54591  -0.54172
 Alpha  occ. eigenvalues --   -0.52350  -0.50456  -0.47697  -0.46721  -0.43927
 Alpha virt. eigenvalues --    0.03581   0.03880   0.03909   0.04487   0.06314
 Alpha virt. eigenvalues --    0.06464   0.06728   0.06981   0.07477   0.09516
 Alpha virt. eigenvalues --    0.09787   0.12515   0.13020   0.14380   0.14450

  Beta  occ. eigenvalues --  -20.56630 -11.28893 -11.24430 -11.22911 -11.22285
  Beta  occ. eigenvalues --  -11.22263  -1.35845  -1.10104  -0.93984  -0.93579
  Beta  occ. eigenvalues --   -0.89480  -0.74825  -0.64914  -0.63284  -0.62418
  Beta  occ. eigenvalues --   -0.58164  -0.57473  -0.54268  -0.52971  -0.52301
  Beta  occ. eigenvalues --   -0.52241  -0.47551  -0.47210  -0.41710
  Beta virt. eigenvalues --    0.03588   0.03880   0.03907   0.04502   0.06210
  Beta virt. eigenvalues --    0.06466   0.06730   0.06833   0.07495   0.09324
  Beta virt. eigenvalues --    0.09640   0.10079   0.12549   0.13073   0.14395

 Mulliken charges and spin densities:
               1          2
     1  O   -0.886300   1.056812
     2  C    1.202230  -0.213709
     3  C   -3.443176   0.014362
     4  C    0.273221   0.005033
     5  H    0.183352   0.000116
     6  H    0.213938  -0.000443
     7  H    0.183355   0.000115
     8  C    0.315146   0.000016
     9  H    0.189909  -0.000153
    10  H    0.235911  -0.003230
    11  H    0.180939  -0.000607
    12  C    0.315150   0.000020
    13  H    0.189902  -0.000153
    14  H    0.180944  -0.000606
    15  H    0.235921  -0.003231
    16  H    0.214781   0.072842
    17  H    0.214778   0.072817
 Sum of Mulliken charges =  -0.00000   1.00000

 Dipole moment (field-independent basis, Debye):
    X=             -1.5247    Y=              0.8190    Z=             -0.0003  Tot=              1.7308
                          Isotropic Fermi Contact Couplings
        Atom                 a.u.       MegaHertz       Gauss      10(-4) cm-1
     1  O(17)              0.25918    -157.11459     -56.06239     -52.40779
     2  C(13)             -0.05193     -58.38042     -20.83159     -19.47361
     3  C(13)             -0.00195      -2.19213      -0.78221      -0.73122
     4  C(13)             -0.00156      -1.75355      -0.62571      -0.58492
     5  H(1)               0.00005       0.24006       0.08566       0.08008
     6  H(1)              -0.00019      -0.85544      -0.30524      -0.28534
     7  H(1)               0.00005       0.23992       0.08561       0.08003
     8  C(13)             -0.00126      -1.41488      -0.50486      -0.47195

 Normal termination of Gaussian 16 at Tue Apr  8 22:55:24 2025.
