 Gaussian 16, Revision C.01,

 ----------------------------------------------------------------------
 #t hf aug-cc-pvdz symm=none int=(grid=ultrafine) guess=(read,tcheck) s
 table=(opt,rrhf)
 ----------------------------------------------------------------------
 -----
 title
 -----
 Symbolic Z-matrix:
 Charge =  0 Multiplicity = 1

 SCF Done:  E(RHF) =  -1330.44515553     A.U. after   15 cycles
 Normal termination of Gaussian 16 at Wed Apr  9 00:22:38 2025.
 Gaussian 16:  ES64L-G16RevC.01  3-Jul-2019

 ----------------------------------------------------------------------
 #t hf aug-cc-pvdz iop(5/13=1,5/36=2,99/5=2) pseudo=read geom=check gue
 ss=(read,tcheck) scf=(maxcycle=1)
 ----------------------------------------------------------------------
 -----
 title
 -----
 Structure from the checkpoint file:  "BDE49_nonexpt_2667_mol1.chk"
 Charge =  0 Multiplicity = 1

                         Standard orientation:
 ---------------------------------------------------------------------
 Center     Atomic      Atomic             Coordinates (Angstroms)
 Number     Number       Type             X           Y           Z
 ---------------------------------------------------------------------
      1          9           0        2.265566   -0.211711   -0.000219
      2         16           0        0.819843   -1.110006    0.000233
      3          6           0       -0.419327    0.067798    0.000468
      4         16           0       -1.885174   -0.683543   -0.000240
      5         16           0       -0.128025    1.780723   -0.000052
      6          1           0        1.219564    1.703828    0.000102
 ---------------------------------------------------------------------

 SCF Done:  E(RHF) =  -1330.74460944     A.U. after    2 cycles

 The electronic state is 1-A.
 Alpha  occ. eigenvalues --  -94.08870 -94.02114 -93.95504 -26.49742 -11.41231
 Alpha  occ. eigenvalues --   -8.36115  -8.30253  -8.23740  -6.33865  -6.33561
 Alpha  occ. eigenvalues --   -6.33269  -6.28076  -6.27912  -6.27702  -6.21584
 Alpha  occ. eigenvalues --   -6.21274  -6.21165  -1.59193  -1.20690  -1.06896
 Alpha  occ. eigenvalues --   -1.00852  -0.77624  -0.71598  -0.67791  -0.67610
 Alpha  occ. eigenvalues --   -0.58237  -0.56924  -0.55009  -0.52426  -0.42640
 Alpha  occ. eigenvalues --   -0.37999  -0.37015
 Alpha virt. eigenvalues --    0.01709   0.03520   0.05888   0.06733   0.07834
 Alpha virt. eigenvalues --    0.08570   0.10253   0.10643   0.12864   0.12892
 Alpha virt. eigenvalues --    0.14166   0.14490   0.16293   0.17415   0.17662

 Mulliken charges:
               1
     1  F   -0.710325
     2  S    1.128246
     3  C   -1.145085
     4  S    0.180484
     5  S    0.122744
     6  H    0.423936
 Sum of Mulliken charges =   0.00000

 Dipole moment (field-independent basis, Debye):
    X=              1.5939    Y=              1.1755    Z=              0.0003  Tot=              1.9805

 Test job not archived.
 1\1\GINC-SE284\SP\RHF\Aug-CC-pVDZ\C1H1F1S3\OHZDE\09-Apr-2025\0\\#t hf
 aug-cc-pvdz iop(5/13=1,5/36=2,99/5=2) pseudo=read geom=check guess=(re
 ad,tcheck) scf=(maxcycle=1)\\title\\0,1\F,0,-2.265566,-0.21171,0.00021
 9\S,0,-0.819844,-1.110006,-0.000233\C,0,0.419327,0.067798,-0.000468\S,
 0,1.885174,-0.683544,0.00024\S,0,0.128025,1.780723,0.000052\H,0,-1.219
 564,1.703828,-0.000102\\Version=ES64L-G16RevC.01\State=1-A\HF=-1330.74
 46094\RMSD=5.112e-03\Dipole=-0.6270953,0.4624936,-0.0001255\Quadrupole
 =-2.1963381,3.0883331,-0.891995,-0.7104989,0.0010921,0.0002446\PG=C01

 Normal termination of Gaussian 16 at Wed Apr  9 00:22:41 2025.
