 Gaussian 16, Revision C.01,

 ----------------------------------------------------------------------
 #t hf aug-cc-pvdz symm=none int=(grid=ultrafine) guess=(read,tcheck) s
 table=(opt,rrhf)
 ----------------------------------------------------------------------
 -----
 title
 -----
 Symbolic Z-matrix:
 Charge =  0 Multiplicity = 1

 SCF Done:  E(RHF) =  -208.828531335     A.U. after   13 cycles
 Normal termination of Gaussian 16 at Tue Apr  8 22:37:25 2025.
 Gaussian 16:  ES64L-G16RevC.01  3-Jul-2019

 ----------------------------------------------------------------------
 #t hf aug-cc-pvdz iop(5/13=1,5/36=2,99/5=2) pseudo=read geom=check gue
 ss=(read,tcheck) scf=(maxcycle=1)
 ----------------------------------------------------------------------
 -----
 title
 -----
 Structure from the checkpoint file:  "BDE49_expt_1167_mol1.chk"
 Charge =  0 Multiplicity = 1

                         Standard orientation:
 ---------------------------------------------------------------------
 Center     Atomic      Atomic             Coordinates (Angstroms)
 Number     Number       Type             X           Y           Z
 ---------------------------------------------------------------------
      1          6           0        1.293365    0.369258   -0.000004
      2          6           0       -0.072198    1.021252    0.000003
      3          6           0       -1.190742    0.081834    0.000004
      4          1           0       -0.172753    1.675016   -0.874774
      5          1           0       -0.172747    1.675011    0.874784
      6          7           0       -2.066070   -0.667467    0.000006
      7          6           0        1.536332   -0.935019   -0.000007
      8          1           0        2.117289    1.077813   -0.000006
      9          1           0        0.737550   -1.669100   -0.000006
     10          1           0        2.552606   -1.310419   -0.000012
 ---------------------------------------------------------------------

 SCF Done:  E(RHF) =  -209.042788544     A.U. after    2 cycles

 The electronic state is 1-A.
 Alpha  occ. eigenvalues --  -15.51514 -11.30267 -11.28500 -11.27216 -11.25387
 Alpha  occ. eigenvalues --   -1.23728  -1.11327  -1.00129  -0.81486  -0.70987
 Alpha  occ. eigenvalues --   -0.67165  -0.64949  -0.61578  -0.59373  -0.53942
 Alpha  occ. eigenvalues --   -0.49941  -0.49784  -0.39713
 Alpha virt. eigenvalues --    0.02780   0.03874   0.04618   0.04621   0.07104
 Alpha virt. eigenvalues --    0.08633   0.09756   0.10729   0.12613   0.13035
 Alpha virt. eigenvalues --    0.14268   0.14468   0.15046   0.15609   0.16706

 Mulliken charges:
               1
     1  C    0.579829
     2  C   -0.254915
     3  C   -1.459738
     4  H    0.305843
     5  H    0.305842
     6  N    0.874193
     7  C   -0.079941
     8  H   -0.177901
     9  H    0.031745
    10  H   -0.124957
 Sum of Mulliken charges =  -0.00000

 Dipole moment (field-independent basis, Debye):
    X=              3.6671    Y=              2.8811    Z=             -0.0000  Tot=              4.6635

 Test job not archived.
 1\1\GINC-SE090\SP\RHF\Aug-CC-pVDZ\C4H5N1\OHZDE\08-Apr-2025\0\\#t hf au
 g-cc-pvdz iop(5/13=1,5/36=2,99/5=2) pseudo=read geom=check guess=(read
 ,tcheck) scf=(maxcycle=1)\\title\\0,1\C,0,1.293365,0.369258,-0.000004\
 C,0,-0.072198,1.021252,0.000003\C,0,-1.190742,0.081834,0.000004\H,0,-0
 .172753,1.675016,-0.874774\H,0,-0.172747,1.675011,0.874784\N,0,-2.0660
 7,-0.667467,0.000006\C,0,1.536332,-0.935019,-0.000007\H,0,2.117289,1.0
 77813,-0.000006\H,0,0.73755,-1.6691,-0.000006\H,0,2.552606,-1.310419,-
 0.000012\\Version=ES64L-G16RevC.01\State=1-A\HF=-209.0427885\RMSD=2.10

 Normal termination of Gaussian 16 at Tue Apr  8 22:37:28 2025.
