 Gaussian 16, Revision C.01,

 ----------------------------------------------------------------------
 #t hf aug-cc-pvdz symm=none int=(grid=ultrafine) guess=(read,tcheck) s
 table=opt
 ----------------------------------------------------------------------
 -----
 title
 -----
 Symbolic Z-matrix:
 Charge =  0 Multiplicity = 2

 SCF Done:  E(UHF) =  -735.267941895     A.U. after   17 cycles
 Normal termination of Gaussian 16 at Tue Apr  8 22:39:29 2025.
 Gaussian 16:  ES64L-G16RevC.01  3-Jul-2019

 ----------------------------------------------------------------------
 #t hf aug-cc-pvdz iop(5/13=1,5/36=2,99/5=2) pseudo=read geom=check gue
 ss=(read,tcheck) scf=(maxcycle=1)
 ----------------------------------------------------------------------
 -----
 title
 -----
 Structure from the checkpoint file:  "BDE49_expt_129_mol2.chk"
 Charge =  0 Multiplicity = 2

                         Standard orientation:
 ---------------------------------------------------------------------
 Center     Atomic      Atomic             Coordinates (Angstroms)
 Number     Number       Type             X           Y           Z
 ---------------------------------------------------------------------
      1          6           0       -0.412939   -0.011576   -0.000002
      2          6           0       -0.976843    1.338132   -0.000015
      3          9           0       -0.766453   -0.721555    1.091226
      4         17           0        1.429541    0.077454    0.000005
      5          9           0       -0.766444   -0.721574   -1.091220
      6          1           0       -1.083719    1.856065    0.941568
      7          1           0       -1.083708    1.856050   -0.941607
 ---------------------------------------------------------------------

 SCF Done:  E(UHF) =  -735.600378572     A.U. after    2 cycles

 The electronic state is 2-A.
 Alpha  occ. eigenvalues -- -105.58363 -26.51170 -26.51168 -11.50593 -11.29866
 Alpha  occ. eigenvalues --  -10.63217  -7.80303  -7.79744  -7.79706  -1.68644
 Alpha  occ. eigenvalues --   -1.61530  -1.13247  -1.04554  -0.88986  -0.79279
 Alpha  occ. eigenvalues --   -0.76215  -0.75793  -0.68064  -0.64438  -0.63805
 Alpha  occ. eigenvalues --   -0.62170  -0.55294  -0.49873  -0.48533  -0.42485
 Alpha virt. eigenvalues --    0.03519   0.04810   0.08029   0.08853   0.10627
 Alpha virt. eigenvalues --    0.11896   0.12068   0.13370   0.15549   0.16404
 Alpha virt. eigenvalues --    0.17410   0.17659   0.20243   0.21485   0.26251

  Beta  occ. eigenvalues -- -105.58222 -26.51123 -26.51120 -11.50962 -11.27410
  Beta  occ. eigenvalues --  -10.63065  -7.79871  -7.79620  -7.79540  -1.68550
  Beta  occ. eigenvalues --   -1.61394  -1.11151  -0.99851  -0.87176  -0.79069
  Beta  occ. eigenvalues --   -0.75164  -0.74719  -0.67770  -0.63913  -0.62730
  Beta  occ. eigenvalues --   -0.61300  -0.53458  -0.48283  -0.48276
  Beta virt. eigenvalues --    0.03513   0.04086   0.04842   0.08225   0.09879
  Beta virt. eigenvalues --    0.11421   0.12074   0.12091   0.14053   0.15613
  Beta virt. eigenvalues --    0.17128   0.17576   0.18193   0.21379   0.21817

 Mulliken charges and spin densities:
               1          2
     1  C    1.592662  -0.142201
     2  C   -0.180602   1.268842
     3  F   -0.699641  -0.001437
     4  Cl  -0.149956   0.067490
     5  F   -0.699640  -0.001437
     6  H    0.068589  -0.095629
     7  H    0.068588  -0.095629
 Sum of Mulliken charges =  -0.00000   1.00000

 Dipole moment (field-independent basis, Debye):
    X=             -1.0988    Y=              2.0800    Z=             -0.0000  Tot=              2.3524
                          Isotropic Fermi Contact Couplings
        Atom                 a.u.       MegaHertz       Gauss      10(-4) cm-1
     1  C(13)             -0.06926     -77.85788     -27.78163     -25.97059
     2  C(13)              0.20293     228.12774      81.40165      76.09522
     3  F(19)              0.00899      37.80490      13.48973      12.61036
     4  Cl(35)             0.06392      28.02774      10.00100       9.34905
     5  F(19)              0.00899      37.80541      13.48991      12.61053
     6  H(1)              -0.02361    -105.52926     -37.65546     -35.20077
     7  H(1)              -0.02361    -105.52914     -37.65542     -35.20073
 --------------------------------------------------------

 Normal termination of Gaussian 16 at Tue Apr  8 22:39:31 2025.
