 Gaussian 16, Revision C.01,

 ----------------------------------------------------------------------
 #t hf aug-cc-pvdz symm=none int=(grid=ultrafine) guess=(read,tcheck) s
 table=(opt,rrhf)
 ----------------------------------------------------------------------
 -----
 title
 -----
 Symbolic Z-matrix:
 Charge =  0 Multiplicity = 1

 SCF Done:  E(RHF) =  -594.146814450     A.U. after   16 cycles
 Normal termination of Gaussian 16 at Tue Apr  8 23:19:56 2025.
 Gaussian 16:  ES64L-G16RevC.01  3-Jul-2019

 ----------------------------------------------------------------------
 #t hf aug-cc-pvdz iop(5/13=1,5/36=2,99/5=2) pseudo=read geom=check gue
 ss=(read,tcheck) scf=(maxcycle=1)
 ----------------------------------------------------------------------
 -----
 title
 -----
 Structure from the checkpoint file:  "BDE49_nonexpt_1115_mol1.chk"
 Charge =  0 Multiplicity = 1

                         Standard orientation:
 ---------------------------------------------------------------------
 Center     Atomic      Atomic             Coordinates (Angstroms)
 Number     Number       Type             X           Y           Z
 ---------------------------------------------------------------------
      1          9           0       -1.536467   -1.221721   -0.000000
      2          8           0        0.119322   -1.306867   -0.000000
      3         15           0        0.765689    0.121245    0.000000
      4          6           0        0.119322    1.032143    1.448717
      5          6           0        0.119322    1.032143   -1.448717
      6          1           0        0.423136    0.513265    2.358547
      7          1           0       -0.970428    1.063766    1.395936
      8          1           0        0.525506    2.045989    1.462167
      9          1           0        0.423136    0.513265   -2.358547
     10          1           0        0.525506    2.045989   -1.462167
     11          1           0       -0.970428    1.063766   -1.395936
 ---------------------------------------------------------------------

 SCF Done:  E(RHF) =  -594.442823865     A.U. after    2 cycles

 The electronic state is 1-A'.
 Alpha  occ. eigenvalues --  -84.33815 -26.44026 -20.68729 -11.26114 -11.26107
 Alpha  occ. eigenvalues --   -6.80718  -4.34217  -4.32936  -4.32357  -1.54865
 Alpha  occ. eigenvalues --   -1.39394  -1.03462  -0.97353  -0.78178  -0.65259
 Alpha  occ. eigenvalues --   -0.64442  -0.62856  -0.59414  -0.59023  -0.58312
 Alpha  occ. eigenvalues --   -0.58243  -0.54490  -0.54343  -0.47355  -0.33807
 Alpha virt. eigenvalues --    0.02307   0.04115   0.04359   0.05189   0.05729
 Alpha virt. eigenvalues --    0.06782   0.07745   0.08015   0.11049   0.11734
 Alpha virt. eigenvalues --    0.13189   0.15025   0.15707   0.16099   0.16541

 Mulliken charges:
               1
     1  F   -0.407122
     2  O   -0.815835
     3  P    2.303845
     4  C   -0.952162
     5  C   -0.952162
     6  H    0.093275
     7  H    0.168421
     8  H    0.150021
     9  H    0.093275
    10  H    0.150021
    11  H    0.168421
 Sum of Mulliken charges =  -0.00000

 Dipole moment (field-independent basis, Debye):
    X=              1.7026    Y=              3.7409    Z=              0.0000  Tot=              4.1101

 Test job not archived.
 1\1\GINC-SE227\SP\RHF\Aug-CC-pVDZ\C2H6F1O1P1\OHZDE\08-Apr-2025\0\\#t h
 f aug-cc-pvdz iop(5/13=1,5/36=2,99/5=2) pseudo=read geom=check guess=(
 read,tcheck) scf=(maxcycle=1)\\title\\0,1\F,0,-1.536467,-1.221721,0.\O
 ,0,0.119322,-1.306867,0.\P,0,0.765689,0.121245,0.\C,0,0.119322,1.03214
 3,1.448717\C,0,0.119322,1.032143,-1.448717\H,0,0.423136,0.513265,2.358
 547\H,0,-0.970428,1.063766,1.395936\H,0,0.525506,2.045989,1.462167\H,0
 ,0.423136,0.513265,-2.358547\H,0,0.525506,2.045989,-1.462167\H,0,-0.97
 0428,1.063766,-1.395936\\Version=ES64L-G16RevC.01\State=1-A'\HF=-594.4

 Normal termination of Gaussian 16 at Tue Apr  8 23:19:58 2025.
