 Gaussian 16, Revision C.01,

 ----------------------------------------------------------------------
 #t hf aug-cc-pvdz symm=none int=(grid=ultrafine) guess=(read,tcheck) s
 table=(opt,rrhf)
 ----------------------------------------------------------------------
 -----
 title
 -----
 Symbolic Z-matrix:
 Charge =  0 Multiplicity = 1

 SCF Done:  E(RHF) =  -1644.44365811     A.U. after   15 cycles
 Normal termination of Gaussian 16 at Tue Apr  8 22:40:48 2025.
 Gaussian 16:  ES64L-G16RevC.01  3-Jul-2019

 ----------------------------------------------------------------------
 #t hf aug-cc-pvdz iop(5/13=1,5/36=2,99/5=2) pseudo=read geom=check gue
 ss=(read,tcheck) scf=(maxcycle=1)
 ----------------------------------------------------------------------
 -----
 title
 -----
 Structure from the checkpoint file:  "BDE49_expt_1344_mol1.chk"
 Charge =  0 Multiplicity = 1

                         Standard orientation:
 ---------------------------------------------------------------------
 Center     Atomic      Atomic             Coordinates (Angstroms)
 Number     Number       Type             X           Y           Z
 ---------------------------------------------------------------------
      1          6           0       -0.706378    0.745612    0.104714
      2          6           0       -0.716920   -0.746462    0.095445
      3          6           0        0.539007    1.184873    0.295745
      4          6           0        1.442289   -0.023122    0.430698
      5          6           0        0.520762   -1.206771    0.286551
      6          8           0        2.186543   -0.113961    1.584087
      7          1           0        2.710921    0.690011    1.684267
      8          1           0        0.860523   -2.227860    0.347335
      9          1           0        0.887433    2.205154    0.338287
     10         17           0        2.600964    0.007291   -1.059046
     11         17           0       -2.148580   -1.674559   -0.135407
     12         17           0       -2.124371    1.697832   -0.118577
 ---------------------------------------------------------------------

 SCF Done:  E(RHF) =  -1644.93534610     A.U. after    2 cycles

 The electronic state is 1-A.
 Alpha  occ. eigenvalues -- -105.60041-105.59858-105.56686 -20.60621 -11.40563
 Alpha  occ. eigenvalues --  -11.34589 -11.34325 -11.28351 -11.28142 -10.64837
 Alpha  occ. eigenvalues --  -10.64657 -10.61445  -7.81818  -7.81639  -7.81380
 Alpha  occ. eigenvalues --   -7.81376  -7.81200  -7.81196  -7.78361  -7.78010
 Alpha  occ. eigenvalues --   -7.78002  -1.52327  -1.23631  -1.12794  -1.11995
 Alpha  occ. eigenvalues --   -1.04963  -1.00319  -0.92175  -0.82261  -0.78569
 Alpha  occ. eigenvalues --   -0.73571  -0.69517  -0.64946  -0.64129  -0.62350
 Alpha  occ. eigenvalues --   -0.60167  -0.57985  -0.55487  -0.52520  -0.49718
 Alpha  occ. eigenvalues --   -0.48844  -0.48507  -0.46706  -0.46162  -0.43190
 Alpha  occ. eigenvalues --   -0.35640
 Alpha virt. eigenvalues --    0.02804   0.04081   0.04420   0.05271   0.07160
 Alpha virt. eigenvalues --    0.08665   0.09088   0.10775   0.11434   0.11470
 Alpha virt. eigenvalues --    0.12614   0.13370   0.13561   0.14230   0.15009

 Mulliken charges:
               1
     1  C    0.051741
     2  C    0.084211
     3  C    0.595948
     4  C    0.433332
     5  C    0.372657
     6  O   -1.420826
     7  H    0.322364
     8  H    0.028249
     9  H   -0.020930
    10  Cl  -0.155792
    11  Cl  -0.142353
    12  Cl  -0.148601
 Sum of Mulliken charges =  -0.00000

 Dipole moment (field-independent basis, Debye):
    X=              0.6877    Y=              1.1508    Z=              1.3124  Tot=              1.8761

 Test job not archived.
 1\1\GINC-SE250\SP\RHF\Aug-CC-pVDZ\C5H3Cl3O1\OHZDE\08-Apr-2025\0\\#t hf
  aug-cc-pvdz iop(5/13=1,5/36=2,99/5=2) pseudo=read geom=check guess=(r
 ead,tcheck) scf=(maxcycle=1)\\title\\0,1\C,0,-0.706378,0.745612,0.1047
 14\C,0,-0.71692,-0.746462,0.095445\C,0,0.539007,1.184873,0.295745\C,0,
 1.442289,-0.023122,0.430698\C,0,0.520762,-1.206771,0.286551\O,0,2.1865
 43,-0.113961,1.584087\H,0,2.710921,0.690012,1.684267\H,0,0.860523,-2.2
 2786,0.347335\H,0,0.887433,2.205154,0.338287\Cl,0,2.600964,0.007292,-1
 .059046\Cl,0,-2.14858,-1.674559,-0.135407\Cl,0,-2.124371,1.697832,-0.1

 Normal termination of Gaussian 16 at Tue Apr  8 22:40:56 2025.
