 Gaussian 16, Revision C.01,

 ----------------------------------------------------------------------
 #t hf aug-cc-pvdz symm=none int=(grid=ultrafine) guess=(read,tcheck) s
 table=(opt,rrhf)
 ----------------------------------------------------------------------
 -----
 title
 -----
 Symbolic Z-matrix:
 Charge =  0 Multiplicity = 1

 SCF Done:  E(RHF) =  -816.729186186     A.U. after   16 cycles
 Normal termination of Gaussian 16 at Tue Apr  8 23:34:19 2025.
 Gaussian 16:  ES64L-G16RevC.01  3-Jul-2019

 ----------------------------------------------------------------------
 #t hf aug-cc-pvdz iop(5/13=1,5/36=2,99/5=2) pseudo=read geom=check gue
 ss=(read,tcheck) scf=(maxcycle=1)
 ----------------------------------------------------------------------
 -----
 title
 -----
 Structure from the checkpoint file:  "BDE49_nonexpt_1385_mol1.chk"
 Charge =  0 Multiplicity = 1

                         Standard orientation:
 ---------------------------------------------------------------------
 Center     Atomic      Atomic             Coordinates (Angstroms)
 Number     Number       Type             X           Y           Z
 ---------------------------------------------------------------------
      1          7           0       -0.365508    0.153164   -0.093165
      2         15           0       -1.396778   -1.182783    0.312106
      3          6           0       -2.919909   -0.117502   -0.062214
      4          6           0       -2.453161    1.259454   -0.524910
      5          6           0       -1.027820    1.462437   -0.008655
      6          8           0       -4.058025   -0.479763    0.056588
      7          6           0        1.041437    0.064413   -0.045452
      8          1           0       -1.045570    1.839247    1.025688
      9          1           0       -0.485193    2.185747   -0.620435
     10          1           0       -3.158020    2.021638   -0.188150
     11          1           0       -2.459522    1.247550   -1.621185
     12          6           0        1.834652    1.175362    0.280484
     13          6           0        3.225498    1.077351    0.284495
     14          6           0        3.857373   -0.122525   -0.019248
     15          6           0        3.074018   -1.233723   -0.334040
     16          6           0        1.689187   -1.146717   -0.351112
     17          1           0        1.099766   -2.016961   -0.613564
     18          1           0        4.938280   -0.195082   -0.010473
     19          1           0        3.545855   -2.179254   -0.577717
     20          1           0        1.375408    2.118388    0.545545
     21          1           0        3.813379    1.952417    0.539293
     22          1           0       -1.577606   -0.977293    1.722767
 ---------------------------------------------------------------------

 SCF Done:  E(RHF) =  -817.254572190     A.U. after    2 cycles

 The electronic state is 1-A.
 Alpha  occ. eigenvalues --  -84.31356 -20.55760 -15.52540 -11.35672 -11.29685
 Alpha  occ. eigenvalues --  -11.29383 -11.26442 -11.25096 -11.25039 -11.24267
 Alpha  occ. eigenvalues --  -11.24101 -11.23767  -6.78129  -4.31056  -4.30500
 Alpha  occ. eigenvalues --   -4.30026  -1.49232  -1.26215  -1.15071  -1.07658
 Alpha  occ. eigenvalues --   -1.02454  -0.99875  -0.95213  -0.87796  -0.84304
 Alpha  occ. eigenvalues --   -0.79975  -0.74970  -0.73590  -0.69159  -0.68237
 Alpha  occ. eigenvalues --   -0.66213  -0.64531  -0.61958  -0.60761  -0.60211
 Alpha  occ. eigenvalues --   -0.59394  -0.58676  -0.55332  -0.53123  -0.52557
 Alpha  occ. eigenvalues --   -0.51427  -0.50299  -0.46591  -0.39827  -0.36204
 Alpha  occ. eigenvalues --   -0.35263  -0.31709
 Alpha virt. eigenvalues --    0.03048   0.03443   0.03658   0.04147   0.04690
 Alpha virt. eigenvalues --    0.05058   0.06289   0.06348   0.07114   0.07982
 Alpha virt. eigenvalues --    0.08184   0.09296   0.09759   0.10423   0.11711

 Mulliken charges:
               1
     1  N    1.194090
     2  P    0.272708
     3  C    0.662975
     4  C   -0.551253
     5  C   -0.056701
     6  O   -1.273767
     7  C   -1.389352
     8  H    0.005979
     9  H    0.013472
    10  H    0.173521
    11  H    0.255359
    12  C    0.104444
    13  C    0.678436
    14  C    0.099087
    15  C    0.290662
    16  C    0.502015
    17  H   -0.259771
    18  H   -0.228933
    19  H   -0.233427
    20  H   -0.396319
    21  H   -0.243242
    22  H    0.380018
 Sum of Mulliken charges =   0.00000

 Dipole moment (field-independent basis, Debye):
    X=              2.1867    Y=              1.8506    Z=             -0.0096  Tot=              2.8647

 Test job not archived.
 1\1\GINC-SE461\SP\RHF\Aug-CC-pVDZ\C9H10N1O1P1\OHZDE\08-Apr-2025\0\\#t
 hf aug-cc-pvdz iop(5/13=1,5/36=2,99/5=2) pseudo=read geom=check guess=
 (read,tcheck) scf=(maxcycle=1)\\title\\0,1\N,0,-0.365508,0.153164,-0.0
 93165\P,0,-1.396778,-1.182783,0.312106\C,0,-2.919909,-0.117502,-0.0622
 14\C,0,-2.453161,1.259454,-0.52491\C,0,-1.02782,1.462437,-0.008655\O,0
 ,-4.058025,-0.479763,0.056588\C,0,1.041437,0.064413,-0.045452\H,0,-1.0
 4557,1.839247,1.025688\H,0,-0.485193,2.185747,-0.620435\H,0,-3.15802,2
 .021638,-0.18815\H,0,-2.459522,1.24755,-1.621185\C,0,1.834652,1.175362

 Normal termination of Gaussian 16 at Tue Apr  8 23:34:33 2025.
