 Gaussian 16, Revision C.01,

 ----------------------------------------------------------------------
 #t hf aug-cc-pvdz symm=none int=(grid=ultrafine) guess=(read,tcheck) s
 table=(opt,rrhf)
 ----------------------------------------------------------------------
 -----
 title
 -----
 Symbolic Z-matrix:
 Charge =  0 Multiplicity = 1

 SCF Done:  E(RHF) =  -616.568022435     A.U. after   16 cycles
 Normal termination of Gaussian 16 at Wed Apr  9 00:29:01 2025.
 Gaussian 16:  ES64L-G16RevC.01  3-Jul-2019

 ----------------------------------------------------------------------
 #t hf aug-cc-pvdz iop(5/13=1,5/36=2,99/5=2) pseudo=read geom=check gue
 ss=(read,tcheck) scf=(maxcycle=1)
 ----------------------------------------------------------------------
 -----
 title
 -----
 Structure from the checkpoint file:  "BDE49_nonexpt_304_mol1.chk"
 Charge =  0 Multiplicity = 1

                         Standard orientation:
 ---------------------------------------------------------------------
 Center     Atomic      Atomic             Coordinates (Angstroms)
 Number     Number       Type             X           Y           Z
 ---------------------------------------------------------------------
      1          6           0       -0.058362   -0.493532    0.234214
      2          5           0        1.340562    0.240891   -0.144149
      3          7           0       -1.315672    0.327449   -0.227217
      4          8           0        2.339432   -0.582796   -0.516175
      5          8           0        1.478827    1.576800   -0.047482
      6          8           0       -1.305307    1.506596    0.113467
      7          8           0       -2.177828   -0.236350   -0.851354
      8          9           0       -0.201055   -1.717495   -0.273356
      9          9           0       -0.203334   -0.566423    1.586491
     10          1           0        0.651124    2.021062    0.190827
     11          1           0        3.164458   -0.115206   -0.690716
 ---------------------------------------------------------------------

 SCF Done:  E(RHF) =  -617.148356093     A.U. after    2 cycles

 The electronic state is 1-A.
 Alpha  occ. eigenvalues --  -26.53337 -26.53162 -20.63910 -20.62450 -20.60072
 Alpha  occ. eigenvalues --  -20.59627 -15.82072 -11.50072  -7.70266  -1.72377
 Alpha  occ. eigenvalues --   -1.69189  -1.63554  -1.55155  -1.52412  -1.48746
 Alpha  occ. eigenvalues --   -1.11375  -0.93686  -0.86685  -0.84627  -0.81613
 Alpha  occ. eigenvalues --   -0.79800  -0.77740  -0.76828  -0.74677  -0.69961
 Alpha  occ. eigenvalues --   -0.68811  -0.65916  -0.65358  -0.61075  -0.60400
 Alpha  occ. eigenvalues --   -0.56944  -0.53250  -0.52834  -0.50511  -0.48601
 Alpha virt. eigenvalues --    0.02722   0.03365   0.04695   0.05104   0.05500
 Alpha virt. eigenvalues --    0.07634   0.08856   0.10459   0.11631   0.13757
 Alpha virt. eigenvalues --    0.14241   0.15759   0.16249   0.18522   0.19182

 Mulliken charges:
               1
     1  C    1.482504
     2  B    1.497331
     3  N    2.368557
     4  O   -1.025841
     5  O   -1.200492
     6  O   -1.405758
     7  O   -1.265967
     8  F   -0.768411
     9  F   -0.827362
    10  H    0.659849
    11  H    0.485589
 Sum of Mulliken charges =  -0.00000

 Dipole moment (field-independent basis, Debye):
    X=              2.7117    Y=              0.6616    Z=             -0.0717  Tot=              2.7921

 Test job not archived.
 1\1\GINC-SE109\SP\RHF\Aug-CC-pVDZ\C1H2B1F2N1O4\OHZDE\09-Apr-2025\0\\#t
  hf aug-cc-pvdz iop(5/13=1,5/36=2,99/5=2) pseudo=read geom=check guess
 =(read,tcheck) scf=(maxcycle=1)\\title\\0,1\C,0,-0.058362,-0.493532,0.
 234214\B,0,1.340562,0.240891,-0.144149\N,0,-1.315672,0.327449,-0.22721
 7\O,0,2.339432,-0.582796,-0.516175\O,0,1.478827,1.5768,-0.047482\O,0,-
 1.305307,1.506596,0.113467\O,0,-2.177828,-0.23635,-0.851354\F,0,-0.201
 055,-1.717495,-0.273356\F,0,-0.203334,-0.566423,1.586491\H,0,0.651124,
 2.021062,0.190827\H,0,3.164458,-0.115205,-0.690716\\Version=ES64L-G16R

 Normal termination of Gaussian 16 at Wed Apr  9 00:29:06 2025.
