 Gaussian 16, Revision C.01,

 ----------------------------------------------------------------------
 #t hf aug-cc-pvdz symm=none int=(grid=ultrafine) guess=(read,tcheck) s
 table=(opt,rrhf)
 ----------------------------------------------------------------------
 -----
 title
 -----
 Symbolic Z-matrix:
 Charge =  0 Multiplicity = 1

 SCF Done:  E(RHF) =  -761.878181145     A.U. after   12 cycles
 Normal termination of Gaussian 16 at Tue Apr  8 23:40:13 2025.
 Gaussian 16:  ES64L-G16RevC.01  3-Jul-2019

 ----------------------------------------------------------------------
 #t hf aug-cc-pvdz iop(5/13=1,5/36=2,99/5=2) pseudo=read geom=check gue
 ss=(read,tcheck) scf=(maxcycle=1)
 ----------------------------------------------------------------------
 -----
 title
 -----
 Structure from the checkpoint file:  "BDE49_nonexpt_1620_mol1.chk"
 Charge =  0 Multiplicity = 1

                         Standard orientation:
 ---------------------------------------------------------------------
 Center     Atomic      Atomic             Coordinates (Angstroms)
 Number     Number       Type             X           Y           Z
 ---------------------------------------------------------------------
      1         15           0        0.171942   -1.103466   -0.670085
      2         15           0       -0.171942    1.103466   -0.670085
      3          6           0       -0.171942   -1.700454    1.065077
      4          6           0        0.171942    1.700454    1.065077
      5          1           0       -0.319045    1.116968    1.844317
      6          1           0       -0.166041    2.737454    1.139058
      7          1           0        1.250784    1.688156    1.235245
      8          1           0       -1.250784   -1.688156    1.235245
      9          1           0        0.319045   -1.116968    1.844317
     10          1           0        0.166041   -2.737454    1.139058
     11          1           0       -1.581790    0.991774   -0.557808
     12          1           0        1.581790   -0.991774   -0.557808
 ---------------------------------------------------------------------

 SCF Done:  E(RHF) =  -762.063230381     A.U. after    2 cycles

 The electronic state is 1-A.
 Alpha  occ. eigenvalues --  -84.27248 -84.27245 -11.24470 -11.24467  -6.74329
 Alpha  occ. eigenvalues --   -6.74313  -4.26682  -4.26561  -4.26561  -4.26445
 Alpha  occ. eigenvalues --   -4.25961  -4.25874  -1.00659  -0.97296  -0.84068
 Alpha  occ. eigenvalues --   -0.73052  -0.59954  -0.59043  -0.58176  -0.56248
 Alpha  occ. eigenvalues --   -0.49078  -0.47881  -0.42995  -0.33729  -0.31270
 Alpha virt. eigenvalues --    0.03510   0.04145   0.04596   0.05122   0.06187
 Alpha virt. eigenvalues --    0.07142   0.07282   0.09498   0.09900   0.10084
 Alpha virt. eigenvalues --    0.12150   0.12254   0.12850   0.14368   0.15291

 Mulliken charges:
               1
     1  P   -0.079140
     2  P   -0.079140
     3  C   -0.742331
     4  C   -0.742331
     5  H    0.084924
     6  H    0.080309
     7  H    0.151434
     8  H    0.151434
     9  H    0.084924
    10  H    0.080309
    11  H    0.504805
    12  H    0.504805
 Sum of Mulliken charges =   0.00000

 Dipole moment (field-independent basis, Debye):
    X=              0.0000    Y=              0.0000    Z=              1.8978  Tot=              1.8978

 Test job not archived.
 1\1\GINC-SE059\SP\RHF\Aug-CC-pVDZ\C2H8P2\OHZDE\08-Apr-2025\0\\#t hf au
 g-cc-pvdz iop(5/13=1,5/36=2,99/5=2) pseudo=read geom=check guess=(read
 ,tcheck) scf=(maxcycle=1)\\title\\0,1\P,0,0.171942,-1.103466,-0.670085
 \P,0,-0.171942,1.103466,-0.670085\C,0,-0.171942,-1.700454,1.065077\C,0
 ,0.171942,1.700454,1.065077\H,0,-0.319045,1.116968,1.844317\H,0,-0.166
 041,2.737454,1.139058\H,0,1.250784,1.688156,1.235245\H,0,-1.250784,-1.
 688156,1.235245\H,0,0.319045,-1.116968,1.844317\H,0,0.166041,-2.737454
 ,1.139058\H,0,-1.58179,0.991774,-0.557808\H,0,1.58179,-0.991774,-0.557

 Normal termination of Gaussian 16 at Tue Apr  8 23:40:16 2025.
