 Gaussian 16, Revision C.01,

 ----------------------------------------------------------------------
 #t hf aug-cc-pvdz symm=none int=(grid=ultrafine) guess=(read,tcheck) s
 table=(opt,rrhf)
 ----------------------------------------------------------------------
 -----
 title
 -----
 Symbolic Z-matrix:
 Charge =  0 Multiplicity = 1

 SCF Done:  E(RHF) =  -644.259538717     A.U. after   16 cycles
 Normal termination of Gaussian 16 at Tue Apr  8 23:08:59 2025.
 Gaussian 16:  ES64L-G16RevC.01  3-Jul-2019

 ----------------------------------------------------------------------
 #t hf aug-cc-pvdz iop(5/13=1,5/36=2,99/5=2) pseudo=read geom=check gue
 ss=(read,tcheck) scf=(maxcycle=1)
 ----------------------------------------------------------------------
 -----
 title
 -----
 Structure from the checkpoint file:  "BDE49_expt_543_mol1.chk"
 Charge =  0 Multiplicity = 1

                         Standard orientation:
 ---------------------------------------------------------------------
 Center     Atomic      Atomic             Coordinates (Angstroms)
 Number     Number       Type             X           Y           Z
 ---------------------------------------------------------------------
      1          6           0        1.485841   -1.186314    0.000003
      2          6           0        2.237470   -0.050066    0.000006
      3          7           0        0.127000   -1.110269    0.000001
      4          6           0       -0.613314    0.062101    0.000004
      5          6           0        0.187699    1.250587    0.000001
      6          6           0        1.554079    1.196138    0.000004
      7         16           0       -2.286388    0.004748   -0.000008
      8          1           0       -0.425760   -1.958643   -0.000001
      9          1           0        1.904752   -2.183853    0.000003
     10          1           0        3.316449   -0.107136    0.000008
     11          1           0       -0.339840    2.194035   -0.000002
     12          1           0        2.126949    2.116829    0.000005
 ---------------------------------------------------------------------

 SCF Done:  E(RHF) =  -644.570092681     A.U. after    2 cycles

 The electronic state is 1-A.
 Alpha  occ. eigenvalues --  -93.88387 -15.59173 -11.35130 -11.33296 -11.29379
 Alpha  occ. eigenvalues --  -11.26856 -11.26398  -8.16620  -6.14502  -6.14172
 Alpha  occ. eigenvalues --   -6.14085  -1.32636  -1.12803  -1.10027  -0.97795
 Alpha  occ. eigenvalues --   -0.91644  -0.88194  -0.79260  -0.72336  -0.70129
 Alpha  occ. eigenvalues --   -0.66606  -0.63422  -0.60765  -0.55707  -0.51112
 Alpha  occ. eigenvalues --   -0.45478  -0.42732  -0.32901  -0.30044
 Alpha virt. eigenvalues --    0.02216   0.02944   0.03769   0.04390   0.05793
 Alpha virt. eigenvalues --    0.06682   0.07906   0.09474   0.09839   0.10253
 Alpha virt. eigenvalues --    0.11902   0.12207   0.12703   0.13387   0.14426

 Mulliken charges:
               1
     1  C   -0.449403
     2  C    0.568113
     3  N    0.709947
     4  C   -1.194112
     5  C    0.826867
     6  C    0.185046
     7  S   -0.092668
     8  H    0.192149
     9  H   -0.251964
    10  H   -0.181544
    11  H   -0.131965
    12  H   -0.180465
 Sum of Mulliken charges =  -0.00000

 Dipole moment (field-independent basis, Debye):
    X=              6.2258    Y=             -1.0804    Z=              0.0000  Tot=              6.3189

 Test job not archived.
 1\1\GINC-SE128\SP\RHF\Aug-CC-pVDZ\C5H5N1S1\OHZDE\08-Apr-2025\0\\#t hf
 aug-cc-pvdz iop(5/13=1,5/36=2,99/5=2) pseudo=read geom=check guess=(re
 ad,tcheck) scf=(maxcycle=1)\\title\\0,1\C,0,1.485841,-1.186314,0.00000
 3\C,0,2.23747,-0.050066,0.000006\N,0,0.127,-1.110269,0.000001\C,0,-0.6
 13314,0.062101,0.000004\C,0,0.187699,1.250587,0.000001\C,0,1.554079,1.
 196138,0.000004\S,0,-2.286388,0.004748,-0.000008\H,0,-0.42576,-1.95864
 3,-0.000001\H,0,1.904752,-2.183853,0.000003\H,0,3.316449,-0.107136,0.0
 00008\H,0,-0.33984,2.194035,-0.000002\H,0,2.126949,2.116829,0.000005\\

 Normal termination of Gaussian 16 at Tue Apr  8 23:09:05 2025.
