 Gaussian 16, Revision C.01,

 ----------------------------------------------------------------------
 #t hf aug-cc-pvdz symm=none int=(grid=ultrafine) guess=(read,tcheck) s
 table=opt
 ----------------------------------------------------------------------
 -----
 title
 -----
 Symbolic Z-matrix:
 Charge =  0 Multiplicity = 2

 SCF Done:  E(UHF) =  -458.453558944     A.U. after   18 cycles
 Normal termination of Gaussian 16 at Tue Apr  8 23:51:56 2025.
 Gaussian 16:  ES64L-G16RevC.01  3-Jul-2019

 ----------------------------------------------------------------------
 #t hf aug-cc-pvdz iop(5/13=1,5/36=2,99/5=2) pseudo=read geom=check gue
 ss=(read,tcheck) scf=(maxcycle=1)
 ----------------------------------------------------------------------
 -----
 title
 -----
 Structure from the checkpoint file:  "BDE49_nonexpt_1908_mol2.chk"
 Charge =  0 Multiplicity = 2

                         Standard orientation:
 ---------------------------------------------------------------------
 Center     Atomic      Atomic             Coordinates (Angstroms)
 Number     Number       Type             X           Y           Z
 ---------------------------------------------------------------------
      1         14           0        1.634368    0.066927   -0.100179
      2          7           0       -0.041514   -0.443092    0.011112
      3          1           0        1.665639    1.470777    0.382141
      4          1           0        2.434131   -0.833113    0.771571
      5          6           0       -1.173412    0.350568    0.023806
      6          8           0       -2.304472   -0.071905   -0.000156
      7          1           0       -0.935920    1.428750    0.070311
      8          1           0       -0.278154   -1.429909   -0.040892
 ---------------------------------------------------------------------

 SCF Done:  E(UHF) =  -458.649845178     A.U. after    2 cycles

 The electronic state is 2-A.
 Alpha  occ. eigenvalues --  -69.58024 -20.53146 -15.53130 -11.37254  -6.24888
 Alpha  occ. eigenvalues --   -4.00722  -3.99986  -3.99899  -1.47705  -1.22388
 Alpha  occ. eigenvalues --   -0.87766  -0.81073  -0.69941  -0.66148  -0.60966
 Alpha  occ. eigenvalues --   -0.59417  -0.52396  -0.47671  -0.44187  -0.35212
 Alpha virt. eigenvalues --    0.03236   0.03885   0.04813   0.05785   0.06535
 Alpha virt. eigenvalues --    0.07550   0.08321   0.10607   0.12143   0.12854
 Alpha virt. eigenvalues --    0.13351   0.15017   0.15295   0.16718   0.18236

  Beta  occ. eigenvalues --  -69.57483 -20.52980 -15.52799 -11.37314  -6.24038
  Beta  occ. eigenvalues --   -3.99643  -3.99564  -3.98705  -1.47357  -1.21464
  Beta  occ. eigenvalues --   -0.87404  -0.79019  -0.69727  -0.64480  -0.59356
  Beta  occ. eigenvalues --   -0.58233  -0.50915  -0.44815  -0.43960
  Beta virt. eigenvalues --    0.01247   0.03535   0.04131   0.04924   0.06653
  Beta virt. eigenvalues --    0.07340   0.07916   0.08675   0.11333   0.12289
  Beta virt. eigenvalues --    0.13106   0.14371   0.15524   0.15802   0.17566

 Mulliken charges and spin densities:
               1          2
     1  Si   0.502631   0.863037
     2  N    0.239845   0.032740
     3  H   -0.142318   0.045648
     4  H   -0.090296   0.062221
     5  C    0.416052  -0.036000
     6  O   -1.003457   0.037450
     7  H    0.064070   0.003930
     8  H    0.013472  -0.009027
 Sum of Mulliken charges =  -0.00000   1.00000

 Dipole moment (field-independent basis, Debye):
    X=              3.3212    Y=              0.2800    Z=             -0.0257  Tot=              3.3331
                          Isotropic Fermi Contact Couplings
        Atom                 a.u.       MegaHertz       Gauss      10(-4) cm-1
     1  Si(29)             0.68646    -610.07775    -217.69091    -203.50003
     2  N(14)              0.05171      16.70730       5.96158       5.57296
     3  H(1)               0.01099      49.14557      17.53636      16.39320
     4  H(1)               0.01727      77.17715      27.53873      25.74353
     5  C(13)             -0.00550      -6.18303      -2.20626      -2.06244
     6  O(17)              0.01315      -7.97398      -2.84531      -2.65983
     7  H(1)               0.00022       0.98774       0.35245       0.32948
     8  H(1)              -0.00202      -9.03380      -3.22348      -3.01335

 1\1\GINC-SE128\SP\UHF\Aug-CC-pVDZ\C1H4N1O1Si1(2)\OHZDE\08-Apr-2025\0\\
 #t hf aug-cc-pvdz iop(5/13=1,5/36=2,99/5=2) pseudo=read geom=check gue
 ss=(read,tcheck) scf=(maxcycle=1)\\title\\0,2\Si,0,1.634368,0.066927,-
 0.100179\N,0,-0.041514,-0.443092,0.011112\H,0,1.665639,1.470777,0.3821
 41\H,0,2.434131,-0.833113,0.771571\C,0,-1.173412,0.350568,0.023806\O,0
 ,-2.304472,-0.071905,-0.000156\H,0,-0.93592,1.42875,0.070311\H,0,-0.27
 8154,-1.429909,-0.040892\\Version=ES64L-G16RevC.01\State=2-A\HF=-458.6
 498452\S2=0.755\S2-1=0.\S2A=0.750015\RMSD=1.074e-02\Dipole=1.3066597,0

 Normal termination of Gaussian 16 at Tue Apr  8 23:51:59 2025.
