 Gaussian 16, Revision C.01,

 ----------------------------------------------------------------------
 #t hf aug-cc-pvdz symm=none int=(grid=ultrafine) guess=(read,tcheck) s
 table=(opt,rrhf)
 ----------------------------------------------------------------------
 -----
 title
 -----
 Symbolic Z-matrix:
 Charge =  0 Multiplicity = 1

 SCF Done:  E(RHF) =  -760.192236559     A.U. after   14 cycles
 Normal termination of Gaussian 16 at Tue Apr  8 23:18:33 2025.
 Gaussian 16:  ES64L-G16RevC.01  3-Jul-2019

 ----------------------------------------------------------------------
 #t hf aug-cc-pvdz iop(5/13=1,5/36=2,99/5=2) pseudo=read geom=check gue
 ss=(read,tcheck) scf=(maxcycle=1)
 ----------------------------------------------------------------------
 -----
 title
 -----
 Structure from the checkpoint file:  "BDE49_expt_820_mol1.chk"
 Charge =  0 Multiplicity = 1

                         Standard orientation:
 ---------------------------------------------------------------------
 Center     Atomic      Atomic             Coordinates (Angstroms)
 Number     Number       Type             X           Y           Z
 ---------------------------------------------------------------------
      1         15           0       -0.703901   -1.866453   -0.245999
      2          6           0        0.742354   -0.690424   -0.420129
      3          6           0        1.372544   -0.130266    0.858528
      4          1           0        0.419859    0.128890   -1.071033
      5          1           0        1.491391   -1.246173   -0.994283
      6          6           0        2.494929    0.896279    0.584829
      7          6           0        3.616090    0.334984   -0.166431
      8          7           0        4.487542   -0.131916   -0.759727
      9          6           0       -1.938079   -0.940752    0.829231
     10          1           0       -0.153474   -2.648682    0.801076
     11          6           0       -3.043132   -0.211046    0.050773
     12          1           0       -1.439690   -0.252620    1.516472
     13          1           0       -2.411397   -1.707412    1.449800
     14          6           0       -2.553576    0.903323   -0.900964
     15          1           0       -3.750721    0.224958    0.762602
     16          1           0       -3.603288   -0.927202   -0.557389
     17          6           0       -1.717430    1.902076   -0.238079
     18          1           0       -3.410225    1.412078   -1.352158
     19          1           0       -1.976273    0.474258   -1.726423
     20          7           0       -1.032612    2.657550    0.300786
     21          1           0        2.879368    1.289716    1.530622
     22          1           0        2.091404    1.749148    0.030248
     23          1           0        1.771625   -0.949546    1.463750
     24          1           0        0.623234    0.384892    1.462748
 ---------------------------------------------------------------------

 SCF Done:  E(RHF) =  -760.669975501     A.U. after    2 cycles

 The electronic state is 1-A.
 Alpha  occ. eigenvalues --  -84.28039 -15.52612 -15.50710 -11.30349 -11.29670
 Alpha  occ. eigenvalues --  -11.28686 -11.27701 -11.27509 -11.26296 -11.26042
 Alpha  occ. eigenvalues --  -11.25497  -6.75048  -4.27688  -4.27597  -4.26948
 Alpha  occ. eigenvalues --   -1.24900  -1.22933  -1.12031  -1.10547  -1.02067
 Alpha  occ. eigenvalues --   -0.98919  -0.89088  -0.85849  -0.77321  -0.71610
 Alpha  occ. eigenvalues --   -0.71204  -0.68007  -0.65680  -0.65085  -0.62531
 Alpha  occ. eigenvalues --   -0.61346  -0.60097  -0.59242  -0.58414  -0.56197
 Alpha  occ. eigenvalues --   -0.54218  -0.53877  -0.52276  -0.50546  -0.50207
 Alpha  occ. eigenvalues --   -0.48964  -0.48447  -0.46946  -0.44797  -0.33797
 Alpha virt. eigenvalues --    0.02498   0.02826   0.03509   0.04000   0.04785
 Alpha virt. eigenvalues --    0.05078   0.05428   0.06460   0.06948   0.07480
 Alpha virt. eigenvalues --    0.08660   0.08747   0.09989   0.10076   0.10682

 Mulliken charges:
               1
     1  P    0.226503
     2  C   -0.336093
     3  C   -0.627423
     4  H    0.137802
     5  H    0.204762
     6  C    0.043186
     7  C   -1.576765
     8  N    0.951661
     9  C   -0.326317
    10  H    0.421161
    11  C   -0.314609
    12  H    0.180209
    13  H    0.115952
    14  C   -0.175835
    15  H    0.166553
    16  H    0.169215
    17  C   -1.636799
    18  H    0.176143
    19  H    0.308727
    20  N    1.030951
    21  H    0.194985
    22  H    0.290967
    23  H    0.147987
    24  H    0.227077
 Sum of Mulliken charges =  -0.00000

 Dipole moment (field-independent basis, Debye):
    X=             -6.4859    Y=             -0.9190    Z=              1.2191  Tot=              6.6631

 Test job not archived.
 1\1\GINC-SE338\SP\RHF\Aug-CC-pVDZ\C8H13N2P1\OHZDE\08-Apr-2025\0\\#t hf
  aug-cc-pvdz iop(5/13=1,5/36=2,99/5=2) pseudo=read geom=check guess=(r
 ead,tcheck) scf=(maxcycle=1)\\title\\0,1\P,0,-0.703901,-1.866453,-0.24
 5999\C,0,0.742354,-0.690424,-0.420129\C,0,1.372544,-0.130266,0.858528\
 H,0,0.419859,0.12889,-1.071033\H,0,1.491391,-1.246173,-0.994283\C,0,2.
 494929,0.896279,0.584829\C,0,3.61609,0.334984,-0.166431\N,0,4.487542,-
 0.131916,-0.759727\C,0,-1.938079,-0.940752,0.829231\H,0,-0.153474,-2.6
 48682,0.801076\C,0,-3.043132,-0.211046,0.050773\H,0,-1.43969,-0.25262,

 Normal termination of Gaussian 16 at Tue Apr  8 23:18:49 2025.
