 Gaussian 16, Revision C.01,

 ----------------------------------------------------------------------
 #t hf aug-cc-pvdz symm=none int=(grid=ultrafine) guess=(read,tcheck) s
 table=(opt,rrhf)
 ----------------------------------------------------------------------
 -----
 title
 -----
 Symbolic Z-matrix:
 Charge =  0 Multiplicity = 1

 SCF Done:  E(RHF) =  -814.725493717     A.U. after   16 cycles
 Normal termination of Gaussian 16 at Tue Apr  8 23:40:52 2025.
 Gaussian 16:  ES64L-G16RevC.01  3-Jul-2019

 ----------------------------------------------------------------------
 #t hf aug-cc-pvdz iop(5/13=1,5/36=2,99/5=2) pseudo=read geom=check gue
 ss=(read,tcheck) scf=(maxcycle=1)
 ----------------------------------------------------------------------
 -----
 title
 -----
 Structure from the checkpoint file:  "BDE49_nonexpt_1585_mol1.chk"
 Charge =  0 Multiplicity = 1

                         Standard orientation:
 ---------------------------------------------------------------------
 Center     Atomic      Atomic             Coordinates (Angstroms)
 Number     Number       Type             X           Y           Z
 ---------------------------------------------------------------------
      1          6           0       -2.357112    0.522429    0.260350
      2         15           0       -1.833506   -1.056166   -0.613719
      3          8           0       -3.087707    1.334969   -0.245085
      4          8           0       -1.939322    0.582391    1.541908
      5          7           0       -0.255791   -1.387285   -0.082663
      6          6           0        0.901914   -0.588282   -0.076737
      7          1           0       -2.323583    1.387523    1.926534
      8          6           0        0.922475    0.704241   -0.614400
      9          6           0        2.082542   -1.109776    0.473903
     10          6           0        3.250320   -0.358270    0.483740
     11          6           0        3.269803    0.927948   -0.054554
     12          6           0        2.100099    1.447823   -0.600543
     13          1           0        2.095539    2.446897   -1.022049
     14          1           0        0.027490    1.135236   -1.043952
     15          1           0        2.078767   -2.111052    0.893880
     16          1           0        4.150525   -0.781862    0.915093
     17          1           0        4.181175    1.513563   -0.046574
     18          1           0       -1.570861   -0.374534   -1.822818
     19          1           0       -0.149938   -2.277849    0.379173
 ---------------------------------------------------------------------

 SCF Done:  E(RHF) =  -815.243260686     A.U. after    2 cycles

 The electronic state is 1-A.
 Alpha  occ. eigenvalues --  -84.32496 -20.61005 -20.55141 -15.53168 -11.40005
 Alpha  occ. eigenvalues --  -11.29898 -11.25236 -11.25167 -11.24434 -11.24254
 Alpha  occ. eigenvalues --  -11.23788  -6.79199  -4.32324  -4.31537  -4.31081
 Alpha  occ. eigenvalues --   -1.55629  -1.46320  -1.24652  -1.14410  -1.02587
 Alpha  occ. eigenvalues --   -1.01373  -0.93770  -0.85333  -0.84834  -0.80436
 Alpha  occ. eigenvalues --   -0.74799  -0.71592  -0.70488  -0.68552  -0.64571
 Alpha  occ. eigenvalues --   -0.63857  -0.62512  -0.60456  -0.60126  -0.58626
 Alpha  occ. eigenvalues --   -0.54110  -0.52971  -0.50988  -0.48934  -0.48779
 Alpha  occ. eigenvalues --   -0.44098  -0.36940  -0.35518  -0.32306
 Alpha virt. eigenvalues --    0.03194   0.03640   0.03809   0.04668   0.05380
 Alpha virt. eigenvalues --    0.05697   0.07628   0.07882   0.08047   0.09312
 Alpha virt. eigenvalues --    0.09897   0.10414   0.11365   0.11476   0.12470

 Mulliken charges:
               1
     1  C    1.570092
     2  P    0.258814
     3  O   -1.206324
     4  O   -1.220867
     5  N    1.209027
     6  C   -1.539491
     7  H    0.352571
     8  C    0.842929
     9  C    0.327737
    10  C    0.449419
    11  C   -0.013898
    12  C    0.229880
    13  H   -0.235331
    14  H   -0.352645
    15  H   -0.341147
    16  H   -0.224281
    17  H   -0.224253
    18  H    0.261876
    19  H   -0.144108
 Sum of Mulliken charges =  -0.00000

 Dipole moment (field-independent basis, Debye):
    X=              1.6133    Y=             -1.0879    Z=              1.1812  Tot=              2.2762

 Test job not archived.
 1\1\GINC-SE051\SP\RHF\Aug-CC-pVDZ\C7H8N1O2P1\OHZDE\08-Apr-2025\0\\#t h
 f aug-cc-pvdz iop(5/13=1,5/36=2,99/5=2) pseudo=read geom=check guess=(
 read,tcheck) scf=(maxcycle=1)\\title\\0,1\C,0,-2.357112,0.522429,0.260
 35\P,0,-1.833506,-1.056166,-0.613719\O,0,-3.087707,1.334969,-0.245085\
 O,0,-1.939322,0.582391,1.541908\N,0,-0.255791,-1.387285,-0.082663\C,0,
 0.901914,-0.588282,-0.076737\H,0,-2.323583,1.387523,1.926534\C,0,0.922
 475,0.704241,-0.6144\C,0,2.082542,-1.109776,0.473903\C,0,3.25032,-0.35
 827,0.48374\C,0,3.269803,0.927948,-0.054554\C,0,2.100099,1.447823,-0.6

 Normal termination of Gaussian 16 at Tue Apr  8 23:41:04 2025.
