 Gaussian 16, Revision C.01,

 ----------------------------------------------------------------------
 #t hf aug-cc-pvdz symm=none int=(grid=ultrafine) guess=(read,tcheck) s
 table=(opt,rrhf)
 ----------------------------------------------------------------------
 -----
 title
 -----
 Symbolic Z-matrix:
 Charge =  0 Multiplicity = 1

 SCF Done:  E(RHF) =  -773.235122577     A.U. after   16 cycles
 Normal termination of Gaussian 16 at Tue Apr  8 23:11:18 2025.
 Gaussian 16:  ES64L-G16RevC.01  3-Jul-2019

 ----------------------------------------------------------------------
 #t hf aug-cc-pvdz iop(5/13=1,5/36=2,99/5=2) pseudo=read geom=check gue
 ss=(read,tcheck) scf=(maxcycle=1)
 ----------------------------------------------------------------------
 -----
 title
 -----
 Structure from the checkpoint file:  "BDE49_expt_490_mol1.chk"
 Charge =  0 Multiplicity = 1

                         Standard orientation:
 ---------------------------------------------------------------------
 Center     Atomic      Atomic             Coordinates (Angstroms)
 Number     Number       Type             X           Y           Z
 ---------------------------------------------------------------------
      1          6           0        0.679681   -1.046760   -0.033975
      2          6           0       -0.702040   -0.897123   -0.021683
      3          6           0        1.523348    0.062477   -0.037618
      4          6           0        0.971353    1.343835   -0.027251
      5          6           0       -0.404634    1.505110   -0.014930
      6          6           0       -1.257119    0.390192   -0.010173
      7          1           0       -1.353581   -1.756267   -0.023297
      8          1           0        1.103506   -2.043003   -0.049674
      9          1           0        1.617269    2.212572   -0.038372
     10          1           0       -0.825769    2.505557   -0.011846
     11          7           0       -2.641639    0.635424    0.001853
     12          6           0       -3.684702   -0.271855    0.007089
     13          8           0       -3.535665   -1.476928    0.000773
     14          6           0       -5.066390    0.361410    0.022896
     15          1           0       -5.062774    1.453167    0.017078
     16          1           0       -5.594959    0.012388    0.912133
     17          1           0       -5.619329    0.002635   -0.847271
     18          1           0       -2.901113    1.609592    0.007826
     19          6           0        3.012389   -0.113950    0.004494
     20          9           0        3.406942   -1.269367   -0.573832
     21          9           0        3.661115    0.892437   -0.625575
     22          9           0        3.485523   -0.137427    1.275094
 ---------------------------------------------------------------------

 SCF Done:  E(RHF) =  -773.984118824     A.U. after    2 cycles

 The electronic state is 1-A.
 Alpha  occ. eigenvalues --  -26.49881 -26.49870 -26.49335 -20.52996 -15.56387
 Alpha  occ. eigenvalues --  -11.51671 -11.38441 -11.31733 -11.27338 -11.26958
 Alpha  occ. eigenvalues --  -11.26714 -11.26576 -11.26381 -11.25163  -1.70320
 Alpha  occ. eigenvalues --   -1.60471  -1.59883  -1.48123  -1.28323  -1.17710
 Alpha  occ. eigenvalues --   -1.07658  -1.04487  -1.02549  -0.95451  -0.89470
 Alpha  occ. eigenvalues --   -0.87461  -0.82787  -0.79762  -0.79709  -0.79199
 Alpha  occ. eigenvalues --   -0.77059  -0.71055  -0.68171  -0.67865  -0.65891
 Alpha  occ. eigenvalues --   -0.65549  -0.65263  -0.63791  -0.63248  -0.62528
 Alpha  occ. eigenvalues --   -0.61537  -0.61057  -0.60870  -0.58752  -0.58606
 Alpha  occ. eigenvalues --   -0.54892  -0.53145  -0.52628  -0.47412  -0.44019
 Alpha  occ. eigenvalues --   -0.37037  -0.34765
 Alpha virt. eigenvalues --    0.01873   0.03354   0.04440   0.04658   0.05137
 Alpha virt. eigenvalues --    0.05584   0.07519   0.07581   0.07794   0.08789
 Alpha virt. eigenvalues --    0.09048   0.09674   0.10222   0.11735   0.11904

 Mulliken charges:
               1
     1  C    0.029336
     2  C    0.840812
     3  C    0.699950
     4  C   -0.057009
     5  C    0.706086
     6  C   -2.300995
     7  H   -0.317023
     8  H   -0.277212
     9  H   -0.278620
    10  H   -0.409003
    11  N    1.352580
    12  C    1.060451
    13  O   -1.487374
    14  C   -0.403254
    15  H    0.063271
    16  H    0.257067
    17  H    0.255519
    18  H    0.094373
    19  C    2.599093
    20  F   -0.839234
    21  F   -0.829424
    22  F   -0.759389
 Sum of Mulliken charges =  -0.00000

 Dipole moment (field-independent basis, Debye):
    X=             -4.0112    Y=              3.6945    Z=             -0.0576  Tot=              5.4537

 Test job not archived.
 1\1\GINC-SE435\SP\RHF\Aug-CC-pVDZ\C9H8F3N1O1\OHZDE\08-Apr-2025\0\\#t h
 f aug-cc-pvdz iop(5/13=1,5/36=2,99/5=2) pseudo=read geom=check guess=(
 read,tcheck) scf=(maxcycle=1)\\title\\0,1\C,0,0.679681,-1.04676,-0.033
 975\C,0,-0.70204,-0.897123,-0.021683\C,0,1.523348,0.062477,-0.037618\C
 ,0,0.971353,1.343835,-0.027251\C,0,-0.404634,1.50511,-0.01493\C,0,-1.2
 57119,0.390192,-0.010173\H,0,-1.353581,-1.756267,-0.023297\H,0,1.10350
 6,-2.043003,-0.049674\H,0,1.617269,2.212572,-0.038372\H,0,-0.825769,2.
 505557,-0.011846\N,0,-2.641639,0.635424,0.001853\C,0,-3.684702,-0.2718

 Normal termination of Gaussian 16 at Tue Apr  8 23:11:34 2025.
