 Gaussian 16, Revision C.01,

 ----------------------------------------------------------------------
 #t hf aug-cc-pvdz symm=none int=(grid=ultrafine) guess=(read,tcheck) s
 table=(opt,rrhf)
 ----------------------------------------------------------------------
 -----
 title
 -----
 Symbolic Z-matrix:
 Charge =  0 Multiplicity = 1

 SCF Done:  E(RHF) =  -1325.09363340     A.U. after   12 cycles
 Normal termination of Gaussian 16 at Wed Apr  9 00:07:59 2025.
 Gaussian 16:  ES64L-G16RevC.01  3-Jul-2019

 ----------------------------------------------------------------------
 #t hf aug-cc-pvdz iop(5/13=1,5/36=2,99/5=2) pseudo=read geom=check gue
 ss=(read,tcheck) scf=(maxcycle=1)
 ----------------------------------------------------------------------
 -----
 title
 -----
 Structure from the checkpoint file:  "BDE49_nonexpt_224_mol1.chk"
 Charge =  0 Multiplicity = 1

                         Standard orientation:
 ---------------------------------------------------------------------
 Center     Atomic      Atomic             Coordinates (Angstroms)
 Number     Number       Type             X           Y           Z
 ---------------------------------------------------------------------
      1         17           0        1.802022    1.761545   -0.134656
      2          5           0        1.018261    0.209870    0.057089
      3         17           0        2.018234   -1.236265    0.204821
      4          6           0       -0.578375    0.054581   -0.023741
      5          8           0       -1.140103   -1.023430    0.681829
      6          8           0       -0.771250   -0.196595   -1.414483
      7          8           0       -1.174495    1.265340    0.295888
      8          6           0       -1.033658   -0.933655    2.101286
      9          1           0        0.013318   -0.928551    2.426044
     10          1           0       -1.520965   -1.822745    2.498774
     11          1           0       -1.530538   -0.037494    2.481809
     12          6           0       -0.932861   -1.545616   -1.871357
     13          1           0       -1.023067   -1.466619   -2.954481
     14          1           0       -1.831742   -1.999757   -1.453628
     15          1           0       -0.068021   -2.166958   -1.624439
     16          6           0       -2.564005    1.386820   -0.041097
     17          1           0       -2.888010    2.332036    0.391325
     18          1           0       -3.149125    0.566647    0.383636
     19          1           0       -2.697340    1.409035   -1.123704
 ---------------------------------------------------------------------

 SCF Done:  E(RHF) =  -1325.65777588     A.U. after    2 cycles

 The electronic state is 1-A.
 Alpha  occ. eigenvalues -- -105.57779-105.57349 -20.56683 -20.56234 -20.56017
 Alpha  occ. eigenvalues --  -11.39532 -11.29642 -11.28673 -11.28442 -10.62774
 Alpha  occ. eigenvalues --  -10.62335  -7.79678  -7.79399  -7.79353  -7.79246
 Alpha  occ. eigenvalues --   -7.78960  -7.78904  -7.71660  -1.54570  -1.45260
 Alpha  occ. eigenvalues --   -1.44504  -1.11052  -1.05738  -1.00208  -0.95317
 Alpha  occ. eigenvalues --   -0.93817  -0.83266  -0.75066  -0.71848  -0.71383
 Alpha  occ. eigenvalues --   -0.66011  -0.64813  -0.62759  -0.61414  -0.60191
 Alpha  occ. eigenvalues --   -0.59218  -0.58219  -0.56556  -0.54214  -0.52405
 Alpha  occ. eigenvalues --   -0.50612  -0.50148  -0.48226  -0.47462  -0.46832
 Alpha  occ. eigenvalues --   -0.46062  -0.44344  -0.41389
 Alpha virt. eigenvalues --    0.03316   0.03995   0.04126   0.04260   0.06062
 Alpha virt. eigenvalues --    0.06111   0.06364   0.06524   0.06756   0.08063
 Alpha virt. eigenvalues --    0.08734   0.09370   0.09547   0.10670   0.12704

 Mulliken charges:
               1
     1  Cl  -0.400177
     2  B    0.783130
     3  Cl  -0.449451
     4  C    3.514053
     5  O   -1.657274
     6  O   -1.624331
     7  O   -1.596715
     8  C    0.127080
     9  H    0.140840
    10  H   -0.009038
    11  H    0.215950
    12  C    0.170600
    13  H   -0.031145
    14  H    0.192738
    15  H    0.134507
    16  C    0.113782
    17  H    0.003885
    18  H    0.195985
    19  H    0.175580
 Sum of Mulliken charges =  -0.00000

 Dipole moment (field-independent basis, Debye):
    X=             -2.0331    Y=             -1.2273    Z=              0.8585  Tot=              2.5253

 Test job not archived.
 1\1\GINC-SE460\SP\RHF\Aug-CC-pVDZ\C4H9B1Cl2O3\OHZDE\09-Apr-2025\0\\#t
 hf aug-cc-pvdz iop(5/13=1,5/36=2,99/5=2) pseudo=read geom=check guess=
 (read,tcheck) scf=(maxcycle=1)\\title\\0,1\Cl,0,1.802022,1.761545,-0.1
 34656\B,0,1.018261,0.20987,0.057089\Cl,0,2.018234,-1.236265,0.204821\C
 ,0,-0.578375,0.054581,-0.023741\O,0,-1.140103,-1.02343,0.681829\O,0,-0
 .77125,-0.196595,-1.414483\O,0,-1.174495,1.26534,0.295888\C,0,-1.03365
 8,-0.933655,2.101286\H,0,0.013318,-0.928551,2.426044\H,0,-1.520965,-1.
 822745,2.498774\H,0,-1.530538,-0.037494,2.481809\C,0,-0.932861,-1.5456

 Normal termination of Gaussian 16 at Wed Apr  9 00:08:11 2025.
