 Gaussian 16, Revision C.01,

 ----------------------------------------------------------------------
 #t hf aug-cc-pvdz symm=none int=(grid=ultrafine) guess=(read,tcheck) s
 table=(opt,rrhf)
 ----------------------------------------------------------------------
 -----
 title
 -----
 Symbolic Z-matrix:
 Charge =  0 Multiplicity = 1

 SCF Done:  E(RHF) =  -126.578825665     A.U. after   12 cycles
 Normal termination of Gaussian 16 at Wed Apr  9 00:15:02 2025.
 Gaussian 16:  ES64L-G16RevC.01  3-Jul-2019

 ----------------------------------------------------------------------
 #t hf aug-cc-pvdz iop(5/13=1,5/36=2,99/5=2) pseudo=read geom=check gue
 ss=(read,tcheck) scf=(maxcycle=1)
 ----------------------------------------------------------------------
 -----
 title
 -----
 Structure from the checkpoint file:  "BDE49_nonexpt_24_mol1.chk"
 Charge =  0 Multiplicity = 1

                         Standard orientation:
 ---------------------------------------------------------------------
 Center     Atomic      Atomic             Coordinates (Angstroms)
 Number     Number       Type             X           Y           Z
 ---------------------------------------------------------------------
      1          5           0       -0.057350    0.455160   -0.000111
      2          5           0        1.504006   -0.139282    0.000009
      3          8           0       -1.158761   -0.342301   -0.000130
      4          1           0       -1.986758    0.147686    0.000330
      5          1           0       -0.205178    1.655564    0.001050
      6          1           0        2.113983   -0.323019    1.012416
      7          1           0        2.114763   -0.321210   -1.012249
 ---------------------------------------------------------------------

 SCF Done:  E(RHF) =  -126.707876284     A.U. after    2 cycles

 The electronic state is 1-A.
 Alpha  occ. eigenvalues --  -20.56783  -7.60501  -7.58354  -1.46450  -0.78307
 Alpha  occ. eigenvalues --   -0.69538  -0.64583  -0.53901  -0.53899  -0.48587
 Alpha  occ. eigenvalues --   -0.42108
 Alpha virt. eigenvalues --    0.03043   0.03848   0.04561   0.04706   0.06774
 Alpha virt. eigenvalues --    0.06833   0.07220   0.09250   0.10644   0.11030
 Alpha virt. eigenvalues --    0.13460   0.13832   0.14170   0.15740   0.21325

 Mulliken charges:
               1
     1  B    0.801633
     2  B   -0.805764
     3  O   -0.950354
     4  H    0.479997
     5  H   -0.066362
     6  H    0.270477
     7  H    0.270373
 Sum of Mulliken charges =  -0.00000

 Dipole moment (field-independent basis, Debye):
    X=             -1.0736    Y=              0.9416    Z=              0.0000  Tot=              1.4280

 Test job not archived.
 1\1\GINC-SE343\SP\RHF\Aug-CC-pVDZ\B2H4O1\OHZDE\09-Apr-2025\0\\#t hf au
 g-cc-pvdz iop(5/13=1,5/36=2,99/5=2) pseudo=read geom=check guess=(read
 ,tcheck) scf=(maxcycle=1)\\title\\0,1\B,0,0.05735,0.45516,0.000111\B,0
 ,-1.504006,-0.139282,-0.000009\O,0,1.158761,-0.342301,0.00013\H,0,1.98
 6758,0.147686,-0.00033\H,0,0.205178,1.655564,-0.00105\H,0,-2.113983,-0
 .323019,-1.012416\H,0,-2.114763,-0.32121,1.012249\\Version=ES64L-G16Re
 vC.01\State=1-A\HF=-126.7078763\RMSD=1.785e-02\Dipole=0.4223987,0.3704
 433,-0.0000103\Quadrupole=1.3392183,-0.7716186,-0.5675997,0.9195181,-0

 Normal termination of Gaussian 16 at Wed Apr  9 00:15:04 2025.
