 Gaussian 16, Revision C.01,

 ----------------------------------------------------------------------
 #t hf aug-cc-pvdz symm=none int=(grid=ultrafine) guess=(read,tcheck) s
 table=(opt,rrhf)
 ----------------------------------------------------------------------
 -----
 title
 -----
 Symbolic Z-matrix:
 Charge =  0 Multiplicity = 1

 SCF Done:  E(RHF) =  -1146.72062812     A.U. after   14 cycles
 Normal termination of Gaussian 16 at Tue Apr  8 23:09:52 2025.
 Gaussian 16:  ES64L-G16RevC.01  3-Jul-2019

 ----------------------------------------------------------------------
 #t hf aug-cc-pvdz iop(5/13=1,5/36=2,99/5=2) pseudo=read geom=check gue
 ss=(read,tcheck) scf=(maxcycle=1)
 ----------------------------------------------------------------------
 -----
 title
 -----
 Structure from the checkpoint file:  "BDE49_expt_624_mol1.chk"
 Charge =  0 Multiplicity = 1

                         Standard orientation:
 ---------------------------------------------------------------------
 Center     Atomic      Atomic             Coordinates (Angstroms)
 Number     Number       Type             X           Y           Z
 ---------------------------------------------------------------------
      1          6           0        0.082145   -0.201570    0.351595
      2          8           0       -0.241103    0.970892    0.993554
      3          8           0       -0.478341    2.045760    0.065647
      4          1           0       -1.421164    1.916253   -0.129063
      5          6           0        0.351262   -1.223063    1.437820
      6          1           0        1.193035   -0.882200    2.041529
      7          1           0        0.592152   -2.182979    0.985449
      8          1           0       -0.534594   -1.325237    2.065281
      9         17           0       -1.329888   -0.756866   -0.695117
     10         17           0        1.525517   -0.014384   -0.726842
 ---------------------------------------------------------------------

 SCF Done:  E(RHF) =  -1147.09935333     A.U. after    2 cycles

 The electronic state is 1-A.
 Alpha  occ. eigenvalues -- -105.58287-105.57968 -20.66085 -20.64885 -11.44865
 Alpha  occ. eigenvalues --  -11.27034 -10.63114 -10.62801  -7.80041  -7.79743
 Alpha  occ. eigenvalues --   -7.79669  -7.79651  -7.79333  -7.79330  -1.63857
 Alpha  occ. eigenvalues --   -1.35363  -1.14137  -1.05387  -1.01267  -0.83413
 Alpha  occ. eigenvalues --   -0.74973  -0.70414  -0.69200  -0.65223  -0.58915
 Alpha  occ. eigenvalues --   -0.57893  -0.56466  -0.52633  -0.49603  -0.49289
 Alpha  occ. eigenvalues --   -0.47630  -0.47090  -0.45468
 Alpha virt. eigenvalues --    0.03766   0.04518   0.05669   0.05700   0.08236
 Alpha virt. eigenvalues --    0.09467   0.10443   0.12806   0.13309   0.13967
 Alpha virt. eigenvalues --    0.15336   0.16151   0.16622   0.17081   0.18207

 Mulliken charges:
               1
     1  C    0.269344
     2  O   -0.837559
     3  O   -0.412221
     4  H    0.426003
     5  C   -0.023821
     6  H    0.202535
     7  H    0.207209
     8  H    0.181515
     9  Cl  -0.028807
    10  Cl   0.015802
 Sum of Mulliken charges =  -0.00000

 Dipole moment (field-independent basis, Debye):
    X=             -1.0405    Y=             -0.9396    Z=              1.2685  Tot=              1.8906

 Test job not archived.
 1\1\GINC-SE220\SP\RHF\Aug-CC-pVDZ\C2H4Cl2O2\OHZDE\08-Apr-2025\0\\#t hf
  aug-cc-pvdz iop(5/13=1,5/36=2,99/5=2) pseudo=read geom=check guess=(r
 ead,tcheck) scf=(maxcycle=1)\\title\\0,1\C,0,0.082145,-0.20157,0.35159
 5\O,0,-0.241105,0.970891,0.993554\O,0,-0.478345,2.045759,0.065647\H,0,
 -1.421168,1.91625,-0.129063\C,0,0.351264,-1.223063,1.43782\H,0,1.19303
 7,-0.882198,2.041529\H,0,0.592156,-2.182978,0.985449\H,0,-0.534591,-1.
 325238,2.065281\Cl,0,-1.329887,-0.756869,-0.695117\Cl,0,1.525517,-0.01
 4381,-0.726842\\Version=ES64L-G16RevC.01\State=1-A\HF=-1147.0993533\RM

 Normal termination of Gaussian 16 at Tue Apr  8 23:09:57 2025.
