 Gaussian 16, Revision C.01,

 ----------------------------------------------------------------------
 #t hf aug-cc-pvdz symm=none int=(grid=ultrafine) guess=(read,tcheck) s
 table=(opt,rrhf)
 ----------------------------------------------------------------------
 -----
 title
 -----
 Symbolic Z-matrix:
 Charge =  0 Multiplicity = 1

 SCF Done:  E(RHF) =  -663.970462859     A.U. after   17 cycles
 Normal termination of Gaussian 16 at Tue Apr  8 23:20:48 2025.
 Gaussian 16:  ES64L-G16RevC.01  3-Jul-2019

 ----------------------------------------------------------------------
 #t hf aug-cc-pvdz iop(5/13=1,5/36=2,99/5=2) pseudo=read geom=check gue
 ss=(read,tcheck) scf=(maxcycle=1)
 ----------------------------------------------------------------------
 -----
 title
 -----
 Structure from the checkpoint file:  "BDE49_nonexpt_1138_mol1.chk"
 Charge =  0 Multiplicity = 1

                         Standard orientation:
 ---------------------------------------------------------------------
 Center     Atomic      Atomic             Coordinates (Angstroms)
 Number     Number       Type             X           Y           Z
 ---------------------------------------------------------------------
      1          9           0       -1.810954   -0.911253   -0.289246
      2          8           0       -1.108010    0.096375    0.636497
      3          6           0        1.387883   -0.154692   -0.008934
      4          7           0        2.351567   -0.791873    0.064984
      5         16           0        0.023400    0.868846   -0.180628
 ---------------------------------------------------------------------

 SCF Done:  E(RHF) =  -664.272086583     A.U. after    2 cycles

 The electronic state is 1-A.
 Alpha  occ. eigenvalues --  -94.11602 -26.53667 -20.75750 -15.56956 -11.33656
 Alpha  occ. eigenvalues --   -8.39007  -6.36848  -6.36563  -6.36297  -1.66603
 Alpha  occ. eigenvalues --   -1.46027  -1.27840  -1.08536  -0.80320  -0.73302
 Alpha  occ. eigenvalues --   -0.70964  -0.67158  -0.64193  -0.62151  -0.58264
 Alpha  occ. eigenvalues --   -0.56057  -0.54476  -0.45273
 Alpha virt. eigenvalues --    0.01261   0.04997   0.06032   0.07262   0.09451
 Alpha virt. eigenvalues --    0.11144   0.11680   0.12833   0.13335   0.14952
 Alpha virt. eigenvalues --    0.16847   0.20041   0.20529   0.21672   0.22312

 Mulliken charges:
               1
     1  F   -0.288812
     2  O   -0.540338
     3  C   -1.098831
     4  N    0.491343
     5  S    1.436638
 Sum of Mulliken charges =  -0.00000

 Dipole moment (field-independent basis, Debye):
    X=             -1.5389    Y=              2.8002    Z=             -0.3730  Tot=              3.2169

 Test job not archived.
 1\1\GINC-SE009\SP\RHF\Aug-CC-pVDZ\C1F1N1O1S1\OHZDE\08-Apr-2025\0\\#t h
 f aug-cc-pvdz iop(5/13=1,5/36=2,99/5=2) pseudo=read geom=check guess=(
 read,tcheck) scf=(maxcycle=1)\\title\\0,1\F,0,-1.810954,-0.911253,-0.2
 89246\O,0,-1.10801,0.096375,0.636497\C,0,1.387883,-0.154692,-0.008934\
 N,0,2.351567,-0.791873,0.064984\S,0,0.0234,0.868846,-0.180628\\Version
 =ES64L-G16RevC.01\State=1-A\HF=-664.2720866\RMSD=1.022e-02\Dipole=-0.6
 054391,1.101699,-0.1467682\Quadrupole=-4.5281294,2.2518415,2.2762879,1
 .999309,-0.5027961,-0.3847652\PG=C01 [X(C1F1N1O1S1)]\\@

 Normal termination of Gaussian 16 at Tue Apr  8 23:20:49 2025.
