 Gaussian 16, Revision C.01,

 ----------------------------------------------------------------------
 #t hf aug-cc-pvdz symm=none int=(grid=ultrafine) guess=(read,tcheck) s
 table=(opt,rrhf)
 ----------------------------------------------------------------------
 -----
 title
 -----
 Symbolic Z-matrix:
 Charge =  0 Multiplicity = 1

 SCF Done:  E(RHF) =  -1768.37687183     A.U. after   12 cycles
 Normal termination of Gaussian 16 at Wed Apr  9 00:47:05 2025.
 Gaussian 16:  ES64L-G16RevC.01  3-Jul-2019

 ----------------------------------------------------------------------
 #t hf aug-cc-pvdz iop(5/13=1,5/36=2,99/5=2) pseudo=read geom=check gue
 ss=(read,tcheck) scf=(maxcycle=1)
 ----------------------------------------------------------------------
 -----
 title
 -----
 Structure from the checkpoint file:  "BDE49_nonexpt_843_mol1.chk"
 Charge =  0 Multiplicity = 1

                         Standard orientation:
 ---------------------------------------------------------------------
 Center     Atomic      Atomic             Coordinates (Angstroms)
 Number     Number       Type             X           Y           Z
 ---------------------------------------------------------------------
      1         14           0       -0.049787    0.000002   -0.075807
      2          5           0        1.605036    0.000031   -1.240252
      3         17           0       -1.193737   -1.674699   -0.507201
      4         17           0       -1.193709    1.674753   -0.507075
      5         17           0        0.342007   -0.000078    1.951528
      6          8           0        2.799170    0.000011   -0.626934
      7          1           0        3.555714    0.000038   -1.225176
      8          1           0        1.495228    0.000091   -2.430062
 ---------------------------------------------------------------------

 SCF Done:  E(RHF) =  -1768.73784250     A.U. after    2 cycles

 The electronic state is 1-A.
 Alpha  occ. eigenvalues -- -105.57489-105.57488-105.57340 -69.65547 -20.60451
 Alpha  occ. eigenvalues --  -10.62503 -10.62493 -10.62350  -7.79387  -7.79381
 Alpha  occ. eigenvalues --   -7.79241  -7.79065  -7.79063  -7.79060  -7.79059
 Alpha  occ. eigenvalues --   -7.78913  -7.78910  -7.66150  -6.31524  -4.06846
 Alpha  occ. eigenvalues --   -4.06844  -4.06622  -1.50447  -1.10411  -1.05328
 Alpha  occ. eigenvalues --   -1.05252  -0.81615  -0.72098  -0.68472  -0.60017
 Alpha  occ. eigenvalues --   -0.58311  -0.57610  -0.56665  -0.52740  -0.50516
 Alpha  occ. eigenvalues --   -0.50469  -0.47905  -0.47761  -0.46521  -0.43271
 Alpha virt. eigenvalues --    0.02376   0.03797   0.04781   0.05644   0.07248
 Alpha virt. eigenvalues --    0.07621   0.07938   0.08188   0.09528   0.10659
 Alpha virt. eigenvalues --    0.10954   0.12563   0.13473   0.14249   0.16191

 Mulliken charges:
               1
     1  Si   1.548214
     2  B    0.406882
     3  Cl  -0.532973
     4  Cl  -0.532971
     5  Cl  -0.550552
     6  O   -0.934373
     7  H    0.538432
     8  H    0.057342
 Sum of Mulliken charges =  -0.00000

 Dipole moment (field-independent basis, Debye):
    X=              3.0876    Y=              0.0001    Z=             -2.2262  Tot=              3.8065

 Test job not archived.
 1\1\GINC-SE125\SP\RHF\Aug-CC-pVDZ\B1Cl3H2O1Si1\OHZDE\09-Apr-2025\0\\#t
  hf aug-cc-pvdz iop(5/13=1,5/36=2,99/5=2) pseudo=read geom=check guess
 =(read,tcheck) scf=(maxcycle=1)\\title\\0,1\Si,0,-0.049787,0.000002,-0
 .075807\B,0,1.605036,0.000031,-1.240252\Cl,0,-1.193737,-1.674699,-0.50
 7201\Cl,0,-1.19371,1.674753,-0.507075\Cl,0,0.342007,-0.000078,1.951528
 \O,0,2.79917,0.000012,-0.626934\H,0,3.555714,0.000039,-1.225176\H,0,1.
 495228,0.000091,-2.430062\\Version=ES64L-G16RevC.01\State=1-A\HF=-1768
 .7378425\RMSD=6.837e-03\Dipole=1.2147699,0.0000285,-0.8758428\Quadrupo

 Normal termination of Gaussian 16 at Wed Apr  9 00:47:09 2025.
