 Gaussian 16, Revision C.01,

 ----------------------------------------------------------------------
 #t hf aug-cc-pvdz symm=none int=(grid=ultrafine) guess=(read,tcheck) s
 table=(opt,rrhf)
 ----------------------------------------------------------------------
 -----
 title
 -----
 Symbolic Z-matrix:
 Charge =  0 Multiplicity = 1

 SCF Done:  E(RHF) =  -344.958836239     A.U. after   13 cycles

 1\1\GINC-SE340\Stability\RHF\Aug-CC-pVDZ\C5H10O2\OHZDE\08-Apr-2025\0\\
 #t hf aug-cc-pvdz symm=none int=(grid=ultrafine) guess=(read,tcheck) s
 table=(opt,rrhf)\\title\\0,1\O,0,0.116376,-0.526033,0.228885\C,0,1.267
 013,0.082486,-0.134881\C,0,-1.135151,0.05492,-0.250954\O,0,1.322001,1.
 069757,-0.824802\C,0,2.457939,-0.643236,0.442865\C,0,-1.566292,1.17482
 2,0.687858\H,0,-1.697353,0.793894,1.704396\H,0,-2.516412,1.600901,0.35
 4067\H,0,-0.822052,1.972371,0.69985\H,0,2.439325,-1.693047,0.143177\H,
 0,2.413293,-0.614368,1.534134\H,0,3.373907,-0.168961,0.097072\C,0,-2.1

 Normal termination of Gaussian 16 at Tue Apr  8 22:42:58 2025.
 Gaussian 16:  ES64L-G16RevC.01  3-Jul-2019

 ----------------------------------------------------------------------
 #t hf aug-cc-pvdz iop(5/13=1,5/36=2,99/5=2) pseudo=read geom=check gue
 ss=(read,tcheck) scf=(maxcycle=1)
 ----------------------------------------------------------------------
 -----
 title
 -----
 Structure from the checkpoint file:  "BDE49_expt_1452_mol1.chk"
 Charge =  0 Multiplicity = 1

                         Standard orientation:
 ---------------------------------------------------------------------
 Center     Atomic      Atomic             Coordinates (Angstroms)
 Number     Number       Type             X           Y           Z
 ---------------------------------------------------------------------
      1          8           0        0.116376   -0.526033    0.228885
      2          6           0        1.267013    0.082486   -0.134881
      3          6           0       -1.135151    0.054920   -0.250954
      4          8           0        1.322001    1.069757   -0.824802
      5          6           0        2.457939   -0.643236    0.442865
      6          6           0       -1.566292    1.174822    0.687858
      7          1           0       -1.697353    0.793894    1.704396
      8          1           0       -2.516412    1.600901    0.354067
      9          1           0       -0.822052    1.972371    0.699850
     10          1           0        2.439325   -1.693047    0.143177
     11          1           0        2.413293   -0.614368    1.534134
     12          1           0        3.373907   -0.168961    0.097072
     13          6           0       -2.126887   -1.094985   -0.325768
     14          1           0       -0.941000    0.464312   -1.244251
     15          1           0       -2.285736   -1.533878    0.662721
     16          1           0       -1.762178   -1.876847   -0.995079
     17          1           0       -3.088534   -0.738208   -0.703467
 ---------------------------------------------------------------------

 SCF Done:  E(RHF) =  -345.318021090     A.U. after    2 cycles

 The electronic state is 1-A.
 Alpha  occ. eigenvalues --  -20.58018 -20.52894 -11.38606 -11.29908 -11.24888
 Alpha  occ. eigenvalues --  -11.23293 -11.22908  -1.53269  -1.44442  -1.07913
 Alpha  occ. eigenvalues --   -1.00850  -0.94822  -0.84269  -0.77135  -0.69926
 Alpha  occ. eigenvalues --   -0.66973  -0.65878  -0.61784  -0.59140  -0.58421
 Alpha  occ. eigenvalues --   -0.56608  -0.55546  -0.53928  -0.52019  -0.50772
 Alpha  occ. eigenvalues --   -0.48799  -0.44663  -0.43496
 Alpha virt. eigenvalues --    0.03560   0.03885   0.04104   0.04623   0.06039
 Alpha virt. eigenvalues --    0.06199   0.06725   0.07468   0.07700   0.08889
 Alpha virt. eigenvalues --    0.10704   0.13254   0.13285   0.14342   0.15142

 Mulliken charges:
               1
     1  O   -1.429962
     2  C    1.806155
     3  C    0.155007
     4  O   -1.217229
     5  C   -0.722778
     6  C   -0.314332
     7  H    0.224555
     8  H    0.169908
     9  H    0.126707
    10  H    0.223923
    11  H    0.232028
    12  H    0.188199
    13  C   -0.244365
    14  H    0.240084
    15  H    0.211594
    16  H    0.164027
    17  H    0.186478
 Sum of Mulliken charges =  -0.00000

 Dipole moment (field-independent basis, Debye):
    X=             -0.8570    Y=             -1.5289    Z=              1.0520  Tot=              2.0442

 Test job not archived.
 1\1\GINC-SE340\SP\RHF\Aug-CC-pVDZ\C5H10O2\OHZDE\08-Apr-2025\0\\#t hf a
 ug-cc-pvdz iop(5/13=1,5/36=2,99/5=2) pseudo=read geom=check guess=(rea
 d,tcheck) scf=(maxcycle=1)\\title\\0,1\O,0,0.116376,-0.526033,0.228885
 \C,0,1.267013,0.082486,-0.134881\C,0,-1.135151,0.05492,-0.250954\O,0,1
 .322001,1.069757,-0.824802\C,0,2.457939,-0.643236,0.442865\C,0,-1.5662
 92,1.174822,0.687858\H,0,-1.697353,0.793894,1.704396\H,0,-2.516412,1.6
 00901,0.354067\H,0,-0.822052,1.972371,0.69985\H,0,2.439325,-1.693047,0
 .143177\H,0,2.413293,-0.614368,1.534134\H,0,3.373907,-0.168961,0.09707

 Normal termination of Gaussian 16 at Tue Apr  8 22:43:03 2025.
