 Gaussian 16, Revision C.01,

 ----------------------------------------------------------------------
 #t hf aug-cc-pvdz symm=none int=(grid=ultrafine) guess=(read,tcheck) s
 table=(opt,rrhf)
 ----------------------------------------------------------------------
 -----
 title
 -----
 Symbolic Z-matrix:
 Charge =  0 Multiplicity = 1

 SCF Done:  E(RHF) =  -551.979073259     A.U. after   16 cycles
 Normal termination of Gaussian 16 at Wed Apr  9 00:39:00 2025.
 Gaussian 16:  ES64L-G16RevC.01  3-Jul-2019

 ----------------------------------------------------------------------
 #t hf aug-cc-pvdz iop(5/13=1,5/36=2,99/5=2) pseudo=read geom=check gue
 ss=(read,tcheck) scf=(maxcycle=1)
 ----------------------------------------------------------------------
 -----
 title
 -----
 Structure from the checkpoint file:  "BDE49_nonexpt_564_mol1.chk"
 Charge =  0 Multiplicity = 1

                         Standard orientation:
 ---------------------------------------------------------------------
 Center     Atomic      Atomic             Coordinates (Angstroms)
 Number     Number       Type             X           Y           Z
 ---------------------------------------------------------------------
      1          7           0        0.209593   -0.105589   -0.342473
      2          7           0        0.747944   -1.331458    0.002533
      3          5           0        0.946449    1.159676   -0.129835
      4          8           0        0.098527   -2.331425   -0.247636
      5          8           0        1.861012   -1.347584    0.542587
      6          8           0        2.165164    1.249000    0.440488
      7          8           0        0.289798    2.273632   -0.566906
      8          6           0       -1.123761   -0.148856   -0.975450
      9          6           0       -2.282510   -0.377740    0.003721
     10          1           0       -1.112325   -0.929666   -1.736597
     11          1           0       -1.231237    0.815006   -1.470452
     12          6           0       -2.420231    0.700955    1.081292
     13          1           0       -2.176673   -1.363511    0.462743
     14          1           0       -3.196824   -0.415606   -0.598911
     15          1           0       -1.546006    0.727310    1.737240
     16          1           0       -3.292788    0.506950    1.709870
     17          1           0       -2.534311    1.695127    0.640995
     18          1           0        0.812686    3.065510   -0.406774
     19          1           0        2.485475    0.364681    0.685000
 ---------------------------------------------------------------------

 SCF Done:  E(RHF) =  -552.529777138     A.U. after    2 cycles

 The electronic state is 1-A.
 Alpha  occ. eigenvalues --  -20.60274 -20.59465 -20.57621 -20.56292 -15.83688
 Alpha  occ. eigenvalues --  -15.58625 -11.29004 -11.24366 -11.23341  -7.68787
 Alpha  occ. eigenvalues --   -1.69251  -1.52444  -1.49972  -1.45874  -1.30822
 Alpha  occ. eigenvalues --   -1.08718  -1.00124  -0.92752  -0.85322  -0.83848
 Alpha  occ. eigenvalues --   -0.79076  -0.76686  -0.76110  -0.73466  -0.69584
 Alpha  occ. eigenvalues --   -0.64639  -0.63166  -0.59931  -0.58790  -0.57949
 Alpha  occ. eigenvalues --   -0.57494  -0.53551  -0.52929  -0.51236  -0.50861
 Alpha  occ. eigenvalues --   -0.50000  -0.49111  -0.46938  -0.46175
 Alpha virt. eigenvalues --    0.03396   0.03738   0.04021   0.04458   0.04984
 Alpha virt. eigenvalues --    0.05324   0.05475   0.06445   0.07470   0.07824
 Alpha virt. eigenvalues --    0.09067   0.09369   0.10266   0.11511   0.13659

 Mulliken charges:
               1
     1  N    0.948405
     2  N    2.027463
     3  B    1.551442
     4  O   -1.346554
     5  O   -1.362778
     6  O   -1.495135
     7  O   -1.271400
     8  C   -0.510291
     9  C   -0.343981
    10  H    0.152524
    11  H    0.043843
    12  C   -0.259735
    13  H    0.117153
    14  H    0.156496
    15  H    0.174551
    16  H    0.069642
    17  H    0.182844
    18  H    0.436600
    19  H    0.728909
 Sum of Mulliken charges =  -0.00000

 Dipole moment (field-independent basis, Debye):
    X=             -1.7329    Y=              2.2521    Z=             -0.7571  Tot=              2.9407

 Test job not archived.
 1\1\GINC-SE336\SP\RHF\Aug-CC-pVDZ\C3H9B1N2O4\OHZDE\09-Apr-2025\0\\#t h
 f aug-cc-pvdz iop(5/13=1,5/36=2,99/5=2) pseudo=read geom=check guess=(
 read,tcheck) scf=(maxcycle=1)\\title\\0,1\N,0,0.209593,-0.105589,-0.34
 2473\N,0,0.747944,-1.331458,0.002533\B,0,0.946449,1.159676,-0.129835\O
 ,0,0.098527,-2.331425,-0.247636\O,0,1.861012,-1.347584,0.542587\O,0,2.
 165164,1.249,0.440488\O,0,0.289798,2.273632,-0.566906\C,0,-1.123761,-0
 .148856,-0.97545\C,0,-2.28251,-0.37774,0.003721\H,0,-1.112325,-0.92966
 6,-1.736597\H,0,-1.231237,0.815006,-1.470452\C,0,-2.420231,0.700955,1.

 Normal termination of Gaussian 16 at Wed Apr  9 00:39:11 2025.
