 Gaussian 16, Revision C.01,

 ----------------------------------------------------------------------
 #t hf aug-cc-pvdz symm=none int=(grid=ultrafine) guess=(read,tcheck) s
 table=(opt,rrhf)
 ----------------------------------------------------------------------
 -----
 title
 -----
 Symbolic Z-matrix:
 Charge =  0 Multiplicity = 1

 SCF Done:  E(RHF) =  -725.012919924     A.U. after   14 cycles
 Normal termination of Gaussian 16 at Tue Apr  8 22:43:57 2025.
 Gaussian 16:  ES64L-G16RevC.01  3-Jul-2019

 ----------------------------------------------------------------------
 #t hf aug-cc-pvdz iop(5/13=1,5/36=2,99/5=2) pseudo=read geom=check gue
 ss=(read,tcheck) scf=(maxcycle=1)
 ----------------------------------------------------------------------
 -----
 title
 -----
 Structure from the checkpoint file:  "BDE49_expt_149_mol1.chk"
 Charge =  0 Multiplicity = 1

                         Standard orientation:
 ---------------------------------------------------------------------
 Center     Atomic      Atomic             Coordinates (Angstroms)
 Number     Number       Type             X           Y           Z
 ---------------------------------------------------------------------
      1          6           0        0.000000    1.193321   -0.966500
      2          6           0       -0.000000    0.000000   -1.671546
      3          6           0       -0.000000   -1.193321   -0.966500
      4          1           0       -0.000000    0.000000   -2.752881
      5          9           0        0.000000   -2.361439   -1.621691
      6          6           0        0.000000    1.207379    0.423806
      7          9           0        0.000000    2.361439   -1.621691
      8          6           0        0.000000   -0.000000    1.115269
      9          6           0       -0.000000   -1.207379    0.423806
     10          9           0        0.000000   -2.360482    1.097542
     11          9           0        0.000000    2.360482    1.097542
     12          9           0        0.000000   -0.000000    2.448617
 ---------------------------------------------------------------------

 SCF Done:  E(RHF) =  -725.687315798     A.U. after    2 cycles

 The electronic state is 1-A1.
 Alpha  occ. eigenvalues --  -26.52359 -26.51851 -26.51850 -26.51789 -26.51789
 Alpha  occ. eigenvalues --  -11.39368 -11.38836 -11.38835 -11.38353 -11.38348
 Alpha  occ. eigenvalues --  -11.29991  -1.66596  -1.65670  -1.65147  -1.64135
 Alpha  occ. eigenvalues --   -1.63738  -1.21953  -1.08283  -1.07245  -0.93466
 Alpha  occ. eigenvalues --   -0.91947  -0.83643  -0.81711  -0.79739  -0.75539
 Alpha  occ. eigenvalues --   -0.75471  -0.75134  -0.73404  -0.72294  -0.71199
 Alpha  occ. eigenvalues --   -0.69409  -0.69253  -0.69034  -0.67237  -0.66708
 Alpha  occ. eigenvalues --   -0.62758  -0.60143  -0.59302  -0.53938  -0.39523
 Alpha  occ. eigenvalues --   -0.38251
 Alpha virt. eigenvalues --    0.03235   0.06460   0.07200   0.07511   0.08589
 Alpha virt. eigenvalues --    0.08657   0.09910   0.10069   0.11402   0.12430
 Alpha virt. eigenvalues --    0.12532   0.13012   0.14221   0.14795   0.15681

 Mulliken charges:
               1
     1  C    1.567223
     2  C   -0.617825
     3  C    1.567223
     4  H   -0.098398
     5  F   -0.986231
     6  C    0.554156
     7  F   -0.986231
     8  C    1.277734
     9  C    0.554156
    10  F   -0.923513
    11  F   -0.923513
    12  F   -0.984781
 Sum of Mulliken charges =  -0.00000

 Dipole moment (field-independent basis, Debye):
    X=             -0.0000    Y=             -0.0000    Z=             -1.5139  Tot=              1.5139

 Test job not archived.
 1\1\GINC-SE072\SP\RHF\Aug-CC-pVDZ\C6H1F5\OHZDE\08-Apr-2025\0\\#t hf au
 g-cc-pvdz iop(5/13=1,5/36=2,99/5=2) pseudo=read geom=check guess=(read
 ,tcheck) scf=(maxcycle=1)\\title\\0,1\C,0,0.,1.193321,-0.9665\C,0,0.,0
 .,-1.671546\C,0,0.,-1.193321,-0.9665\H,0,0.,0.,-2.752881\F,0,0.,-2.361
 439,-1.621691\C,0,0.,1.207379,0.423806\F,0,0.,2.361439,-1.621691\C,0,0
 .,0.,1.115269\C,0,0.,-1.207379,0.423806\F,0,0.,-2.360482,1.097542\F,0,
 0.,2.360482,1.097542\F,0,0.,0.,2.448617\\Version=ES64L-G16RevC.01\Stat
 e=1-A1\HF=-725.6873158\RMSD=2.604e-02\Dipole=0.,0.,-0.5956135\Quadrupo

 Normal termination of Gaussian 16 at Tue Apr  8 22:44:03 2025.
