 Gaussian 16, Revision C.01,

 ----------------------------------------------------------------------
 #t hf aug-cc-pvdz symm=none int=(grid=ultrafine) guess=(read,tcheck) s
 table=(opt,rrhf)
 ----------------------------------------------------------------------
 -----
 title
 -----
 Symbolic Z-matrix:
 Charge =  0 Multiplicity = 1

 SCF Done:  E(RHF) =  -194.259165177     A.U. after   13 cycles
 Normal termination of Gaussian 16 at Wed Apr  9 00:37:58 2025.
 Gaussian 16:  ES64L-G16RevC.01  3-Jul-2019

 ----------------------------------------------------------------------
 #t hf aug-cc-pvdz iop(5/13=1,5/36=2,99/5=2) pseudo=read geom=check gue
 ss=(read,tcheck) scf=(maxcycle=1)
 ----------------------------------------------------------------------
 -----
 title
 -----
 Structure from the checkpoint file:  "BDE49_nonexpt_585_mol1.chk"
 Charge =  0 Multiplicity = 1

                         Standard orientation:
 ---------------------------------------------------------------------
 Center     Atomic      Atomic             Coordinates (Angstroms)
 Number     Number       Type             X           Y           Z
 ---------------------------------------------------------------------
      1          6           0       -0.637175    0.361743   -0.000012
      2          5           0        1.848517    0.144816    0.000002
      3          8           0       -1.737660   -0.122875    0.000009
      4          7           0        0.543611   -0.385667   -0.000003
      5          1           0        2.772207   -0.601186    0.000006
      6          1           0        1.976718    1.327103   -0.000003
      7          1           0       -0.442313    1.447691    0.000010
      8          1           0        0.369855   -1.385483   -0.000001
 ---------------------------------------------------------------------

 SCF Done:  E(RHF) =  -194.454485244     A.U. after    2 cycles

 The electronic state is 1-A.
 Alpha  occ. eigenvalues --  -20.54518 -15.53949 -11.37945  -7.62080  -1.49008
 Alpha  occ. eigenvalues --   -1.23687  -0.88782  -0.81774  -0.71053  -0.65240
 Alpha  occ. eigenvalues --   -0.60740  -0.60298  -0.51352  -0.47130  -0.45211
 Alpha virt. eigenvalues --    0.03610   0.03935   0.04114   0.04648   0.06716
 Alpha virt. eigenvalues --    0.09175   0.09231   0.09619   0.12003   0.12385
 Alpha virt. eigenvalues --    0.12960   0.15363   0.15737   0.16716   0.18207

 Mulliken charges:
               1
     1  C    0.542399
     2  B   -0.499833
     3  O   -0.976397
     4  N    0.444393
     5  H    0.264691
     6  H    0.107742
     7  H    0.072086
     8  H    0.044918
 Sum of Mulliken charges =  -0.00000

 Dipole moment (field-independent basis, Debye):
    X=              2.3704    Y=              0.3118    Z=             -0.0000  Tot=              2.3909

 Test job not archived.
 1\1\GINC-SE177\SP\RHF\Aug-CC-pVDZ\C1H4B1N1O1\OHZDE\09-Apr-2025\0\\#t h
 f aug-cc-pvdz iop(5/13=1,5/36=2,99/5=2) pseudo=read geom=check guess=(
 read,tcheck) scf=(maxcycle=1)\\title\\0,1\C,0,-0.637175,0.361743,-0.00
 0012\B,0,1.848517,0.144816,0.000002\O,0,-1.73766,-0.122875,0.000009\N,
 0,0.543611,-0.385667,-0.000003\H,0,2.772207,-0.601186,0.000006\H,0,1.9
 76718,1.327103,-0.000003\H,0,-0.442313,1.447691,0.00001\H,0,0.369855,-
 1.385483,-0.000001\\Version=ES64L-G16RevC.01\State=1-A\HF=-194.4544852
 \RMSD=1.299e-02\Dipole=0.9326047,0.12267,-0.0000092\Quadrupole=-4.1154

 Normal termination of Gaussian 16 at Wed Apr  9 00:38:00 2025.
