 Gaussian 16, Revision C.01,

 ----------------------------------------------------------------------
 #t hf aug-cc-pvdz symm=none int=(grid=ultrafine) guess=(read,tcheck) s
 table=opt
 ----------------------------------------------------------------------
 -----
 title
 -----
 Symbolic Z-matrix:
 Charge =  0 Multiplicity = 2

 SCF Done:  E(UHF) =  -214.723118242     A.U. after   14 cycles
 Normal termination of Gaussian 16 at Tue Apr  8 23:54:19 2025.
 Gaussian 16:  ES64L-G16RevC.01  3-Jul-2019

 ----------------------------------------------------------------------
 #t hf aug-cc-pvdz iop(5/13=1,5/36=2,99/5=2) pseudo=read geom=check gue
 ss=(read,tcheck) scf=(maxcycle=1)
 ----------------------------------------------------------------------
 -----
 title
 -----
 Structure from the checkpoint file:  "BDE49_nonexpt_1958_mol3.chk"
 Charge =  0 Multiplicity = 2

                         Standard orientation:
 ---------------------------------------------------------------------
 Center     Atomic      Atomic             Coordinates (Angstroms)
 Number     Number       Type             X           Y           Z
 ---------------------------------------------------------------------
      1          6           0       -1.524858   -0.165911   -0.000001
      2          5           0        0.008933   -0.013110   -0.000014
      3          8           0        0.657071    1.202386    0.000010
      4          1           0        0.061132    1.954770    0.000022
      5          8           0        0.784560   -1.140045   -0.000006
      6          1           0        1.723045   -0.923816    0.000000
      7          1           0       -1.997776   -1.142306    0.000001
      8          1           0       -2.214968    0.673646    0.000017
 ---------------------------------------------------------------------

 SCF Done:  E(UHF) =  -214.938987854     A.U. after    2 cycles

 The electronic state is 2-A.
 Alpha  occ. eigenvalues --  -20.55798 -20.54869 -11.24165  -7.63583  -1.47745
 Alpha  occ. eigenvalues --   -1.43474  -0.96434  -0.76393  -0.72435  -0.63540
 Alpha  occ. eigenvalues --   -0.57581  -0.57520  -0.55144  -0.51757  -0.49387
 Alpha  occ. eigenvalues --   -0.39716
 Alpha virt. eigenvalues --    0.03320   0.04730   0.04885   0.05354   0.07070
 Alpha virt. eigenvalues --    0.07931   0.09359   0.10784   0.13611   0.16319
 Alpha virt. eigenvalues --    0.16638   0.19323   0.21200   0.21519   0.22377

  Beta  occ. eigenvalues --  -20.55685 -20.54740 -11.22097  -7.63705  -1.47465
  Beta  occ. eigenvalues --   -1.43161  -0.88149  -0.76081  -0.72060  -0.62731
  Beta  occ. eigenvalues --   -0.56387  -0.55877  -0.54934  -0.50344  -0.48200
  Beta virt. eigenvalues --    0.03410   0.04105   0.04749   0.04944   0.07080
  Beta virt. eigenvalues --    0.07099   0.07938   0.09493   0.10800   0.16018
  Beta virt. eigenvalues --    0.16503   0.16724   0.19786   0.21283   0.21629

 Mulliken charges and spin densities:
               1          2
     1  C   -0.296226   1.198067
     2  B    1.779006  -0.111384
     3  O   -1.090037   0.023195
     4  H    0.482911  -0.004728
     5  O   -1.180757   0.036592
     6  H    0.484151   0.000909
     7  H   -0.060985  -0.070023
     8  H   -0.118063  -0.072628
 Sum of Mulliken charges =  -0.00000   1.00000

 Dipole moment (field-independent basis, Debye):
    X=             -0.7321    Y=              1.4508    Z=             -0.0000  Tot=              1.6250
                          Isotropic Fermi Contact Couplings
        Atom                 a.u.       MegaHertz       Gauss      10(-4) cm-1
     1  C(13)              0.15531     174.59320      62.29919      58.23802
     2  B(11)             -0.02552     -36.60996     -13.06335     -12.21177
     3  O(17)              0.01011      -6.13117      -2.18775      -2.04514
     4  H(1)              -0.00067      -2.99638      -1.06918      -0.99948
     5  O(17)              0.00729      -4.41827      -1.57655      -1.47378
     6  H(1)              -0.00127      -5.65944      -2.01943      -1.88778
     7  H(1)              -0.02082     -93.05447     -33.20415     -31.03963
     8  H(1)              -0.02079     -92.94669     -33.16569     -31.00368

 Normal termination of Gaussian 16 at Tue Apr  8 23:54:21 2025.
