 Gaussian 16, Revision C.01,

 ----------------------------------------------------------------------
 #t hf aug-cc-pvdz symm=none int=(grid=ultrafine) guess=(read,tcheck) s
 table=(opt,rrhf)
 ----------------------------------------------------------------------
 -----
 title
 -----
 Symbolic Z-matrix:
 Charge =  0 Multiplicity = 1

 SCF Done:  E(RHF) =  -480.026549078     A.U. after   12 cycles
 Normal termination of Gaussian 16 at Tue Apr  8 23:50:19 2025.
 Gaussian 16:  ES64L-G16RevC.01  3-Jul-2019

 ----------------------------------------------------------------------
 #t hf aug-cc-pvdz iop(5/13=1,5/36=2,99/5=2) pseudo=read geom=check gue
 ss=(read,tcheck) scf=(maxcycle=1)
 ----------------------------------------------------------------------
 -----
 title
 -----
 Structure from the checkpoint file:  "BDE49_nonexpt_1864_mol1.chk"
 Charge =  0 Multiplicity = 1

                         Standard orientation:
 ---------------------------------------------------------------------
 Center     Atomic      Atomic             Coordinates (Angstroms)
 Number     Number       Type             X           Y           Z
 ---------------------------------------------------------------------
      1          6           0        0.506573    0.007873   -0.397991
      2         14           0       -1.356009    0.013388    0.035235
      3          8           0        1.143440   -1.182675    0.050281
      4          1           0        1.024616   -1.232077    1.006666
      5          8           0        1.073609    1.162283    0.190817
      6          1           0        2.008858    1.188880   -0.048400
      7          1           0       -2.000029    1.304630   -0.292864
      8          1           0       -1.465736   -0.251266    1.490708
      9          1           0       -2.025916   -1.077897   -0.707380
     10          1           0        0.666505   -0.003805   -1.482859
 ---------------------------------------------------------------------

 SCF Done:  E(RHF) =  -480.253595808     A.U. after    2 cycles

 The electronic state is 1-A.
 Alpha  occ. eigenvalues --  -69.53222 -20.56618 -20.56504 -11.33574  -6.20405
 Alpha  occ. eigenvalues --   -3.95763  -3.95759  -3.95752  -1.49888  -1.43020
 Alpha  occ. eigenvalues --   -0.91746  -0.77097  -0.72044  -0.65427  -0.62210
 Alpha  occ. eigenvalues --   -0.60254  -0.50525  -0.49436  -0.48849  -0.47811
 Alpha  occ. eigenvalues --   -0.42568
 Alpha virt. eigenvalues --    0.03612   0.04283   0.04415   0.05390   0.06839
 Alpha virt. eigenvalues --    0.07751   0.08408   0.09295   0.09835   0.13370
 Alpha virt. eigenvalues --    0.13985   0.15034   0.16021   0.16891   0.19274

 Mulliken charges:
               1
     1  C    1.285571
     2  Si   0.992705
     3  O   -1.154949
     4  H    0.282723
     5  O   -1.084154
     6  H    0.274314
     7  H   -0.177969
     8  H   -0.228955
     9  H   -0.178306
    10  H   -0.010979
 Sum of Mulliken charges =  -0.00000

 Dipole moment (field-independent basis, Debye):
    X=              0.3329    Y=              0.1668    Z=             -0.0811  Tot=              0.3811

 Test job not archived.
 1\1\GINC-SE100\SP\RHF\Aug-CC-pVDZ\C1H6O2Si1\OHZDE\08-Apr-2025\0\\#t hf
  aug-cc-pvdz iop(5/13=1,5/36=2,99/5=2) pseudo=read geom=check guess=(r
 ead,tcheck) scf=(maxcycle=1)\\title\\0,1\C,0,0.506573,0.007873,-0.3979
 91\Si,0,-1.356009,0.013388,0.035235\O,0,1.14344,-1.182675,0.050281\H,0
 ,1.024616,-1.232077,1.006666\O,0,1.073609,1.162283,0.190817\H,0,2.0088
 58,1.18888,-0.0484\H,0,-2.000029,1.30463,-0.292864\H,0,-1.465736,-0.25
 1266,1.490708\H,0,-2.025916,-1.077897,-0.70738\H,0,0.666505,-0.003805,
 -1.482859\\Version=ES64L-G16RevC.01\State=1-A\HF=-480.2535958\RMSD=6.0

 Normal termination of Gaussian 16 at Tue Apr  8 23:50:22 2025.
