 Gaussian 16, Revision C.01,

 ----------------------------------------------------------------------
 #t hf aug-cc-pvdz symm=none int=(grid=ultrafine) guess=(read,tcheck) s
 table=(opt,rrhf)
 ----------------------------------------------------------------------
 -----
 title
 -----
 Symbolic Z-matrix:
 Charge =  0 Multiplicity = 1

 SCF Done:  E(RHF) =  -1163.21084676     A.U. after   14 cycles
 Normal termination of Gaussian 16 at Tue Apr  8 23:58:27 2025.
 Gaussian 16:  ES64L-G16RevC.01  3-Jul-2019

 ----------------------------------------------------------------------
 #t hf aug-cc-pvdz iop(5/13=1,5/36=2,99/5=2) pseudo=read geom=check gue
 ss=(read,tcheck) scf=(maxcycle=1)
 ----------------------------------------------------------------------
 -----
 title
 -----
 Structure from the checkpoint file:  "BDE49_nonexpt_2056_mol1.chk"
 Charge =  0 Multiplicity = 1

                         Standard orientation:
 ---------------------------------------------------------------------
 Center     Atomic      Atomic             Coordinates (Angstroms)
 Number     Number       Type             X           Y           Z
 ---------------------------------------------------------------------
      1         14           0       -2.047423   -0.591827   -0.000008
      2          6           0       -0.278237    0.108166   -0.000089
      3         16           0       -0.087399    1.742111    0.000048
      4         16           0        0.978136   -1.085441   -0.000014
      5          6           0        2.516774   -0.123203    0.000007
      6          1           0        3.327812   -0.851752    0.000060
      7          1           0        2.565583    0.503012    0.890322
      8          1           0        2.565645    0.502953   -0.890347
      9          1           0       -2.731948   -0.105497    1.214051
     10          1           0       -2.014119   -2.074130   -0.000012
     11          1           0       -2.732053   -0.105493   -1.214006
 ---------------------------------------------------------------------

 SCF Done:  E(RHF) =  -1163.44509912     A.U. after    2 cycles

 The electronic state is 1-A.
 Alpha  occ. eigenvalues --  -93.98956 -93.93500 -69.55140 -11.34125 -11.28153
 Alpha  occ. eigenvalues --   -8.27100  -8.21679  -6.24922  -6.24707  -6.24569
 Alpha  occ. eigenvalues --   -6.22183  -6.19504  -6.19292  -6.19093  -3.97586
 Alpha  occ. eigenvalues --   -3.97544  -3.97534  -1.14603  -1.03873  -0.93167
 Alpha  occ. eigenvalues --   -0.79857  -0.69461  -0.62232  -0.61525  -0.57344
 Alpha  occ. eigenvalues --   -0.53382  -0.52067  -0.49763  -0.46613  -0.45771
 Alpha  occ. eigenvalues --   -0.35561  -0.34325
 Alpha virt. eigenvalues --    0.02872   0.03393   0.03951   0.05213   0.05296
 Alpha virt. eigenvalues --    0.05910   0.06635   0.06949   0.08409   0.09826
 Alpha virt. eigenvalues --    0.10309   0.10836   0.12904   0.13490   0.14143

 Mulliken charges:
               1
     1  Si   1.199716
     2  C   -1.172243
     3  S    0.152345
     4  S    0.561867
     5  C   -0.759663
     6  H    0.131493
     7  H    0.247853
     8  H    0.247837
     9  H   -0.197243
    10  H   -0.214716
    11  H   -0.197247
 Sum of Mulliken charges =  -0.00000

 Dipole moment (field-independent basis, Debye):
    X=              1.2571    Y=             -1.6478    Z=              0.0000  Tot=              2.0726

 Test job not archived.
 1\1\GINC-SE396\SP\RHF\Aug-CC-pVDZ\C2H6S2Si1\OHZDE\08-Apr-2025\0\\#t hf
  aug-cc-pvdz iop(5/13=1,5/36=2,99/5=2) pseudo=read geom=check guess=(r
 ead,tcheck) scf=(maxcycle=1)\\title\\0,1\Si,0,-2.047423,-0.591827,-0.0
 00008\C,0,-0.278237,0.108166,-0.000089\S,0,-0.087399,1.742111,0.000048
 \S,0,0.978136,-1.085441,-0.000014\C,0,2.516774,-0.123203,0.000007\H,0,
 3.327812,-0.851752,0.00006\H,0,2.565583,0.503012,0.890322\H,0,2.565645
 ,0.502953,-0.890347\H,0,-2.731948,-0.105497,1.214051\H,0,-2.014119,-2.
 07413,-0.000012\H,0,-2.732053,-0.105493,-1.214006\\Version=ES64L-G16Re

 Normal termination of Gaussian 16 at Tue Apr  8 23:58:30 2025.
