 Gaussian 16, Revision C.01,

 ----------------------------------------------------------------------
 #t hf aug-cc-pvdz symm=none int=(grid=ultrafine) guess=(read,tcheck) s
 table=(opt,rrhf)
 ----------------------------------------------------------------------
 -----
 title
 -----
 Symbolic Z-matrix:
 Charge =  0 Multiplicity = 1

 SCF Done:  E(RHF) =  -527.340991627     A.U. after   14 cycles
 Normal termination of Gaussian 16 at Tue Apr  8 22:53:32 2025.
 Gaussian 16:  ES64L-G16RevC.01  3-Jul-2019

 ----------------------------------------------------------------------
 #t hf aug-cc-pvdz iop(5/13=1,5/36=2,99/5=2) pseudo=read geom=check gue
 ss=(read,tcheck) scf=(maxcycle=1)
 ----------------------------------------------------------------------
 -----
 title
 -----
 Structure from the checkpoint file:  "BDE49_expt_1817_mol1.chk"
 Charge =  0 Multiplicity = 1

                         Standard orientation:
 ---------------------------------------------------------------------
 Center     Atomic      Atomic             Coordinates (Angstroms)
 Number     Number       Type             X           Y           Z
 ---------------------------------------------------------------------
      1          7           0        0.000000    0.927670    0.000000
      2          8           0        1.139103    1.159553    0.000000
      3         16           0       -0.459538   -0.947000    0.000000
      4          1           0       -1.760223   -0.618115    0.000000
 ---------------------------------------------------------------------

 SCF Done:  E(RHF) =  -527.514928415     A.U. after    2 cycles

 The electronic state is 1-A'.
 Alpha  occ. eigenvalues --  -93.99225 -20.67244 -15.72011  -8.27170  -6.24936
 Alpha  occ. eigenvalues --   -6.24829  -6.24572  -1.68229  -1.08174  -0.93194
 Alpha  occ. eigenvalues --   -0.74473  -0.73405  -0.68060  -0.55565  -0.40853
 Alpha  occ. eigenvalues --   -0.40553
 Alpha virt. eigenvalues --    0.04062   0.04201   0.04301   0.10377   0.11361
 Alpha virt. eigenvalues --    0.11873   0.14611   0.17066   0.18377   0.18541
 Alpha virt. eigenvalues --    0.19664   0.23113   0.23438   0.26565   0.30216

 Mulliken charges:
               1
     1  N    0.591568
     2  O   -0.813909
     3  S   -0.110072
     4  H    0.332412
 Sum of Mulliken charges =   0.00000

 Dipole moment (field-independent basis, Debye):
    X=             -0.8808    Y=             -0.4141    Z=              0.0000  Tot=              0.9733

 Test job not archived.
 1\1\GINC-SE100\SP\RHF\Aug-CC-pVDZ\H1N1O1S1\OHZDE\08-Apr-2025\0\\#t hf
 aug-cc-pvdz iop(5/13=1,5/36=2,99/5=2) pseudo=read geom=check guess=(re
 ad,tcheck) scf=(maxcycle=1)\\title\\0,1\N,0,0.,0.92767,0.\O,0,1.139103
 ,1.159553,0.\S,0,-0.459537,-0.947,0.\H,0,-1.760222,-0.618116,0.\\Versi
 on=ES64L-G16RevC.01\State=1-A'\HF=-527.5149284\RMSD=1.232e-02\Dipole=-
 0.3465309,-0.1629,0.\Quadrupole=1.7834419,-0.8287494,-0.9546926,0.7842
 544,0.,0.\PG=CS [SG(H1N1O1S1)]\\@

 Normal termination of Gaussian 16 at Tue Apr  8 22:53:34 2025.
