 Gaussian 16, Revision C.01,

 ----------------------------------------------------------------------
 #t hf aug-cc-pvdz symm=none int=(grid=ultrafine) guess=(read,tcheck) s
 table=(opt,rrhf)
 ----------------------------------------------------------------------
 -----
 title
 -----
 Symbolic Z-matrix:
 Charge =  0 Multiplicity = 1

 SCF Done:  E(RHF) =  -310.253212209     A.U. after   12 cycles

 1\1\GINC-SE125\Stability\RHF\Aug-CC-pVDZ\C6H14O1\OHZDE\08-Apr-2025\0\\
 #t hf aug-cc-pvdz symm=none int=(grid=ultrafine) guess=(read,tcheck) s
 table=(opt,rrhf)\\title\\0,1\C,0,-0.875452,0.02751,-0.000006\O,0,0.489
 373,0.495355,-0.001141\C,0,1.540786,-0.459455,0.000156\C,0,2.851797,0.
 310019,-0.0002\C,0,-1.179427,-0.792222,-1.263927\H,0,-2.247689,-1.0172
 25,-1.323266\H,0,-0.642944,-1.744138,-1.273226\H,0,-0.896923,-0.227328
 ,-2.155948\C,0,-1.17931,-0.785949,1.267998\H,0,-0.642574,-1.737663,1.2
 82115\H,0,-2.247513,-1.010955,1.32842\H,0,-0.896984,-0.2165,2.157169\H

 Normal termination of Gaussian 16 at Tue Apr  8 22:42:28 2025.
 Gaussian 16:  ES64L-G16RevC.01  3-Jul-2019

 ----------------------------------------------------------------------
 #t hf aug-cc-pvdz iop(5/13=1,5/36=2,99/5=2) pseudo=read geom=check gue
 ss=(read,tcheck) scf=(maxcycle=1)
 ----------------------------------------------------------------------
 -----
 title
 -----
 Structure from the checkpoint file:  "BDE49_expt_1380_mol1.chk"
 Charge =  0 Multiplicity = 1

                         Standard orientation:
 ---------------------------------------------------------------------
 Center     Atomic      Atomic             Coordinates (Angstroms)
 Number     Number       Type             X           Y           Z
 ---------------------------------------------------------------------
      1          6           0       -0.875452    0.027510   -0.000006
      2          8           0        0.489373    0.495355   -0.001141
      3          6           0        1.540786   -0.459455    0.000156
      4          6           0        2.851797    0.310019   -0.000200
      5          6           0       -1.179427   -0.792222   -1.263927
      6          1           0       -2.247689   -1.017225   -1.323266
      7          1           0       -0.642944   -1.744138   -1.273226
      8          1           0       -0.896923   -0.227328   -2.155948
      9          6           0       -1.179310   -0.785949    1.267998
     10          1           0       -0.642574   -1.737663    1.282115
     11          1           0       -2.247513   -1.010955    1.328420
     12          1           0       -0.896984   -0.216500    2.157169
     13          1           0        1.486879   -1.107504   -0.885211
     14          1           0        1.486337   -1.105772    0.886754
     15          1           0        2.919315    0.946608   -0.885367
     16          1           0        3.701522   -0.378410    0.000587
     17          1           0        2.918916    0.948158    0.883879
     18          6           0       -1.690553    1.323524   -0.003170
     19          1           0       -2.762914    1.112347   -0.002408
     20          1           0       -1.448905    1.915229   -0.888932
     21          1           0       -1.448548    1.919750    0.879457
 ---------------------------------------------------------------------

 SCF Done:  E(RHF) =  -310.592588534     A.U. after    2 cycles

 The electronic state is 1-A.
 Alpha  occ. eigenvalues --  -20.52921 -11.28888 -11.27573 -11.22229 -11.22204
 Alpha  occ. eigenvalues --  -11.21973 -11.21643  -1.44297  -1.07990  -1.00207
 Alpha  occ. eigenvalues --   -0.94012  -0.93623  -0.83789  -0.75759  -0.66199
 Alpha  occ. eigenvalues --   -0.65655  -0.62389  -0.60936  -0.57248  -0.56339
 Alpha  occ. eigenvalues --   -0.55332  -0.52934  -0.52187  -0.51950  -0.51311
 Alpha  occ. eigenvalues --   -0.48555  -0.48371  -0.44449  -0.40480
 Alpha virt. eigenvalues --    0.03660   0.03766   0.03884   0.04184   0.05764
 Alpha virt. eigenvalues --    0.05918   0.06064   0.06635   0.06766   0.08620
 Alpha virt. eigenvalues --    0.09188   0.09591   0.09845   0.10404   0.12462

 Mulliken charges:
               1
     1  C   -0.895452
     2  O   -1.655695
     3  C    0.334586
     4  C   -0.541968
     5  C    0.095829
     6  H    0.172110
     7  H    0.192373
     8  H    0.217339
     9  C    0.095322
    10  H    0.192133
    11  H    0.172447
    12  H    0.217190
    13  H    0.132958
    14  H    0.133903
    15  H    0.174186
    16  H    0.134646
    17  H    0.174194
    18  C    0.034733
    19  H    0.206582
    20  H    0.206309
    21  H    0.206274
 Sum of Mulliken charges =  -0.00000

 Dipole moment (field-independent basis, Debye):
    X=             -0.3495    Y=             -1.1920    Z=              0.0020  Tot=              1.2422

 Test job not archived.
 1\1\GINC-SE125\SP\RHF\Aug-CC-pVDZ\C6H14O1\OHZDE\08-Apr-2025\0\\#t hf a
 ug-cc-pvdz iop(5/13=1,5/36=2,99/5=2) pseudo=read geom=check guess=(rea
 d,tcheck) scf=(maxcycle=1)\\title\\0,1\C,0,-0.875452,0.02751,-0.000006
 \O,0,0.489373,0.495355,-0.001141\C,0,1.540786,-0.459455,0.000156\C,0,2
 .851797,0.310019,-0.0002\C,0,-1.179427,-0.792222,-1.263927\H,0,-2.2476
 89,-1.017225,-1.323266\H,0,-0.642944,-1.744138,-1.273226\H,0,-0.896923
 ,-0.227328,-2.155948\C,0,-1.17931,-0.785949,1.267998\H,0,-0.642574,-1.
 737663,1.282115\H,0,-2.247513,-1.010955,1.32842\H,0,-0.896984,-0.2165,

 Normal termination of Gaussian 16 at Tue Apr  8 22:42:37 2025.
