 Gaussian 16, Revision C.01,

 ----------------------------------------------------------------------
 #t hf aug-cc-pvdz symm=none int=(grid=ultrafine) guess=(read,tcheck) s
 table=(opt,rrhf)
 ----------------------------------------------------------------------
 -----
 title
 -----
 Symbolic Z-matrix:
 Charge =  0 Multiplicity = 1

 SCF Done:  E(RHF) =  -1248.12882281     A.U. after   12 cycles
 Normal termination of Gaussian 16 at Tue Apr  8 23:56:55 2025.
 Gaussian 16:  ES64L-G16RevC.01  3-Jul-2019

 ----------------------------------------------------------------------
 #t hf aug-cc-pvdz iop(5/13=1,5/36=2,99/5=2) pseudo=read geom=check gue
 ss=(read,tcheck) scf=(maxcycle=1)
 ----------------------------------------------------------------------
 -----
 title
 -----
 Structure from the checkpoint file:  "BDE49_nonexpt_2025_mol1.chk"
 Charge =  0 Multiplicity = 1

                         Standard orientation:
 ---------------------------------------------------------------------
 Center     Atomic      Atomic             Coordinates (Angstroms)
 Number     Number       Type             X           Y           Z
 ---------------------------------------------------------------------
      1         14           0       -1.755265   -0.000002   -0.070596
      2          6           0        0.064464    0.000000    0.498471
      3         17           0        0.899543    1.490772   -0.087772
      4         17           0        0.899547   -1.490769   -0.087772
      5          1           0        0.180984    0.000000    1.578987
      6          1           0       -1.777444   -0.000002   -1.544678
      7          1           0       -2.400578    1.213440    0.473739
      8          1           0       -2.400574   -1.213445    0.473738
 ---------------------------------------------------------------------

 SCF Done:  E(RHF) =  -1248.35708434     A.U. after    2 cycles

 The electronic state is 1-A.
 Alpha  occ. eigenvalues -- -105.58178-105.58177 -69.55764 -11.36625 -10.62960
 Alpha  occ. eigenvalues --  -10.62948  -7.79896  -7.79895  -7.79504  -7.79503
 Alpha  occ. eigenvalues --   -7.79495  -7.79492  -6.22824  -3.98208  -3.98177
 Alpha  occ. eigenvalues --   -3.98166  -1.15377  -1.04892  -0.88532  -0.75902
 Alpha  occ. eigenvalues --   -0.64391  -0.59739  -0.57505  -0.51316  -0.51032
 Alpha  occ. eigenvalues --   -0.48091  -0.47509  -0.45586  -0.43338
 Alpha virt. eigenvalues --    0.03299   0.04032   0.05713   0.05747   0.07402
 Alpha virt. eigenvalues --    0.07896   0.08657   0.09904   0.10080   0.13026
 Alpha virt. eigenvalues --    0.14151   0.15414   0.15603   0.16231   0.16856

 Mulliken charges:
               1
     1  Si   1.230603
     2  C   -0.900150
     3  Cl  -0.051801
     4  Cl  -0.051801
     5  H    0.288781
     6  H   -0.165653
     7  H   -0.174989
     8  H   -0.174989
 Sum of Mulliken charges =   0.00000

 Dipole moment (field-independent basis, Debye):
    X=             -1.7508    Y=             -0.0000    Z=              1.0365  Tot=              2.0346

 Test job not archived.
 1\1\GINC-SE105\SP\RHF\Aug-CC-pVDZ\C1H4Cl2Si1\OHZDE\08-Apr-2025\0\\#t h
 f aug-cc-pvdz iop(5/13=1,5/36=2,99/5=2) pseudo=read geom=check guess=(
 read,tcheck) scf=(maxcycle=1)\\title\\0,1\Si,0,-1.755265,-0.000001,-0.
 070596\C,0,0.064464,0.,0.498471\Cl,0,0.899544,1.490771,-0.087772\Cl,0,
 0.899546,-1.49077,-0.087772\H,0,0.180984,0.,1.578987\H,0,-1.777444,-0.
 000001,-1.544678\H,0,-2.400577,1.213441,0.473739\H,0,-2.400575,-1.2134
 44,0.473738\\Version=ES64L-G16RevC.01\State=1-A\HF=-1248.3570843\RMSD=
 4.058e-03\Dipole=-0.6888141,-0.0000002,0.4077794\Quadrupole=0.4726295,

 Normal termination of Gaussian 16 at Tue Apr  8 23:56:57 2025.
