 Gaussian 16, Revision C.01,

 ----------------------------------------------------------------------
 #t hf aug-cc-pvdz symm=none int=(grid=ultrafine) guess=(read,tcheck) s
 table=(opt,rrhf)
 ----------------------------------------------------------------------
 -----
 title
 -----
 Symbolic Z-matrix:
 Charge =  0 Multiplicity = 1

 SCF Done:  E(RHF) =  -744.691105572     A.U. after   15 cycles
 Normal termination of Gaussian 16 at Tue Apr  8 22:51:10 2025.
 Gaussian 16:  ES64L-G16RevC.01  3-Jul-2019

 ----------------------------------------------------------------------
 #t hf aug-cc-pvdz iop(5/13=1,5/36=2,99/5=2) pseudo=read geom=check gue
 ss=(read,tcheck) scf=(maxcycle=1)
 ----------------------------------------------------------------------
 -----
 title
 -----
 Structure from the checkpoint file:  "BDE49_expt_1734_mol1.chk"
 Charge =  0 Multiplicity = 1

                         Standard orientation:
 ---------------------------------------------------------------------
 Center     Atomic      Atomic             Coordinates (Angstroms)
 Number     Number       Type             X           Y           Z
 ---------------------------------------------------------------------
      1          6           0        1.917283    1.246096   -0.059623
      2          6           0        0.588128    1.145580    0.331083
      3          6           0        2.619706    0.079405   -0.349503
      4          6           0        1.954838   -1.138011   -0.231168
      5          7           0        0.677258   -1.247399    0.142574
      6          6           0        0.006206   -0.122916    0.416077
      7          1           0        2.397129    2.215226   -0.135422
      8          1           0        0.004235    2.029852    0.558434
      9          6           0       -1.424115   -0.298064    0.839052
     10         17           0       -2.584275    0.115048   -0.514632
     11          1           0       -1.698685    0.357980    1.662690
     12          1           0       -1.609964   -1.337445    1.091876
     13          1           0        3.657753    0.108638   -0.658060
     14          1           0        2.469127   -2.070807   -0.444312
 ---------------------------------------------------------------------

 SCF Done:  E(RHF) =  -745.059947210     A.U. after    2 cycles

 The electronic state is 1-A.
 Alpha  occ. eigenvalues -- -105.55521 -15.51534 -11.31100 -11.29938 -11.28967
 Alpha  occ. eigenvalues --  -11.27557 -11.25884 -11.25802 -10.60284  -7.77221
 Alpha  occ. eigenvalues --   -7.76850  -7.76841  -1.27371  -1.11253  -1.10205
 Alpha  occ. eigenvalues --   -1.03882  -0.93270  -0.88736  -0.84589  -0.73134
 Alpha  occ. eigenvalues --   -0.71042  -0.66750  -0.62709  -0.62126  -0.59485
 Alpha  occ. eigenvalues --   -0.58875  -0.55145  -0.53706  -0.46861  -0.44533
 Alpha  occ. eigenvalues --   -0.44407  -0.41312  -0.36126
 Alpha virt. eigenvalues --    0.03016   0.03657   0.03903   0.04971   0.05526
 Alpha virt. eigenvalues --    0.06701   0.07466   0.08322   0.09199   0.10197
 Alpha virt. eigenvalues --    0.11082   0.12079   0.12518   0.13725   0.13970

 Mulliken charges:
               1
     1  C    0.027830
     2  C    0.667843
     3  C    0.570147
     4  C   -0.631873
     5  N    1.139114
     6  C   -0.833577
     7  H   -0.169305
     8  H   -0.215570
     9  C   -0.459111
    10  Cl  -0.054041
    11  H    0.168616
    12  H    0.163964
    13  H   -0.187832
    14  H   -0.186204
 Sum of Mulliken charges =  -0.00000

 Dipole moment (field-independent basis, Debye):
    X=              2.8071    Y=              1.8656    Z=              1.2764  Tot=              3.6041

 Test job not archived.
 1\1\GINC-SE273\SP\RHF\Aug-CC-pVDZ\C6H6Cl1N1\OHZDE\08-Apr-2025\0\\#t hf
  aug-cc-pvdz iop(5/13=1,5/36=2,99/5=2) pseudo=read geom=check guess=(r
 ead,tcheck) scf=(maxcycle=1)\\title\\0,1\C,0,1.917283,1.246096,-0.0596
 23\C,0,0.588128,1.14558,0.331083\C,0,2.619706,0.079405,-0.349503\C,0,1
 .954838,-1.138011,-0.231168\N,0,0.677258,-1.247399,0.142574\C,0,0.0062
 06,-0.122916,0.416077\H,0,2.397129,2.215226,-0.135422\H,0,0.004235,2.0
 29852,0.558434\C,0,-1.424115,-0.298064,0.839052\Cl,0,-2.584275,0.11504
 8,-0.514632\H,0,-1.698685,0.35798,1.66269\H,0,-1.609964,-1.337445,1.09

 Normal termination of Gaussian 16 at Tue Apr  8 22:51:16 2025.
