 Gaussian 16, Revision C.01,

 ----------------------------------------------------------------------
 #t hf aug-cc-pvdz symm=none int=(grid=ultrafine) guess=(read,tcheck) s
 table=opt
 ----------------------------------------------------------------------
 -----
 title
 -----
 Symbolic Z-matrix:
 Charge =  0 Multiplicity = 2

 SCF Done:  E(UHF) =  -1008.79652674     A.U. after   22 cycles
 Normal termination of Gaussian 16 at Wed Apr  9 00:25:16 2025.
 Gaussian 16:  ES64L-G16RevC.01  3-Jul-2019

 ----------------------------------------------------------------------
 #t hf aug-cc-pvdz iop(5/13=1,5/36=2,99/5=2) pseudo=read geom=check gue
 ss=(read,tcheck) scf=(maxcycle=1)
 ----------------------------------------------------------------------
 -----
 title
 -----
 Structure from the checkpoint file:  "BDE49_nonexpt_2723_mol3.chk"
 Charge =  0 Multiplicity = 2

                         Standard orientation:
 ---------------------------------------------------------------------
 Center     Atomic      Atomic             Coordinates (Angstroms)
 Number     Number       Type             X           Y           Z
 ---------------------------------------------------------------------
      1         16           0       -1.063618   -1.218627    0.000044
      2          6           0       -0.824347    0.525173   -0.000743
      3          8           0       -1.787362    1.252320    0.000296
      4          6           0        0.591275    1.085362    0.000006
      5         17           0        1.838103   -0.210382    0.000048
      6          1           0        0.733399    1.696087    0.890650
      7          1           0        0.734066    1.696684   -0.890119
 ---------------------------------------------------------------------

 SCF Done:  E(UHF) =  -1009.07414092     A.U. after    2 cycles

 The electronic state is 2-A.
 Alpha  occ. eigenvalues -- -105.59106 -94.00801 -20.57210 -11.40320 -11.34719
 Alpha  occ. eigenvalues --  -10.63919  -8.28997  -7.80854  -7.80534  -7.80447
 Alpha  occ. eigenvalues --   -6.28179  -6.26358  -6.26075  -1.51428  -1.15675
 Alpha  occ. eigenvalues --   -1.07807  -0.97280  -0.77775  -0.69301  -0.68640
 Alpha  occ. eigenvalues --   -0.65714  -0.57972  -0.56607  -0.51161  -0.47909
 Alpha  occ. eigenvalues --   -0.47635  -0.43182  -0.42117
 Alpha virt. eigenvalues --    0.03564   0.04765   0.06380   0.07760   0.08727
 Alpha virt. eigenvalues --    0.09926   0.11640   0.12503   0.12725   0.14218
 Alpha virt. eigenvalues --    0.14435   0.14966   0.15933   0.17338   0.17569

  Beta  occ. eigenvalues -- -105.59064 -93.99849 -20.57098 -11.40430 -11.34710
  Beta  occ. eigenvalues --  -10.63870  -8.27901  -7.80824  -7.80419  -7.80391
  Beta  occ. eigenvalues --   -6.25834  -6.25457  -6.24000  -1.51099  -1.14984
  Beta  occ. eigenvalues --   -1.01857  -0.95932  -0.76081  -0.68640  -0.68112
  Beta  occ. eigenvalues --   -0.64137  -0.57472  -0.56522  -0.49231  -0.47749
  Beta  occ. eigenvalues --   -0.43186  -0.39906
  Beta virt. eigenvalues --   -0.01429   0.03607   0.04756   0.06528   0.08115
  Beta virt. eigenvalues --    0.08859   0.09764   0.11961   0.12685   0.13098
  Beta virt. eigenvalues --    0.14270   0.15041   0.15280   0.16066   0.17358

 Mulliken charges and spin densities:
               1          2
     1  S    0.393269   1.094886
     2  C    0.702068  -0.104631
     3  O   -1.183074   0.002237
     4  C   -0.638644   0.005544
     5  Cl   0.023074   0.001649
     6  H    0.351589   0.000163
     7  H    0.351718   0.000151
 Sum of Mulliken charges =  -0.00000   1.00000

 Dipole moment (field-independent basis, Debye):
    X=              1.5097    Y=              0.4834    Z=             -0.0008  Tot=              1.5853
                          Isotropic Fermi Contact Couplings
        Atom                 a.u.       MegaHertz       Gauss      10(-4) cm-1
     1  S(33)              0.22901      78.65775      28.06704      26.23740
     2  C(13)             -0.01982     -22.28177      -7.95069      -7.43240
     3  O(17)              0.01666     -10.09897      -3.60356      -3.36865
     4  C(13)              0.00185       2.07951       0.74202       0.69365
     5  Cl(35)             0.04547      19.93636       7.11379       6.65005
     6  H(1)              -0.00010      -0.44002      -0.15701      -0.14678
     7  H(1)              -0.00010      -0.43829      -0.15639      -0.14620
 --------------------------------------------------------

 1\1\GINC-SE090\SP\UHF\Aug-CC-pVDZ\C2H2Cl1O1S1(2)\OHZDE\09-Apr-2025\0\\
 #t hf aug-cc-pvdz iop(5/13=1,5/36=2,99/5=2) pseudo=read geom=check gue
 ss=(read,tcheck) scf=(maxcycle=1)\\title\\0,2\S,0,1.063618,-1.218627,-
 0.000044\C,0,0.824347,0.525173,0.000743\O,0,1.787362,1.252321,-0.00029
 6\C,0,-0.591275,1.085362,-0.000006\Cl,0,-1.838103,-0.210383,-0.000048\
 H,0,-0.7334,1.696087,-0.89065\H,0,-0.734067,1.696684,0.890119\\Version
 =ES64L-G16RevC.01\State=2-A\HF=-1009.0741409\S2=0.761539\S2-1=0.\S2A=0
 .750047\RMSD=7.959e-03\Dipole=-0.5939786,0.190197,0.0003332\Quadrupole

 Normal termination of Gaussian 16 at Wed Apr  9 00:25:19 2025.
