 Gaussian 16, Revision C.01,

 ----------------------------------------------------------------------
 #t hf aug-cc-pvdz symm=none int=(grid=ultrafine) guess=(read,tcheck) s
 table=(opt,rrhf)
 ----------------------------------------------------------------------
 -----
 title
 -----
 Symbolic Z-matrix:
 Charge =  0 Multiplicity = 1

 SCF Done:  E(RHF) =  -792.889172915     A.U. after   13 cycles
 Normal termination of Gaussian 16 at Tue Apr  8 23:37:08 2025.
 Gaussian 16:  ES64L-G16RevC.01  3-Jul-2019

 ----------------------------------------------------------------------
 #t hf aug-cc-pvdz iop(5/13=1,5/36=2,99/5=2) pseudo=read geom=check gue
 ss=(read,tcheck) scf=(maxcycle=1)
 ----------------------------------------------------------------------
 -----
 title
 -----
 Structure from the checkpoint file:  "BDE49_nonexpt_1532_mol1.chk"
 Charge =  0 Multiplicity = 1

                         Standard orientation:
 ---------------------------------------------------------------------
 Center     Atomic      Atomic             Coordinates (Angstroms)
 Number     Number       Type             X           Y           Z
 ---------------------------------------------------------------------
      1         15           0        0.670016   -0.000002    0.516618
      2          7           0       -0.859653    0.000003   -0.499679
      3          9           0        1.318661   -1.212889   -0.286539
      4          9           0        1.318665    1.212892   -0.286529
      5          9           0       -1.542698   -1.105089    0.050343
      6          9           0       -1.542703    1.105088    0.050334
 ---------------------------------------------------------------------

 SCF Done:  E(RHF) =  -793.339162656     A.U. after    2 cycles

 The electronic state is 1-A.
 Alpha  occ. eigenvalues --  -84.48674 -26.53117 -26.53113 -26.52767 -26.52765
 Alpha  occ. eigenvalues --  -15.73071  -6.93989  -4.46671  -4.46227  -4.45187
 Alpha  occ. eigenvalues --   -1.69094  -1.66799  -1.62659  -1.60319  -1.13927
 Alpha  occ. eigenvalues --   -0.91718  -0.80117  -0.78964  -0.77962  -0.75306
 Alpha  occ. eigenvalues --   -0.73478  -0.70549  -0.69174  -0.67982  -0.66227
 Alpha  occ. eigenvalues --   -0.63503  -0.61836  -0.54961  -0.45389
 Alpha virt. eigenvalues --    0.05381   0.06466   0.07667   0.09540   0.12864
 Alpha virt. eigenvalues --    0.13836   0.14705   0.16118   0.16400   0.20046
 Alpha virt. eigenvalues --    0.20348   0.23250   0.23868   0.26964   0.28159

 Mulliken charges:
               1
     1  P    1.815457
     2  N    0.772780
     3  F   -0.707404
     4  F   -0.707403
     5  F   -0.586714
     6  F   -0.586716
 Sum of Mulliken charges =  -0.00000

 Dipole moment (field-independent basis, Debye):
    X=              1.3894    Y=              0.0000    Z=              1.7452  Tot=              2.2307

 Test job not archived.
 1\1\GINC-SE186\SP\RHF\Aug-CC-pVDZ\F4N1P1\OHZDE\08-Apr-2025\0\\#t hf au
 g-cc-pvdz iop(5/13=1,5/36=2,99/5=2) pseudo=read geom=check guess=(read
 ,tcheck) scf=(maxcycle=1)\\title\\0,1\P,0,0.670016,-0.000002,0.516618\
 N,0,-0.859653,0.000003,-0.499679\F,0,1.318661,-1.212889,-0.286539\F,0,
 1.318665,1.212892,-0.286529\F,0,-1.542698,-1.105089,0.050343\F,0,-1.54
 2703,1.105088,0.050334\\Version=ES64L-G16RevC.01\State=1-A\HF=-793.339
 1627\RMSD=9.107e-03\Dipole=0.5466413,0.0000026,0.6866168\Quadrupole=-0
 .1629338,-0.3140846,0.4770184,-0.0000415,0.8481976,-0.0000031\PG=C01 [

 Normal termination of Gaussian 16 at Tue Apr  8 23:37:10 2025.
