 Gaussian 16, Revision C.01,

 ----------------------------------------------------------------------
 #t hf aug-cc-pvdz symm=none int=(grid=ultrafine) guess=(read,tcheck) s
 table=(opt,rrhf)
 ----------------------------------------------------------------------
 -----
 title
 -----
 Symbolic Z-matrix:
 Charge =  0 Multiplicity = 1

 SCF Done:  E(RHF) =  -947.509984540     A.U. after   13 cycles
 Normal termination of Gaussian 16 at Tue Apr  8 23:43:49 2025.
 Gaussian 16:  ES64L-G16RevC.01  3-Jul-2019

 ----------------------------------------------------------------------
 #t hf aug-cc-pvdz iop(5/13=1,5/36=2,99/5=2) pseudo=read geom=check gue
 ss=(read,tcheck) scf=(maxcycle=1)
 ----------------------------------------------------------------------
 -----
 title
 -----
 Structure from the checkpoint file:  "BDE49_nonexpt_1692_mol1.chk"
 Charge =  0 Multiplicity = 1

                         Standard orientation:
 ---------------------------------------------------------------------
 Center     Atomic      Atomic             Coordinates (Angstroms)
 Number     Number       Type             X           Y           Z
 ---------------------------------------------------------------------
      1         14           0       -0.894220    0.000000    0.029885
      2         15           0        1.313448    0.000000   -0.709193
      3          9           0        1.797861    1.244578    0.246219
      4          9           0        1.797861   -1.244578    0.246219
      5          6           0       -1.715929   -1.550219   -0.650265
      6          1           0       -1.709874   -1.562986   -1.743997
      7          1           0       -2.759669   -1.601517   -0.323786
      8          1           0       -1.212090   -2.454565   -0.298639
      9          6           0       -1.715929    1.550219   -0.650265
     10          1           0       -1.709875    1.562986   -1.743996
     11          1           0       -1.212090    2.454565   -0.298638
     12          1           0       -2.759669    1.601517   -0.323786
     13          6           0       -0.847211    0.000000    1.906630
     14          1           0       -0.323393   -0.883067    2.280569
     15          1           0       -1.859672   -0.000002    2.322652
     16          1           0       -0.323395    0.883068    2.280569
 ---------------------------------------------------------------------

 SCF Done:  E(RHF) =  -947.902986395     A.U. after    2 cycles

 The electronic state is 1-A.
 Alpha  occ. eigenvalues --  -84.38398 -69.53432 -26.46534 -26.46533 -11.22805
 Alpha  occ. eigenvalues --  -11.22801 -11.22215  -6.84175  -6.20552  -4.36891
 Alpha  occ. eigenvalues --   -4.36248  -4.35277  -3.95874  -3.95813  -3.95805
 Alpha  occ. eigenvalues --   -1.59297  -1.55443  -0.99345  -0.94545  -0.94209
 Alpha  occ. eigenvalues --   -0.85355  -0.69599  -0.68699  -0.66929  -0.64094
 Alpha  occ. eigenvalues --   -0.63458  -0.60366  -0.59173  -0.58386  -0.57905
 Alpha  occ. eigenvalues --   -0.56410  -0.56075  -0.55177  -0.49669  -0.46120
 Alpha  occ. eigenvalues --   -0.45779  -0.33240
 Alpha virt. eigenvalues --    0.02830   0.03965   0.03999   0.04957   0.06397
 Alpha virt. eigenvalues --    0.06617   0.06874   0.07105   0.07255   0.09193
 Alpha virt. eigenvalues --    0.09463   0.09893   0.11343   0.12963   0.13274

 Mulliken charges:
               1
     1  Si   2.261377
     2  P    1.099314
     3  F   -0.803219
     4  F   -0.803219
     5  C   -0.533994
     6  H   -0.049882
     7  H   -0.002975
     8  H   -0.026758
     9  C   -0.533992
    10  H   -0.049885
    11  H   -0.026756
    12  H   -0.002976
    13  C   -0.503519
    14  H   -0.007339
    15  H   -0.008837
    16  H   -0.007339
 Sum of Mulliken charges =  -0.00000

 Dipole moment (field-independent basis, Debye):
    X=             -2.7521    Y=             -0.0000    Z=             -0.5030  Tot=              2.7976

 Test job not archived.
 1\1\GINC-SE041\SP\RHF\Aug-CC-pVDZ\C3H9F2P1Si1\OHZDE\08-Apr-2025\0\\#t
 hf aug-cc-pvdz iop(5/13=1,5/36=2,99/5=2) pseudo=read geom=check guess=
 (read,tcheck) scf=(maxcycle=1)\\title\\0,1\Si,0,0.89422,0.,0.029885\P,
 0,-1.313448,0.,-0.709193\F,0,-1.797861,-1.244578,0.246219\F,0,-1.79786
 1,1.244578,0.246219\C,0,1.715929,1.550219,-0.650265\H,0,1.709874,1.562
 986,-1.743997\H,0,2.759669,1.601517,-0.323786\H,0,1.21209,2.454565,-0.
 298639\C,0,1.715929,-1.550219,-0.650265\H,0,1.709875,-1.562986,-1.7439
 96\H,0,1.21209,-2.454565,-0.298638\H,0,2.759669,-1.601517,-0.323786\C,

 Normal termination of Gaussian 16 at Tue Apr  8 23:43:57 2025.
