 Gaussian 16, Revision C.01,

 ----------------------------------------------------------------------
 #t hf aug-cc-pvdz symm=none int=(grid=ultrafine) guess=(read,tcheck) s
 table=(opt,rrhf)
 ----------------------------------------------------------------------
 -----
 title
 -----
 Symbolic Z-matrix:
 Charge =  0 Multiplicity = 1

 SCF Done:  E(RHF) =  -356.220666786     A.U. after   13 cycles
 Normal termination of Gaussian 16 at Wed Apr  9 00:32:59 2025.
 Gaussian 16:  ES64L-G16RevC.01  3-Jul-2019

 ----------------------------------------------------------------------
 #t hf aug-cc-pvdz iop(5/13=1,5/36=2,99/5=2) pseudo=read geom=check gue
 ss=(read,tcheck) scf=(maxcycle=1)
 ----------------------------------------------------------------------
 -----
 title
 -----
 Structure from the checkpoint file:  "BDE49_nonexpt_407_mol1.chk"
 Charge =  0 Multiplicity = 1

                         Standard orientation:
 ---------------------------------------------------------------------
 Center     Atomic      Atomic             Coordinates (Angstroms)
 Number     Number       Type             X           Y           Z
 ---------------------------------------------------------------------
      1          9           0        1.462523    1.248913    0.000072
      2          9           0        2.082126   -0.924785    0.000066
      3          5           0        1.107982   -0.021684   -0.000113
      4          6           0       -0.383368   -0.485884   -0.000062
      5          7           0       -1.316558    0.381322   -0.000036
      6          1           0       -0.604657   -1.566851   -0.000059
      7          6           0       -2.689364   -0.081111   -0.000002
      8          1           0       -3.196651    0.333615   -0.876564
      9          1           0       -3.196604    0.333611    0.876590
     10          1           0       -2.791548   -1.176396   -0.000002
 ---------------------------------------------------------------------

 SCF Done:  E(RHF) =  -356.561531919     A.U. after    2 cycles

 The electronic state is 1-A.
 Alpha  occ. eigenvalues --  -26.48192 -26.47658 -15.53727 -11.28054 -11.27352
 Alpha  occ. eigenvalues --   -7.72255  -1.63144  -1.59133  -1.25113  -0.99335
 Alpha  occ. eigenvalues --   -0.84579  -0.79438  -0.74634  -0.72338  -0.69423
 Alpha  occ. eigenvalues --   -0.67883  -0.63244  -0.63178  -0.62154  -0.61724
 Alpha  occ. eigenvalues --   -0.54147  -0.46303  -0.45962
 Alpha virt. eigenvalues --    0.03354   0.04139   0.04502   0.05410   0.05954
 Alpha virt. eigenvalues --    0.06235   0.06455   0.06777   0.09984   0.12474
 Alpha virt. eigenvalues --    0.12959   0.14546   0.15706   0.16417   0.17652

 Mulliken charges:
               1
     1  F   -0.639036
     2  F   -0.684027
     3  B    1.631490
     4  C   -0.684280
     5  N    0.501076
     6  H   -0.079652
     7  C   -0.453647
     8  H    0.137555
     9  H    0.137556
    10  H    0.132966
 Sum of Mulliken charges =  -0.00000

 Dipole moment (field-independent basis, Debye):
    X=             -1.8895    Y=             -2.0568    Z=             -0.0006  Tot=              2.7930

 Test job not archived.
 1\1\GINC-SE460\SP\RHF\Aug-CC-pVDZ\C2H4B1F2N1\OHZDE\09-Apr-2025\0\\#t h
 f aug-cc-pvdz iop(5/13=1,5/36=2,99/5=2) pseudo=read geom=check guess=(
 read,tcheck) scf=(maxcycle=1)\\title\\0,1\F,0,1.462523,1.248913,0.0000
 72\F,0,2.082126,-0.924785,0.000066\B,0,1.107982,-0.021684,-0.000113\C,
 0,-0.383368,-0.485884,-0.000062\N,0,-1.316558,0.381322,-0.000036\H,0,-
 0.604657,-1.566851,-0.000059\C,0,-2.689364,-0.081111,-0.000002\H,0,-3.
 196651,0.333615,-0.876564\H,0,-3.196604,0.333611,0.87659\H,0,-2.791548
 ,-1.176396,-0.000002\\Version=ES64L-G16RevC.01\State=1-A\HF=-356.56153

 Normal termination of Gaussian 16 at Wed Apr  9 00:33:02 2025.
