 Gaussian 16, Revision C.01,

 ----------------------------------------------------------------------
 #t hf aug-cc-pvdz symm=none int=(grid=ultrafine) guess=(read,tcheck) s
 table=(opt,rrhf)
 ----------------------------------------------------------------------
 -----
 title
 -----
 Symbolic Z-matrix:
 Charge =  0 Multiplicity = 1

 SCF Done:  E(RHF) =  -1895.04733224     A.U. after   11 cycles
 Normal termination of Gaussian 16 at Wed Apr  9 00:09:38 2025.
 Gaussian 16:  ES64L-G16RevC.01  3-Jul-2019

 ----------------------------------------------------------------------
 #t hf aug-cc-pvdz iop(5/13=1,5/36=2,99/5=2) pseudo=read geom=check gue
 ss=(read,tcheck) scf=(maxcycle=1)
 ----------------------------------------------------------------------
 -----
 title
 -----
 Structure from the checkpoint file:  "BDE49_nonexpt_2326_mol1.chk"
 Charge =  0 Multiplicity = 1

                         Standard orientation:
 ---------------------------------------------------------------------
 Center     Atomic      Atomic             Coordinates (Angstroms)
 Number     Number       Type             X           Y           Z
 ---------------------------------------------------------------------
      1         14           0       -1.510464    0.000000   -0.063136
      2         14           0        0.796163   -0.000000    0.317131
      3          9           0        1.064316   -0.000000    1.889118
      4         17           0        1.651221    1.679543   -0.477927
      5          9           0       -2.191267   -1.282309    0.570048
      6          9           0       -2.191259    1.282339    0.569996
      7         17           0        1.651220   -1.679543   -0.477927
      8          9           0       -1.808599   -0.000030   -1.618763
 ---------------------------------------------------------------------

 SCF Done:  E(RHF) =  -1895.62102433     A.U. after    2 cycles

 The electronic state is 1-A.
 Alpha  occ. eigenvalues -- -105.60327-105.60327 -69.70308 -69.70062 -26.50264
 Alpha  occ. eigenvalues --  -26.50255 -26.50254 -26.50160 -10.65371 -10.65362
 Alpha  occ. eigenvalues --   -7.82255  -7.82249  -7.81918  -7.81916  -7.81914
 Alpha  occ. eigenvalues --   -7.81910  -6.36147  -6.35874  -4.11448  -4.11447
 Alpha  occ. eigenvalues --   -4.11233  -4.11183  -4.11167  -4.10981  -1.64102
 Alpha  occ. eigenvalues --   -1.61606  -1.60755  -1.60749  -1.11896  -1.08496
 Alpha  occ. eigenvalues --   -0.84832  -0.79622  -0.74997  -0.74984  -0.73340
 Alpha  occ. eigenvalues --   -0.69466  -0.69117  -0.68879  -0.68817  -0.66750
 Alpha  occ. eigenvalues --   -0.66153  -0.66056  -0.64398  -0.58608  -0.56485
 Alpha  occ. eigenvalues --   -0.53324  -0.51590  -0.50160  -0.48107
 Alpha virt. eigenvalues --    0.04657   0.05106   0.05194   0.05384   0.07847
 Alpha virt. eigenvalues --    0.08082   0.08316   0.09425   0.10347   0.11114
 Alpha virt. eigenvalues --    0.12388   0.14127   0.16260   0.16426   0.16922

 Mulliken charges:
               1
     1  Si   2.693306
     2  Si   1.593502
     3  F   -0.857505
     4  Cl  -0.480993
     5  F   -0.815521
     6  F   -0.815521
     7  Cl  -0.480993
     8  F   -0.836274
 Sum of Mulliken charges =   0.00000

 Dipole moment (field-independent basis, Debye):
    X=              0.5187    Y=             -0.0000    Z=             -0.2312  Tot=              0.5679

 Test job not archived.
 1\1\GINC-SE396\SP\RHF\Aug-CC-pVDZ\Cl2F4Si2\OHZDE\09-Apr-2025\0\\#t hf
 aug-cc-pvdz iop(5/13=1,5/36=2,99/5=2) pseudo=read geom=check guess=(re
 ad,tcheck) scf=(maxcycle=1)\\title\\0,1\Si,0,-1.510464,0.,-0.063136\Si
 ,0,0.796163,0.,0.317131\F,0,1.064316,0.,1.889118\Cl,0,1.651221,1.67954
 3,-0.477927\F,0,-2.191267,-1.282309,0.570048\F,0,-2.191259,1.282339,0.
 569996\Cl,0,1.65122,-1.679543,-0.477927\F,0,-1.808599,-0.00003,-1.6187
 63\\Version=ES64L-G16RevC.01\State=1-A\HF=-1895.6210243\RMSD=2.407e-03
 \Dipole=0.2040836,-0.0000007,-0.0909577\Quadrupole=-0.3778235,0.977863

 Normal termination of Gaussian 16 at Wed Apr  9 00:09:41 2025.
