 Gaussian 16, Revision C.01,

 ----------------------------------------------------------------------
 #t hf aug-cc-pvdz symm=none int=(grid=ultrafine) guess=(read,tcheck) s
 table=(opt,rrhf)
 ----------------------------------------------------------------------
 -----
 title
 -----
 Symbolic Z-matrix:
 Charge =  0 Multiplicity = 1

 SCF Done:  E(RHF) =  -516.073858683     A.U. after   14 cycles
 Normal termination of Gaussian 16 at Tue Apr  8 23:19:48 2025.
 Gaussian 16:  ES64L-G16RevC.01  3-Jul-2019

 ----------------------------------------------------------------------
 #t hf aug-cc-pvdz iop(5/13=1,5/36=2,99/5=2) pseudo=read geom=check gue
 ss=(read,tcheck) scf=(maxcycle=1)
 ----------------------------------------------------------------------
 -----
 title
 -----
 Structure from the checkpoint file:  "BDE49_nonexpt_1114_mol1.chk"
 Charge =  0 Multiplicity = 1

                         Standard orientation:
 ---------------------------------------------------------------------
 Center     Atomic      Atomic             Coordinates (Angstroms)
 Number     Number       Type             X           Y           Z
 ---------------------------------------------------------------------
      1          9           0        1.544903   -0.313411   -0.000015
      2          8           0        0.462805    0.675188    0.000147
      3         15           0       -0.961471   -0.237953   -0.000153
      4          1           0       -1.592530    0.495093   -1.037758
      5          1           0       -1.591971    0.493394    1.039010
 ---------------------------------------------------------------------

 SCF Done:  E(RHF) =  -516.277971896     A.U. after    2 cycles

 The electronic state is 1-A.
 Alpha  occ. eigenvalues --  -84.34760 -26.50910 -20.68007  -6.81366  -4.34210
 Alpha  occ. eigenvalues --   -4.33277  -4.32893  -1.64606  -1.35876  -0.87942
 Alpha  occ. eigenvalues --   -0.70065  -0.69679  -0.65073  -0.57988  -0.55943
 Alpha  occ. eigenvalues --   -0.48814  -0.39226
 Alpha virt. eigenvalues --    0.03445   0.06310   0.06373   0.09374   0.09624
 Alpha virt. eigenvalues --    0.11387   0.16046   0.16962   0.20012   0.21460
 Alpha virt. eigenvalues --    0.23242   0.23451   0.23907   0.30370   0.32188

 Mulliken charges:
               1
     1  F   -0.313784
     2  O   -0.520137
     3  P    0.377749
     4  H    0.228065
     5  H    0.228106
 Sum of Mulliken charges =   0.00000

 Dipole moment (field-independent basis, Debye):
    X=             -2.4630    Y=             -0.0509    Z=              0.0001  Tot=              2.4635

 Test job not archived.
 1\1\GINC-SE173\SP\RHF\Aug-CC-pVDZ\F1H2O1P1\OHZDE\08-Apr-2025\0\\#t hf
 aug-cc-pvdz iop(5/13=1,5/36=2,99/5=2) pseudo=read geom=check guess=(re
 ad,tcheck) scf=(maxcycle=1)\\title\\0,1\F,0,1.544903,-0.313411,-0.0000
 15\O,0,0.462805,0.675188,0.000147\P,0,-0.961471,-0.237953,-0.000153\H,
 0,-1.59253,0.495093,-1.037758\H,0,-1.591971,0.493394,1.03901\\Version=
 ES64L-G16RevC.01\State=1-A\HF=-516.2779719\RMSD=2.259e-02\Dipole=-0.96
 90133,-0.0200311,0.0000428\Quadrupole=0.5355941,-1.2913404,0.7557463,-
 0.3914236,-0.0000428,-0.0016527\PG=C01 [X(F1H2O1P1)]\\@

 Normal termination of Gaussian 16 at Tue Apr  8 23:19:50 2025.
