 Gaussian 16, Revision C.01,

 ----------------------------------------------------------------------
 #t hf aug-cc-pvdz symm=none int=(grid=ultrafine) guess=(read,tcheck) s
 table=(opt,rrhf)
 ----------------------------------------------------------------------
 -----
 title
 -----
 Symbolic Z-matrix:
 Charge =  0 Multiplicity = 1

 SCF Done:  E(RHF) =  -1114.53882075     A.U. after   18 cycles
 Normal termination of Gaussian 16 at Tue Apr  8 23:00:21 2025.
 Gaussian 16:  ES64L-G16RevC.01  3-Jul-2019

 ----------------------------------------------------------------------
 #t hf aug-cc-pvdz iop(5/13=1,5/36=2,99/5=2) pseudo=read geom=check gue
 ss=(read,tcheck) scf=(maxcycle=1)
 ----------------------------------------------------------------------
 -----
 title
 -----
 Structure from the checkpoint file:  "BDE49_expt_1755_mol1.chk"
 Charge =  0 Multiplicity = 1

                         Standard orientation:
 ---------------------------------------------------------------------
 Center     Atomic      Atomic             Coordinates (Angstroms)
 Number     Number       Type             X           Y           Z
 ---------------------------------------------------------------------
      1          6           0        2.835273   -0.107146   -0.272554
      2          6           0        2.198342    0.601922    0.755041
      3          6           0        0.849566    0.383251    1.011868
      4          6           0        2.110679   -1.037343   -1.034704
      5          6           0        0.768453   -1.252262   -0.781007
      6          6           0        0.139492   -0.534598    0.241971
      7          1           0        2.740105    1.315756    1.359493
      8          1           0        0.349507    0.920345    1.807070
      9          1           0        2.630041   -1.581425   -1.813404
     10          1           0        0.208449   -1.981433   -1.351679
     11         16           0       -1.575355   -0.808263    0.578038
     12          8           0       -1.989698   -2.028136   -0.065811
     13          8           0       -1.832806   -0.525494    1.960015
     14          7           0       -2.384804    0.433149   -0.328074
     15          7           0       -2.259047    1.683299    0.185603
     16          8           0       -2.751046    2.548697   -0.504312
     17          6           0       -2.987210    0.205759   -1.643439
     18          1           0       -3.032095   -0.865418   -1.813284
     19          1           0       -2.397022    0.700714   -2.418570
     20          1           0       -3.991277    0.631225   -1.645826
     21          8           0        4.139883    0.028396   -0.603038
     22          6           0        4.946183    0.949590    0.127672
     23          1           0        4.570588    1.972915    0.027974
     24          1           0        5.938530    0.884176   -0.313550
     25          1           0        5.000485    0.677479    1.186542
 ---------------------------------------------------------------------

 SCF Done:  E(RHF) =  -1115.31343420     A.U. after    2 cycles

 The electronic state is 1-A.
 Alpha  occ. eigenvalues --  -94.23680 -20.60162 -20.60033 -20.55998 -20.55632
 Alpha  occ. eigenvalues --  -15.68966 -15.59053 -11.34649 -11.31766 -11.29070
 Alpha  occ. eigenvalues --  -11.28991 -11.28877 -11.28793 -11.26904 -11.26496
 Alpha  occ. eigenvalues --   -8.48531  -6.46670  -6.46458  -6.46326  -1.60714
 Alpha  occ. eigenvalues --   -1.58608  -1.52755  -1.46725  -1.30817  -1.19475
 Alpha  occ. eigenvalues --   -1.08107  -1.05947  -1.05241  -1.00136  -0.96270
 Alpha  occ. eigenvalues --   -0.88556  -0.87215  -0.82456  -0.79527  -0.75845
 Alpha  occ. eigenvalues --   -0.74578  -0.73175  -0.71671  -0.69624  -0.68159
 Alpha  occ. eigenvalues --   -0.66581  -0.66153  -0.65612  -0.63893  -0.61884
 Alpha  occ. eigenvalues --   -0.60941  -0.59779  -0.59490  -0.56584  -0.55847
 Alpha  occ. eigenvalues --   -0.53301  -0.51792  -0.51607  -0.51221  -0.48699
 Alpha  occ. eigenvalues --   -0.48387  -0.45942  -0.44900  -0.38416  -0.35680
 Alpha virt. eigenvalues --    0.02520   0.03108   0.03601   0.04260   0.04811
 Alpha virt. eigenvalues --    0.05516   0.05904   0.05970   0.06607   0.07363
 Alpha virt. eigenvalues --    0.07982   0.08286   0.08614   0.09153   0.09793

 Mulliken charges:
               1
     1  C    1.358970
     2  C    0.373735
     3  C   -0.673443
     4  C    0.790445
     5  C   -0.309308
     6  C    0.664185
     7  H   -0.432282
     8  H   -0.284772
     9  H   -0.302348
    10  H   -0.325690
    11  S    4.211604
    12  O   -1.660134
    13  O   -1.661426
    14  N   -0.398976
    15  N    0.899794
    16  O   -1.067912
    17  C   -0.237704
    18  H    0.083438
    19  H    0.228962
    20  H    0.161168
    21  O   -1.874790
    22  C    0.118018
    23  H    0.183623
    24  H   -0.033202
    25  H    0.188047
 Sum of Mulliken charges =  -0.00000

 Dipole moment (field-independent basis, Debye):
    X=              5.1139    Y=              0.9380    Z=             -2.4522  Tot=              5.7485

 Test job not archived.
 1\1\GINC-SE060\SP\RHF\Aug-CC-pVDZ\C8H10N2O4S1\OHZDE\08-Apr-2025\0\\#t
 hf aug-cc-pvdz iop(5/13=1,5/36=2,99/5=2) pseudo=read geom=check guess=
 (read,tcheck) scf=(maxcycle=1)\\title\\0,1\C,0,2.835273,-0.107146,-0.2
 72554\C,0,2.198342,0.601922,0.755041\C,0,0.849566,0.383251,1.011868\C,
 0,2.110679,-1.037343,-1.034704\C,0,0.768453,-1.252262,-0.781007\C,0,0.
 139492,-0.534598,0.241971\H,0,2.740105,1.315756,1.359493\H,0,0.349507,
 0.920345,1.80707\H,0,2.630041,-1.581425,-1.813404\H,0,0.208449,-1.9814
 33,-1.351679\S,0,-1.575355,-0.808263,0.578038\O,0,-1.989698,-2.028136,

 Normal termination of Gaussian 16 at Tue Apr  8 23:00:48 2025.
