 Gaussian 16, Revision C.01,

 ----------------------------------------------------------------------
 #t hf aug-cc-pvdz symm=none int=(grid=ultrafine) guess=(read,tcheck) s
 table=(opt,rrhf)
 ----------------------------------------------------------------------
 -----
 title
 -----
 Symbolic Z-matrix:
 Charge =  0 Multiplicity = 1

 SCF Done:  E(RHF) =  -1175.68513038     A.U. after   16 cycles
 Normal termination of Gaussian 16 at Tue Apr  8 23:17:56 2025.
 Gaussian 16:  ES64L-G16RevC.01  3-Jul-2019

 ----------------------------------------------------------------------
 #t hf aug-cc-pvdz iop(5/13=1,5/36=2,99/5=2) pseudo=read geom=check gue
 ss=(read,tcheck) scf=(maxcycle=1)
 ----------------------------------------------------------------------
 -----
 title
 -----
 Structure from the checkpoint file:  "BDE49_nonexpt_1045_mol1.chk"
 Charge =  0 Multiplicity = 1

                         Standard orientation:
 ---------------------------------------------------------------------
 Center     Atomic      Atomic             Coordinates (Angstroms)
 Number     Number       Type             X           Y           Z
 ---------------------------------------------------------------------
      1         17           0       -2.490543    0.242343    0.001981
      2          8           0       -1.200006   -0.936061    0.003245
      3         15           0        1.143315    0.099506    0.062147
      4          8           0        2.149254    0.438387    1.059393
      5          8           0        0.566002    1.224140   -0.888768
      6          1           0        0.417009    2.059996   -0.430545
      7          8           0        1.481184   -0.974471   -1.048093
      8          1           0        2.027333   -1.695250   -0.712073
      9          8           0       -0.153288   -0.499142    0.896316
 ---------------------------------------------------------------------

 SCF Done:  E(RHF) =  -1176.16359078     A.U. after    2 cycles

 The electronic state is 1-A.
 Alpha  occ. eigenvalues -- -105.65101 -84.48660 -20.71959 -20.66894 -20.62355
 Alpha  occ. eigenvalues --  -20.62245 -20.53170 -10.69311  -7.86288  -7.85732
 Alpha  occ. eigenvalues --   -7.85695  -6.93552  -4.47775  -4.46980  -4.46819
 Alpha  occ. eigenvalues --   -1.64849  -1.56551  -1.50714  -1.42500  -1.33431
 Alpha  occ. eigenvalues --   -1.04256  -0.89598  -0.77124  -0.73832  -0.70748
 Alpha  occ. eigenvalues --   -0.69428  -0.68075  -0.65152  -0.61667  -0.57765
 Alpha  occ. eigenvalues --   -0.57500  -0.55718  -0.52799  -0.51116  -0.48683
 Alpha  occ. eigenvalues --   -0.48483  -0.47007
 Alpha virt. eigenvalues --    0.03336   0.03398   0.04442   0.08251   0.08711
 Alpha virt. eigenvalues --    0.10766   0.11526   0.13167   0.14220   0.14378
 Alpha virt. eigenvalues --    0.16932   0.17123   0.17861   0.20339   0.20497

 Mulliken charges:
               1
     1  Cl   0.406984
     2  O   -0.562164
     3  P    4.062986
     4  O   -1.292681
     5  O   -1.267852
     6  H    0.364138
     7  O   -1.265848
     8  H    0.363175
     9  O   -0.808738
 Sum of Mulliken charges =  -0.00000

 Dipole moment (field-independent basis, Debye):
    X=             -0.9335    Y=              0.1220    Z=             -1.4231  Tot=              1.7063

 Test job not archived.
 1\1\GINC-SE100\SP\RHF\Aug-CC-pVDZ\Cl1H2O5P1\OHZDE\08-Apr-2025\0\\#t hf
  aug-cc-pvdz iop(5/13=1,5/36=2,99/5=2) pseudo=read geom=check guess=(r
 ead,tcheck) scf=(maxcycle=1)\\title\\0,1\Cl,0,-2.490543,0.242343,0.001
 981\O,0,-1.200006,-0.936061,0.003245\P,0,1.143315,0.099506,0.062147\O,
 0,2.149254,0.438387,1.059393\O,0,0.566002,1.22414,-0.888768\H,0,0.4170
 09,2.059996,-0.430545\O,0,1.481184,-0.974471,-1.048093\H,0,2.027333,-1
 .69525,-0.712073\O,0,-0.153288,-0.499142,0.896316\\Version=ES64L-G16Re
 vC.01\State=1-A\HF=-1176.1635908\RMSD=9.343e-03\Dipole=-0.3672653,0.04

 Normal termination of Gaussian 16 at Tue Apr  8 23:18:00 2025.
