 Gaussian 16, Revision C.01,

 ----------------------------------------------------------------------
 #t hf aug-cc-pvdz symm=none int=(grid=ultrafine) guess=(read,tcheck) s
 table=(opt,rrhf)
 ----------------------------------------------------------------------
 -----
 title
 -----
 Symbolic Z-matrix:
 Charge =  0 Multiplicity = 1

 SCF Done:  E(RHF) =  -496.801427057     A.U. after   16 cycles
 Normal termination of Gaussian 16 at Wed Apr  9 00:00:28 2025.
 Gaussian 16:  ES64L-G16RevC.01  3-Jul-2019

 ----------------------------------------------------------------------
 #t hf aug-cc-pvdz iop(5/13=1,5/36=2,99/5=2) pseudo=read geom=check gue
 ss=(read,tcheck) scf=(maxcycle=1)
 ----------------------------------------------------------------------
 -----
 title
 -----
 Structure from the checkpoint file:  "BDE49_nonexpt_2109_mol1.chk"
 Charge =  0 Multiplicity = 1

                         Standard orientation:
 ---------------------------------------------------------------------
 Center     Atomic      Atomic             Coordinates (Angstroms)
 Number     Number       Type             X           Y           Z
 ---------------------------------------------------------------------
      1         14           0        0.085160    0.852635    0.083680
      2          7           0        1.759431    0.082111   -0.259203
      3          8           0        1.864478   -1.104939   -0.032834
      4          6           0       -1.272763   -0.354841    0.450741
      5          6           0       -2.358740   -0.478324   -0.318520
      6          1           0       -1.178024   -1.003320    1.319691
      7          1           0       -2.511966    0.134451   -1.202643
      8          1           0       -3.143729   -1.197123   -0.099508
      9          1           0       -0.210573    1.649003   -1.127206
     10          1           0        0.409237    1.743821    1.221912
 ---------------------------------------------------------------------

 SCF Done:  E(RHF) =  -497.036080870     A.U. after    2 cycles

 The electronic state is 1-A.
 Alpha  occ. eigenvalues --  -69.56548 -20.61885 -15.61091 -11.27492 -11.25059
 Alpha  occ. eigenvalues --   -6.23506  -3.98864  -3.98825  -3.98803  -1.57520
 Alpha  occ. eigenvalues --   -1.06220  -0.98109  -0.82463  -0.75536  -0.68093
 Alpha  occ. eigenvalues --   -0.67033  -0.63601  -0.59818  -0.58999  -0.50763
 Alpha  occ. eigenvalues --   -0.48664  -0.41405  -0.38222
 Alpha virt. eigenvalues --    0.03362   0.04084   0.04366   0.05412   0.05858
 Alpha virt. eigenvalues --    0.06311   0.07213   0.07639   0.08745   0.09763
 Alpha virt. eigenvalues --    0.11976   0.13350   0.14160   0.14665   0.15231

 Mulliken charges:
               1
     1  Si   1.092414
     2  N    0.525132
     3  O   -0.917591
     4  C   -0.210425
     5  C    0.139661
     6  H   -0.136186
     7  H   -0.093790
     8  H   -0.041261
     9  H   -0.176424
    10  H   -0.181531
 Sum of Mulliken charges =  -0.00000

 Dipole moment (field-independent basis, Debye):
    X=             -3.2676    Y=              0.4889    Z=              0.3426  Tot=              3.3217

 Test job not archived.
 1\1\GINC-SE331\SP\RHF\Aug-CC-pVDZ\C2H5N1O1Si1\OHZDE\09-Apr-2025\0\\#t
 hf aug-cc-pvdz iop(5/13=1,5/36=2,99/5=2) pseudo=read geom=check guess=
 (read,tcheck) scf=(maxcycle=1)\\title\\0,1\Si,0,0.08516,0.852635,0.083
 68\N,0,1.759431,0.082111,-0.259203\O,0,1.864478,-1.104939,-0.032834\C,
 0,-1.272763,-0.354841,0.450741\C,0,-2.35874,-0.478324,-0.31852\H,0,-1.
 178024,-1.00332,1.319691\H,0,-2.511966,0.134451,-1.202643\H,0,-3.14372
 9,-1.197123,-0.099508\H,0,-0.210573,1.649003,-1.127206\H,0,0.409237,1.
 743821,1.221912\\Version=ES64L-G16RevC.01\State=1-A\HF=-497.0360809\RM

 Normal termination of Gaussian 16 at Wed Apr  9 00:00:31 2025.
