 Gaussian 16, Revision C.01,

 ----------------------------------------------------------------------
 #t hf aug-cc-pvdz symm=none int=(grid=ultrafine) guess=(read,tcheck) s
 table=(opt,rrhf)
 ----------------------------------------------------------------------
 -----
 title
 -----
 Symbolic Z-matrix:
 Charge =  0 Multiplicity = 1

 SCF Done:  E(RHF) =  -860.506480468     A.U. after   13 cycles
 Normal termination of Gaussian 16 at Tue Apr  8 23:42:41 2025.
 Gaussian 16:  ES64L-G16RevC.01  3-Jul-2019

 ----------------------------------------------------------------------
 #t hf aug-cc-pvdz iop(5/13=1,5/36=2,99/5=2) pseudo=read geom=check gue
 ss=(read,tcheck) scf=(maxcycle=1)
 ----------------------------------------------------------------------
 -----
 title
 -----
 Structure from the checkpoint file:  "BDE49_nonexpt_1676_mol1.chk"
 Charge =  0 Multiplicity = 1

                         Standard orientation:
 ---------------------------------------------------------------------
 Center     Atomic      Atomic             Coordinates (Angstroms)
 Number     Number       Type             X           Y           Z
 ---------------------------------------------------------------------
      1         14           0       -1.026457   -0.365614   -0.284417
      2         15           0        1.073749    0.391578   -0.613415
      3          6           0        1.307219    1.329985    0.984522
      4          1           0        0.696089    2.234744    0.959056
      5          1           0        2.353582    1.634048    1.066919
      6          1           0        1.029948    0.741496    1.860904
      7          6           0        2.009950   -1.184091   -0.240733
      8          1           0        3.080841   -0.967301   -0.255384
      9          1           0        1.810470   -1.918871   -1.024155
     10          1           0        1.748190   -1.616662    0.727282
     11          8           0       -1.192781   -0.903357    1.262434
     12          1           0       -2.078691   -0.999023    1.622010
     13          8           0       -2.150593    0.835739   -0.469169
     14          1           0       -2.231737    1.259465   -1.327063
     15          1           0       -1.300558   -1.457399   -1.255366
 ---------------------------------------------------------------------

 SCF Done:  E(RHF) =  -860.825550728     A.U. after    2 cycles

 The electronic state is 1-A.
 Alpha  occ. eigenvalues --  -84.25109 -69.58166 -20.55099 -20.54886 -11.23725
 Alpha  occ. eigenvalues --  -11.23393  -6.72379  -6.24413  -4.24748  -4.24685
 Alpha  occ. eigenvalues --   -4.24083  -3.99898  -3.99787  -3.99656  -1.45033
 Alpha  occ. eigenvalues --   -1.42384  -1.00575  -0.93731  -0.79574  -0.72876
 Alpha  occ. eigenvalues --   -0.70101  -0.62432  -0.59229  -0.58427  -0.56525
 Alpha  occ. eigenvalues --   -0.55919  -0.55439  -0.53463  -0.51158  -0.48769
 Alpha  occ. eigenvalues --   -0.45088  -0.39531  -0.31016
 Alpha virt. eigenvalues --    0.03503   0.04162   0.04621   0.04663   0.06326
 Alpha virt. eigenvalues --    0.06468   0.06798   0.07412   0.07684   0.09359
 Alpha virt. eigenvalues --    0.10157   0.10609   0.10893   0.12177   0.12850

 Mulliken charges:
               1
     1  Si   2.914672
     2  P    0.429962
     3  C   -0.786783
     4  H    0.039694
     5  H    0.085899
     6  H    0.127526
     7  C   -0.765474
     8  H    0.086650
     9  H    0.052647
    10  H    0.101013
    11  O   -1.455666
    12  H    0.413231
    13  O   -1.414999
    14  H    0.388291
    15  H   -0.216664
 Sum of Mulliken charges =  -0.00000

 Dipole moment (field-independent basis, Debye):
    X=             -0.3304    Y=             -0.0836    Z=             -0.2475  Tot=              0.4212

 Test job not archived.
 1\1\GINC-SE126\SP\RHF\Aug-CC-pVDZ\C2H9O2P1Si1\OHZDE\08-Apr-2025\0\\#t
 hf aug-cc-pvdz iop(5/13=1,5/36=2,99/5=2) pseudo=read geom=check guess=
 (read,tcheck) scf=(maxcycle=1)\\title\\0,1\Si,0,-1.026457,-0.365614,-0
 .284417\P,0,1.073749,0.391578,-0.613415\C,0,1.307219,1.329985,0.984522
 \H,0,0.696089,2.234744,0.959056\H,0,2.353582,1.634048,1.066919\H,0,1.0
 29948,0.741496,1.860904\C,0,2.00995,-1.184091,-0.240733\H,0,3.080841,-
 0.967301,-0.255384\H,0,1.81047,-1.918871,-1.024155\H,0,1.74819,-1.6166
 62,0.727282\O,0,-1.192781,-0.903357,1.262434\H,0,-2.078691,-0.999023,1

 Normal termination of Gaussian 16 at Tue Apr  8 23:42:46 2025.
