 Gaussian 16, Revision C.01,

 ----------------------------------------------------------------------
 #t hf aug-cc-pvdz symm=none int=(grid=ultrafine) guess=(read,tcheck) s
 table=(opt,rrhf)
 ----------------------------------------------------------------------
 -----
 title
 -----
 Symbolic Z-matrix:
 Charge =  0 Multiplicity = 1

 SCF Done:  E(RHF) =  -995.800796558     A.U. after   14 cycles
 Normal termination of Gaussian 16 at Tue Apr  8 23:47:53 2025.
 Gaussian 16:  ES64L-G16RevC.01  3-Jul-2019

 ----------------------------------------------------------------------
 #t hf aug-cc-pvdz iop(5/13=1,5/36=2,99/5=2) pseudo=read geom=check gue
 ss=(read,tcheck) scf=(maxcycle=1)
 ----------------------------------------------------------------------
 -----
 title
 -----
 Structure from the checkpoint file:  "BDE49_nonexpt_1796_mol1.chk"
 Charge =  0 Multiplicity = 1

                         Standard orientation:
 ---------------------------------------------------------------------
 Center     Atomic      Atomic             Coordinates (Angstroms)
 Number     Number       Type             X           Y           Z
 ---------------------------------------------------------------------
      1          6           0       -2.073919    1.429524   -0.000000
      2          6           0       -0.717140    1.113447   -0.000002
      3          6           0       -3.003015    0.395019    0.000004
      4          6           0       -2.537839   -0.920043    0.000007
      5          7           0       -1.242037   -1.235123    0.000005
      6          6           0       -0.341840   -0.231569    0.000001
      7          1           0       -2.398856    2.464016   -0.000002
      8          1           0        0.037698    1.890707   -0.000005
      9         14           0        1.403915   -0.919695   -0.000000
     10         17           0        2.790785    0.649495   -0.000006
     11          1           0       -4.067831    0.595870    0.000006
     12          1           0       -3.234754   -1.753384    0.000010
     13          1           0        1.651179   -1.717649   -1.213883
     14          1           0        1.651183   -1.717643    1.213886
 ---------------------------------------------------------------------

 SCF Done:  E(RHF) =  -996.161413347     A.U. after    2 cycles

 The electronic state is 1-A.
 Alpha  occ. eigenvalues -- -105.55466 -69.57878 -15.52071 -11.29234 -11.27999
 Alpha  occ. eigenvalues --  -11.27684 -11.26296 -11.26161 -10.60462  -7.77346
 Alpha  occ. eigenvalues --   -7.77054  -7.77041  -6.24544  -3.99994  -3.99809
 Alpha  occ. eigenvalues --   -3.99793  -1.26939  -1.10246  -1.05795  -1.03985
 Alpha  occ. eigenvalues --   -0.89151  -0.87711  -0.76544  -0.70990  -0.69897
 Alpha  occ. eigenvalues --   -0.65395  -0.61100  -0.59185  -0.58016  -0.53095
 Alpha  occ. eigenvalues --   -0.52981  -0.51810  -0.47589  -0.45416  -0.44351
 Alpha  occ. eigenvalues --   -0.41354  -0.36784
 Alpha virt. eigenvalues --    0.02930   0.03712   0.04219   0.05127   0.05492
 Alpha virt. eigenvalues --    0.05592   0.06031   0.06552   0.08298   0.08457
 Alpha virt. eigenvalues --    0.09487   0.11417   0.11653   0.12678   0.13646

 Mulliken charges:
               1
     1  C    0.152478
     2  C    0.896405
     3  C    0.699187
     4  C   -0.597588
     5  N    1.155127
     6  C   -1.738031
     7  H   -0.169109
     8  H   -0.224537
     9  Si   1.055826
    10  Cl  -0.591799
    11  H   -0.187396
    12  H   -0.191594
    13  H   -0.129485
    14  H   -0.129485
 Sum of Mulliken charges =  -0.00000

 Dipole moment (field-independent basis, Debye):
    X=             -2.8954    Y=              1.3866    Z=              0.0000  Tot=              3.2103

 Test job not archived.
 1\1\GINC-SE404\SP\RHF\Aug-CC-pVDZ\C5H6Cl1N1Si1\OHZDE\08-Apr-2025\0\\#t
  hf aug-cc-pvdz iop(5/13=1,5/36=2,99/5=2) pseudo=read geom=check guess
 =(read,tcheck) scf=(maxcycle=1)\\title\\0,1\C,0,-2.073919,1.429524,0.\
 C,0,-0.71714,1.113447,-0.000002\C,0,-3.003015,0.395019,0.000004\C,0,-2
 .537839,-0.920043,0.000007\N,0,-1.242037,-1.235123,0.000005\C,0,-0.341
 84,-0.231569,0.000001\H,0,-2.398856,2.464016,-0.000002\H,0,0.037698,1.
 890707,-0.000005\Si,0,1.403915,-0.919695,0.\Cl,0,2.790785,0.649495,-0.
 000006\H,0,-4.067831,0.59587,0.000006\H,0,-3.234754,-1.753384,0.00001\

 Normal termination of Gaussian 16 at Tue Apr  8 23:47:59 2025.
