 Gaussian 16, Revision C.01,

 ----------------------------------------------------------------------
 #t hf aug-cc-pvdz symm=none int=(grid=ultrafine) guess=(read,tcheck) s
 table=(opt,rrhf)
 ----------------------------------------------------------------------
 -----
 title
 -----
 Symbolic Z-matrix:
 Charge =  0 Multiplicity = 1

 SCF Done:  E(RHF) =  -738.323642651     A.U. after   15 cycles

 1\1\GINC-SE016\Stability\RHF\Aug-CC-pVDZ\Cl1N1O3\OHZDE\08-Apr-2025\0\\
 #t hf aug-cc-pvdz symm=none int=(grid=ultrafine) guess=(read,tcheck) s
 table=(opt,rrhf)\\title\\0,1\Cl,0,1.672665,0.031893,0.000075\O,0,0.187
 716,-0.81948,-0.000134\N,0,-1.028777,0.090926,-0.000037\O,0,-0.838831,
 1.261463,-0.000049\O,0,-2.003119,-0.589317,0.000058\\Version=ES64L-G16
 RevC.01\HF=-738.3236427\RMSD=6.155e-09\Dipole=0.5456707,0.1033637,0.00
 00177\Quadrupole=0.5948664,-1.4919019,0.8970355,0.2914795,0.0003819,0.
 0000968\PG=Unknown\\@

 Normal termination of Gaussian 16 at Tue Apr  8 22:51:39 2025.
 Gaussian 16:  ES64L-G16RevC.01  3-Jul-2019

 ----------------------------------------------------------------------
 #t hf aug-cc-pvdz iop(5/13=1,5/36=2,99/5=2) pseudo=read geom=check gue
 ss=(read,tcheck) scf=(maxcycle=1)
 ----------------------------------------------------------------------
 -----
 title
 -----
 Structure from the checkpoint file:  "BDE49_expt_1789_mol1.chk"
 Charge =  0 Multiplicity = 1

                         Standard orientation:
 ---------------------------------------------------------------------
 Center     Atomic      Atomic             Coordinates (Angstroms)
 Number     Number       Type             X           Y           Z
 ---------------------------------------------------------------------
      1         17           0       -1.672665    0.031893   -0.000075
      2          8           0       -0.187716   -0.819480    0.000134
      3          7           0        1.028777    0.090926    0.000037
      4          8           0        0.838831    1.261463    0.000049
      5          8           0        2.003119   -0.589317   -0.000058
 ---------------------------------------------------------------------

 SCF Done:  E(RHF) =  -738.657581083     A.U. after    2 cycles

 The electronic state is 1-A.
 Alpha  occ. eigenvalues -- -105.66455 -20.71503 -20.66342 -20.65797 -15.89476
 Alpha  occ. eigenvalues --  -10.70641  -7.87638  -7.87045  -7.87008  -1.77035
 Alpha  occ. eigenvalues --   -1.61228  -1.52338  -1.08849  -0.95991  -0.85717
 Alpha  occ. eigenvalues --   -0.83382  -0.81823  -0.65648  -0.64236  -0.57037
 Alpha  occ. eigenvalues --   -0.54500  -0.52136  -0.50514  -0.48699
 Alpha virt. eigenvalues --    0.03099   0.04274   0.08058   0.11547   0.12146
 Alpha virt. eigenvalues --    0.12538   0.13999   0.14823   0.16003   0.17605
 Alpha virt. eigenvalues --    0.20366   0.21435   0.23580   0.24686   0.25987

 Mulliken charges:
               1
     1  Cl   0.449054
     2  O   -0.918797
     3  N    2.394898
     4  O   -0.952847
     5  O   -0.972308
 Sum of Mulliken charges =  -0.00000

 Dipole moment (field-independent basis, Debye):
    X=             -1.2353    Y=              0.1762    Z=             -0.0000  Tot=              1.2478

 Test job not archived.
 1\1\GINC-SE016\SP\RHF\Aug-CC-pVDZ\Cl1N1O3\OHZDE\08-Apr-2025\0\\#t hf a
 ug-cc-pvdz iop(5/13=1,5/36=2,99/5=2) pseudo=read geom=check guess=(rea
 d,tcheck) scf=(maxcycle=1)\\title\\0,1\Cl,0,1.672665,0.031893,0.000075
 \O,0,0.187716,-0.81948,-0.000134\N,0,-1.028777,0.090926,-0.000037\O,0,
 -0.838831,1.261463,-0.000049\O,0,-2.003119,-0.589317,0.000058\\Version
 =ES64L-G16RevC.01\State=1-A\HF=-738.6575811\RMSD=1.568e-02\Dipole=0.48
 60208,0.0693337,0.0000168\Quadrupole=0.7053732,-1.1409075,0.4355344,0.
 3347192,0.0003055,0.000098\PG=C01 [X(Cl1N1O3)]\\@

 Normal termination of Gaussian 16 at Tue Apr  8 22:51:41 2025.
