 Gaussian 16, Revision C.01,

 ----------------------------------------------------------------------
 #t hf aug-cc-pvdz symm=none int=(grid=ultrafine) guess=(read,tcheck) s
 table=(opt,rrhf)
 ----------------------------------------------------------------------
 -----
 title
 -----
 Symbolic Z-matrix:
 Charge =  0 Multiplicity = 1

 SCF Done:  E(RHF) =  -525.276864505     A.U. after   15 cycles
 Normal termination of Gaussian 16 at Tue Apr  8 22:38:31 2025.
 Gaussian 16:  ES64L-G16RevC.01  3-Jul-2019

 ----------------------------------------------------------------------
 #t hf aug-cc-pvdz iop(5/13=1,5/36=2,99/5=2) pseudo=read geom=check gue
 ss=(read,tcheck) scf=(maxcycle=1)
 ----------------------------------------------------------------------
 -----
 title
 -----
 Structure from the checkpoint file:  "BDE49_expt_1214_mol1.chk"
 Charge =  0 Multiplicity = 1

                         Standard orientation:
 ---------------------------------------------------------------------
 Center     Atomic      Atomic             Coordinates (Angstroms)
 Number     Number       Type             X           Y           Z
 ---------------------------------------------------------------------
      1          6           0        0.000004    0.555940    0.000009
      2          7           0       -1.203748   -0.405097   -0.185287
      3          8           0       -2.186262   -0.213682    0.502800
      4          8           0       -1.076810   -1.250479   -1.050656
      5          6           0       -0.143337    1.363671    1.274306
      6          7           0        1.203718   -0.405160    0.185228
      7          8           0        2.186278   -0.213668   -0.502774
      8          8           0        1.076775   -1.250562    1.050578
      9          1           0       -0.279738    0.707405    2.131677
     10          1           0       -1.003306    2.027228    1.194023
     11          1           0        0.757685    1.964522    1.415926
     12          6           0        0.143372    1.363766   -1.274225
     13          1           0       -0.757628    1.964665   -1.415793
     14          1           0        0.279743    0.707562   -2.131648
     15          1           0        1.003367    2.027282   -1.193893
 ---------------------------------------------------------------------

 SCF Done:  E(RHF) =  -525.787954737     A.U. after    2 cycles

 The electronic state is 1-A.
 Alpha  occ. eigenvalues --  -20.62079 -20.62075 -20.61618 -20.61611 -15.81518
 Alpha  occ. eigenvalues --  -15.81466 -11.40988 -11.28577 -11.28541  -1.70515
 Alpha  occ. eigenvalues --   -1.69471  -1.54117  -1.53933  -1.21933  -1.02160
 Alpha  occ. eigenvalues --   -1.01806  -1.00855  -0.86158  -0.84021  -0.78540
 Alpha  occ. eigenvalues --   -0.77810  -0.76948  -0.75068  -0.72035  -0.64049
 Alpha  occ. eigenvalues --   -0.62463  -0.62455  -0.60918  -0.57053  -0.52350
 Alpha  occ. eigenvalues --   -0.51315  -0.50945  -0.50296  -0.47737  -0.46876
 Alpha virt. eigenvalues --    0.02895   0.03266   0.03471   0.03757   0.04888
 Alpha virt. eigenvalues --    0.05121   0.06555   0.07291   0.09315   0.11686
 Alpha virt. eigenvalues --    0.13035   0.13587   0.14527   0.14840   0.14872

 Mulliken charges:
               1
     1  C   -2.616235
     2  N    3.195976
     3  O   -1.435602
     4  O   -1.527532
     5  C    0.184997
     6  N    3.195967
     7  O   -1.435621
     8  O   -1.527522
     9  H    0.281181
    10  H    0.352400
    11  H    0.256710
    12  C    0.184993
    13  H    0.256715
    14  H    0.281173
    15  H    0.352400
 Sum of Mulliken charges =  -0.00000

 Dipole moment (field-independent basis, Debye):
    X=              0.0000    Y=              4.8010    Z=              0.0001  Tot=              4.8010

 Test job not archived.
 1\1\GINC-SE083\SP\RHF\Aug-CC-pVDZ\C3H6N2O4\OHZDE\08-Apr-2025\0\\#t hf
 aug-cc-pvdz iop(5/13=1,5/36=2,99/5=2) pseudo=read geom=check guess=(re
 ad,tcheck) scf=(maxcycle=1)\\title\\0,1\C,0,0.000004,0.55594,0.000009\
 N,0,-1.203748,-0.405096,-0.185287\O,0,-2.186262,-0.213681,0.5028\O,0,-
 1.07681,-1.250479,-1.050656\C,0,-0.143337,1.363671,1.274306\N,0,1.2037
 18,-0.40516,0.185228\O,0,2.186278,-0.213669,-0.502774\O,0,1.076775,-1.
 250562,1.050578\H,0,-0.279738,0.707405,2.131677\H,0,-1.003305,2.027228
 ,1.194023\H,0,0.757686,1.964522,1.415926\C,0,0.143372,1.363766,-1.2742

 Normal termination of Gaussian 16 at Tue Apr  8 22:38:40 2025.
