 Gaussian 16, Revision C.01,

 ----------------------------------------------------------------------
 #t hf aug-cc-pvdz symm=none int=(grid=ultrafine) guess=(read,tcheck) s
 table=opt
 ----------------------------------------------------------------------
 -----
 title
 -----
 Symbolic Z-matrix:
 Charge =  0 Multiplicity = 2

 SCF Done:  E(UHF) =  -367.873572369     A.U. after   17 cycles

 1\1\GINC-SE043\Stability\UHF\Aug-CC-pVDZ\C8H18N1\OHZDE\08-Apr-2025\0\\
 #t hf aug-cc-pvdz symm=none int=(grid=ultrafine) guess=(read,tcheck) s
 table=opt\\title\\0,2\C,0,1.135284,-1.740515,0.027363\N,0,-0.219859,-1
 .401543,0.443275\C,0,-1.180895,-1.074633,-0.512247\H,0,-0.267242,-0.85
 9471,1.295458\C,0,-2.532114,-0.629887,-0.041516\H,0,-1.092664,-1.63205
 4,-1.439334\C,0,1.979492,-0.577499,-0.523497\H,0,1.054938,-2.521915,-0
 .735841\H,0,1.644918,-2.192461,0.885581\C,0,-2.581376,0.78521,0.579729
 \H,0,-2.929641,-1.34342,0.701718\H,0,-3.222456,-0.660461,-0.890905\C,0

 Normal termination of Gaussian 16 at Tue Apr  8 23:07:31 2025.
 Gaussian 16:  ES64L-G16RevC.01  3-Jul-2019

 ----------------------------------------------------------------------
 #t hf aug-cc-pvdz iop(5/13=1,5/36=2,99/5=2) pseudo=read geom=check gue
 ss=(read,tcheck) scf=(maxcycle=1)
 ----------------------------------------------------------------------
 -----
 title
 -----
 Structure from the checkpoint file:  "BDE49_expt_286_mol2.chk"
 Charge =  0 Multiplicity = 2

                         Standard orientation:
 ---------------------------------------------------------------------
 Center     Atomic      Atomic             Coordinates (Angstroms)
 Number     Number       Type             X           Y           Z
 ---------------------------------------------------------------------
      1          6           0        1.135284   -1.740515    0.027363
      2          7           0       -0.219859   -1.401543    0.443275
      3          6           0       -1.180895   -1.074633   -0.512247
      4          1           0       -0.267242   -0.859471    1.295458
      5          6           0       -2.532114   -0.629887   -0.041516
      6          1           0       -1.092664   -1.632054   -1.439334
      7          6           0        1.979492   -0.577499   -0.523497
      8          1           0        1.054938   -2.521915   -0.735841
      9          1           0        1.644918   -2.192461    0.885581
     10          6           0       -2.581376    0.785210    0.579729
     11          1           0       -2.929641   -1.343420    0.701718
     12          1           0       -3.222456   -0.660461   -0.890905
     13          6           0       -2.285791    1.903668   -0.422256
     14          1           0       -1.873347    0.845877    1.416169
     15          1           0       -3.572870    0.938251    1.020690
     16          1           0       -1.303540    1.767509   -0.881989
     17          1           0       -2.305890    2.886308    0.057487
     18          1           0       -3.027735    1.911062   -1.227415
     19          6           0        2.285981    0.514692    0.506306
     20          1           0        1.455342   -0.139467   -1.380429
     21          1           0        2.921902   -0.989943   -0.905885
     22          6           0        3.147318    1.648749   -0.056899
     23          1           0        2.793390    0.064750    1.369462
     24          1           0        1.346525    0.933372    0.884707
     25          1           0        4.111631    1.273445   -0.413405
     26          1           0        3.347148    2.412516    0.699615
     27          1           0        2.651208    2.138198   -0.900508
 ---------------------------------------------------------------------

 SCF Done:  E(UHF) =  -368.280411656     A.U. after    2 cycles

 The electronic state is 2-A.
 Alpha  occ. eigenvalues --  -15.49255 -11.25724 -11.24066 -11.22733 -11.22703
 Alpha  occ. eigenvalues --  -11.22396 -11.22297 -11.22261 -11.21724  -1.22155
 Alpha  occ. eigenvalues --   -1.07460  -1.05598  -0.98755  -0.94837  -0.87634
 Alpha  occ. eigenvalues --   -0.85133  -0.79776  -0.78045  -0.68137  -0.65547
 Alpha  occ. eigenvalues --   -0.63876  -0.61825  -0.61037  -0.59821  -0.58380
 Alpha  occ. eigenvalues --   -0.55347  -0.54102  -0.53618  -0.52536  -0.51117
 Alpha  occ. eigenvalues --   -0.49095  -0.47795  -0.47520  -0.47255  -0.46868
 Alpha  occ. eigenvalues --   -0.44988  -0.28680
 Alpha virt. eigenvalues --    0.03265   0.03506   0.03829   0.04096   0.04645
 Alpha virt. eigenvalues --    0.04891   0.05298   0.05871   0.06401   0.07733
 Alpha virt. eigenvalues --    0.07980   0.08153   0.08253   0.09427   0.09892

  Beta  occ. eigenvalues --  -15.48689 -11.25753 -11.22736 -11.22670 -11.22576
  Beta  occ. eigenvalues --  -11.22263 -11.22256 -11.21799 -11.21717  -1.20225
  Beta  occ. eigenvalues --   -1.06913  -1.05302  -0.97846  -0.94012  -0.86943
  Beta  occ. eigenvalues --   -0.83366  -0.79648  -0.77026  -0.67516  -0.63886
  Beta  occ. eigenvalues --   -0.63028  -0.60705  -0.60403  -0.59399  -0.58127
  Beta  occ. eigenvalues --   -0.54721  -0.53884  -0.53054  -0.51269  -0.50186
  Beta  occ. eigenvalues --   -0.48278  -0.47612  -0.47296  -0.46865  -0.46751
  Beta  occ. eigenvalues --   -0.40815
  Beta virt. eigenvalues --    0.03274   0.03518   0.03810   0.04076   0.04663
  Beta virt. eigenvalues --    0.04894   0.05314   0.05802   0.06387   0.07734
  Beta virt. eigenvalues --    0.07982   0.08161   0.08259   0.09357   0.09847

 Mulliken charges and spin densities:
               1          2
     1  C   -0.727649  -0.028593
     2  N    0.953217   0.088196
     3  C   -0.351062   1.206612
     4  H    0.183897  -0.011680
     5  C   -0.336042  -0.264756
     6  H   -0.276532  -0.082064
     7  C   -0.218378   0.008649
     8  H    0.108610   0.002949
     9  H    0.067912   0.003717
    10  C   -0.344588   0.056958
    11  H    0.181340   0.034766
    12  H    0.169923  -0.003833
    13  C   -0.324865   0.012112
    14  H    0.145444  -0.003873
    15  H    0.113509  -0.006428
    16  H    0.139658  -0.008455
    17  H    0.120956  -0.000438
    18  H    0.151393   0.003586
    19  C   -0.342194  -0.001142
    20  H    0.136049  -0.009825
    21  H    0.125457  -0.001635
    22  C   -0.384817   0.002640
    23  H    0.129751  -0.000159
    24  H    0.110201   0.001494
    25  H    0.165456  -0.000011
    26  H    0.119288   0.000117
    27  H    0.184067   0.001097
 Sum of Mulliken charges =  -0.00000   1.00000

 Dipole moment (field-independent basis, Debye):
    X=              0.5285    Y=              0.2942    Z=              0.2257  Tot=              0.6456
                          Isotropic Fermi Contact Couplings
        Atom                 a.u.       MegaHertz       Gauss      10(-4) cm-1
     1  C(13)             -0.00281      -3.16397      -1.12898      -1.05539
     2  N(14)              0.04177      13.49593       4.81568       4.50176
     3  C(13)              0.22410     251.93585      89.89698      84.03675
     4  H(1)              -0.00157      -7.03433      -2.51003      -2.34640
     5  C(13)             -0.04586     -51.55653     -18.39665     -17.19741
     6  H(1)              -0.01721     -76.91391     -27.44480     -25.65572
     7  C(13)              0.00266       2.99316       1.06803       0.99841
     8  H(1)               0.00066       2.94401       1.05050       0.98202

 Normal termination of Gaussian 16 at Tue Apr  8 23:07:52 2025.
