 Gaussian 16, Revision C.01,

 ----------------------------------------------------------------------
 #t hf aug-cc-pvdz symm=none int=(grid=ultrafine) guess=(read,tcheck) s
 table=opt
 ----------------------------------------------------------------------
 -----
 title
 -----
 Symbolic Z-matrix:
 Charge =  0 Multiplicity = 2

 SCF Done:  E(UHF) =  -1100.68732540     A.U. after   19 cycles
 Normal termination of Gaussian 16 at Wed Apr  9 00:51:10 2025.
 Gaussian 16:  ES64L-G16RevC.01  3-Jul-2019

 ----------------------------------------------------------------------
 #t hf aug-cc-pvdz iop(5/13=1,5/36=2,99/5=2) pseudo=read geom=check gue
 ss=(read,tcheck) scf=(maxcycle=1)
 ----------------------------------------------------------------------
 -----
 title
 -----
 Structure from the checkpoint file:  "BDE49_nonexpt_937_mol2.chk"
 Charge =  0 Multiplicity = 2

                         Standard orientation:
 ---------------------------------------------------------------------
 Center     Atomic      Atomic             Coordinates (Angstroms)
 Number     Number       Type             X           Y           Z
 ---------------------------------------------------------------------
      1         17           0       -2.113776    0.089720   -0.000001
      2         16           0        0.681218   -0.203527    0.000001
      3          8           0        0.686320   -0.910764   -1.256056
      4          7           0       -0.647838    0.923663   -0.000002
      5          6           0        1.981237    1.021490   -0.000000
      6          1           0        2.914415    0.457761    0.000001
      7          1           0        1.893317    1.625519   -0.900920
      8          8           0        0.686318   -0.910761    1.256060
      9          1           0        1.893316    1.625522    0.900918
 ---------------------------------------------------------------------

 SCF Done:  E(UHF) =  -1101.06763319     A.U. after    2 cycles

 The electronic state is 2-A.
 Alpha  occ. eigenvalues -- -105.63771 -94.23498 -20.56747 -20.56745 -15.65719
 Alpha  occ. eigenvalues --  -11.30976 -10.68351  -8.48650  -7.85119  -7.85061
 Alpha  occ. eigenvalues --   -7.84776  -6.46742  -6.46519  -6.46429  -1.59322
 Alpha  occ. eigenvalues --   -1.47021  -1.31892  -1.10507  -1.02402  -0.86041
 Alpha  occ. eigenvalues --   -0.74841  -0.73609  -0.71757  -0.66991  -0.65006
 Alpha  occ. eigenvalues --   -0.62963  -0.61903  -0.55622  -0.51473  -0.50113
 Alpha  occ. eigenvalues --   -0.49830  -0.48050  -0.47534
 Alpha virt. eigenvalues --    0.03011   0.04968   0.05007   0.06106   0.08313
 Alpha virt. eigenvalues --    0.10545   0.11195   0.11801   0.13912   0.13979
 Alpha virt. eigenvalues --    0.14884   0.15453   0.15908   0.16482   0.17590

  Beta  occ. eigenvalues -- -105.63719 -94.23563 -20.56647 -20.56646 -15.62074
  Beta  occ. eigenvalues --  -11.31002 -10.68295  -8.48735  -7.85451  -7.84744
  Beta  occ. eigenvalues --   -7.84515  -6.46810  -6.46703  -6.46503  -1.59052
  Beta  occ. eigenvalues --   -1.46751  -1.23762  -1.10189  -0.99563  -0.83586
  Beta  occ. eigenvalues --   -0.73369  -0.71261  -0.68835  -0.64082  -0.63115
  Beta  occ. eigenvalues --   -0.60004  -0.54806  -0.54537  -0.50528  -0.49491
  Beta  occ. eigenvalues --   -0.48698  -0.45897
  Beta virt. eigenvalues --   -0.00074   0.03047   0.04986   0.05104   0.07005
  Beta virt. eigenvalues --    0.08472   0.10658   0.11612   0.11865   0.13956
  Beta virt. eigenvalues --    0.14006   0.15055   0.15463   0.16237   0.16753

 Mulliken charges and spin densities:
               1          2
     1  Cl   0.090524  -0.011401
     2  S    3.198461  -0.051767
     3  O   -1.482990   0.014389
     4  N   -0.386286   1.047083
     5  C   -0.698209  -0.011571
     6  H    0.287333  -0.001069
     7  H    0.237078  -0.000027
     8  O   -1.482989   0.014389
     9  H    0.237078  -0.000027
 Sum of Mulliken charges =  -0.00000   1.00000

 Dipole moment (field-independent basis, Debye):
    X=              1.4774    Y=              2.9177    Z=             -0.0000  Tot=              3.2705
                          Isotropic Fermi Contact Couplings
        Atom                 a.u.       MegaHertz       Gauss      10(-4) cm-1
     1  Cl(35)             0.05784      25.35975       9.04899       8.45910
     2  S(33)             -0.05983     -20.55068      -7.33299      -6.85497
     3  O(17)              0.00509      -3.08715      -1.10157      -1.02976
     4  N(14)              0.31769     102.64846      36.62752      34.23984
     5  C(13)             -0.00510      -5.73816      -2.04752      -1.91404
     6  H(1)              -0.00055      -2.44377      -0.87200      -0.81516
     7  H(1)               0.00029       1.31639       0.46972       0.43910
     8  O(17)              0.00509      -3.08713      -1.10156      -1.02975

 Normal termination of Gaussian 16 at Wed Apr  9 00:51:14 2025.
