 Gaussian 16, Revision C.01,

 ----------------------------------------------------------------------
 #t hf aug-cc-pvdz symm=none int=(grid=ultrafine) guess=(read,tcheck) s
 table=opt
 ----------------------------------------------------------------------
 -----
 title
 -----
 Symbolic Z-matrix:
 Charge =  0 Multiplicity = 2

 SCF Done:  E(UHF) =  -324.498541782     A.U. after   20 cycles
 Normal termination of Gaussian 16 at Tue Apr  8 23:05:00 2025.
 Gaussian 16:  ES64L-G16RevC.01  3-Jul-2019

 ----------------------------------------------------------------------
 #t hf aug-cc-pvdz iop(5/13=1,5/36=2,99/5=2) pseudo=read geom=check gue
 ss=(read,tcheck) scf=(maxcycle=1)
 ----------------------------------------------------------------------
 -----
 title
 -----
 Structure from the checkpoint file:  "BDE49_expt_357_mol2.chk"
 Charge =  0 Multiplicity = 2

                         Standard orientation:
 ---------------------------------------------------------------------
 Center     Atomic      Atomic             Coordinates (Angstroms)
 Number     Number       Type             X           Y           Z
 ---------------------------------------------------------------------
      1          7           0       -0.074459   -0.568157   -0.006862
      2          6           0        1.225292   -0.069196   -0.142888
      3          6           0       -1.284376    0.099632   -0.029848
      4          8           0       -1.396335    1.308502   -0.143655
      5          6           0       -2.503227   -0.801955    0.098027
      6          1           0       -2.270621   -1.862397    0.219542
      7          1           0       -3.125664   -0.675101   -0.790867
      8          1           0       -3.092157   -0.470063    0.955692
      9          6           0        2.306474   -1.097128   -0.032683
     10          1           0        2.551689   -1.340361    1.015982
     11          1           0        3.227518   -0.737136   -0.497156
     12          1           0        2.033749   -2.036179   -0.527297
     13          6           0        1.530822    1.366402    0.132138
     14          1           0        2.514364    1.616562   -0.274167
     15          1           0        1.566648    1.571117    1.216248
     16          1           0        0.779128    2.030845   -0.287744
     17          1           0       -0.142674   -1.574737    0.018563
 ---------------------------------------------------------------------

 SCF Done:  E(UHF) =  -324.837867079     A.U. after    2 cycles

 The electronic state is 2-A.
 Alpha  occ. eigenvalues --  -20.50781 -15.53898 -11.36078 -11.26968 -11.24981
 Alpha  occ. eigenvalues --  -11.24020 -11.21855  -1.45805  -1.25812  -1.07208
 Alpha  occ. eigenvalues --   -1.00229  -0.95192  -0.86246  -0.79388  -0.69971
 Alpha  occ. eigenvalues --   -0.66500  -0.65496  -0.61092  -0.60188  -0.58509
 Alpha  occ. eigenvalues --   -0.56349  -0.55117  -0.54788  -0.53713  -0.51920
 Alpha  occ. eigenvalues --   -0.46683  -0.41832  -0.29589
 Alpha virt. eigenvalues --    0.02762   0.04010   0.04544   0.04725   0.05463
 Alpha virt. eigenvalues --    0.05849   0.06125   0.07237   0.08349   0.09219
 Alpha virt. eigenvalues --    0.10313   0.12826   0.13076   0.13860   0.14370

  Beta  occ. eigenvalues --  -20.50402 -15.54027 -11.36089 -11.25000 -11.24447
  Beta  occ. eigenvalues --  -11.24326 -11.22148  -1.45035  -1.24760  -1.04445
  Beta  occ. eigenvalues --   -1.00045  -0.95096  -0.85320  -0.78343  -0.69293
  Beta  occ. eigenvalues --   -0.64649  -0.62671  -0.59882  -0.58444  -0.58289
  Beta  occ. eigenvalues --   -0.55776  -0.54367  -0.54203  -0.52863  -0.51296
  Beta  occ. eigenvalues --   -0.43665  -0.41462
  Beta virt. eigenvalues --    0.02753   0.04022   0.04524   0.04676   0.05475
  Beta virt. eigenvalues --    0.05762   0.06131   0.07258   0.08333   0.09185
  Beta virt. eigenvalues --    0.10130   0.12305   0.12928   0.13103   0.13905

 Mulliken charges and spin densities:
               1          2
     1  N    0.926962  -0.018564
     2  C   -0.951152   1.300368
     3  C    0.701086  -0.007288
     4  O   -1.367680   0.085788
     5  C   -0.462599  -0.011362
     6  H    0.067988   0.000757
     7  H    0.245870   0.002219
     8  H    0.239754   0.001882
     9  C   -0.371898  -0.244537
    10  H    0.248086   0.050111
    11  H    0.164668   0.003554
    12  H    0.079425   0.002530
    13  C   -0.239937  -0.241426
    14  H    0.153214   0.004588
    15  H    0.244946   0.053241
    16  H    0.162444   0.005179
    17  H    0.158824   0.012960
 Sum of Mulliken charges =  -0.00000   1.00000

 Dipole moment (field-independent basis, Debye):
    X=              0.7434    Y=             -3.6015    Z=              0.4063  Tot=              3.6998
                          Isotropic Fermi Contact Couplings
        Atom                 a.u.       MegaHertz       Gauss      10(-4) cm-1
     1  N(14)             -0.04527     -14.62698      -5.21927      -4.87904
     2  C(13)              0.25637     288.20408     102.83838      96.13453
     3  C(13)             -0.00110      -1.23824      -0.44183      -0.41303
     4  O(17)              0.03058     -18.53739      -6.61460      -6.18341
     5  C(13)             -0.00365      -4.10725      -1.46557      -1.37003
     6  H(1)              -0.00001      -0.04897      -0.01747      -0.01633
     7  H(1)               0.00089       3.97004       1.41661       1.32426
     8  H(1)               0.00055       2.47959       0.88478       0.82710

 Normal termination of Gaussian 16 at Tue Apr  8 23:05:07 2025.
