 Gaussian 16, Revision C.01,

 ----------------------------------------------------------------------
 #t hf aug-cc-pvdz symm=none int=(grid=ultrafine) guess=(read,tcheck) s
 table=(opt,rrhf)
 ----------------------------------------------------------------------
 -----
 title
 -----
 Symbolic Z-matrix:
 Charge =  0 Multiplicity = 1

 SCF Done:  E(RHF) =  -1138.69296004     A.U. after   18 cycles
 Normal termination of Gaussian 16 at Tue Apr  8 23:25:02 2025.
 Gaussian 16:  ES64L-G16RevC.01  3-Jul-2019

 ----------------------------------------------------------------------
 #t hf aug-cc-pvdz iop(5/13=1,5/36=2,99/5=2) pseudo=read geom=check gue
 ss=(read,tcheck) scf=(maxcycle=1)
 ----------------------------------------------------------------------
 -----
 title
 -----
 Structure from the checkpoint file:  "BDE49_nonexpt_1248_mol1.chk"
 Charge =  0 Multiplicity = 1

                         Standard orientation:
 ---------------------------------------------------------------------
 Center     Atomic      Atomic             Coordinates (Angstroms)
 Number     Number       Type             X           Y           Z
 ---------------------------------------------------------------------
      1         17           0       -2.497456   -0.812924   -0.733005
      2         15           0       -1.368207   -0.012136    0.845085
      3          7           0       -1.186742    1.707416    0.216044
      4          7           0       -0.018007    1.972290   -0.125614
      5          6           0        0.339844   -0.346707    0.338544
      6          6           0        0.896026    0.872609   -0.077112
      7          6           0        2.235061    0.989673   -0.424325
      8          1           0        2.630473    1.949687   -0.732560
      9          6           0        3.030976   -0.153681   -0.361664
     10          1           0        4.078151   -0.095765   -0.634083
     11          6           0        2.491085   -1.373531    0.052320
     12          1           0        3.123998   -2.252529    0.091977
     13          6           0        1.146345   -1.476587    0.418896
     14          1           0        0.744453   -2.428241    0.746516
 ---------------------------------------------------------------------

 SCF Done:  E(RHF) =  -1139.14624118     A.U. after    2 cycles

 The electronic state is 1-A.
 Alpha  occ. eigenvalues -- -105.57599 -84.36451 -15.59672 -15.58258 -11.30037
 Alpha  occ. eigenvalues --  -11.28368 -11.27808 -11.27700 -11.27684 -11.27596
 Alpha  occ. eigenvalues --  -10.62450  -7.79361  -7.78984  -7.78965  -6.82966
 Alpha  occ. eigenvalues --   -4.35533  -4.35139  -4.34420  -1.39189  -1.19016
 Alpha  occ. eigenvalues --   -1.09317  -1.07307  -1.05076  -0.97289  -0.89843
 Alpha  occ. eigenvalues --   -0.84453  -0.81424  -0.70992  -0.70596  -0.68827
 Alpha  occ. eigenvalues --   -0.64816  -0.63257  -0.62089  -0.58472  -0.55712
 Alpha  occ. eigenvalues --   -0.53364  -0.52812  -0.50126  -0.49093  -0.43116
 Alpha  occ. eigenvalues --   -0.39723  -0.37442  -0.36071
 Alpha virt. eigenvalues --    0.00598   0.02737   0.03225   0.04081   0.05932
 Alpha virt. eigenvalues --    0.06521   0.06991   0.07576   0.08385   0.09542
 Alpha virt. eigenvalues --    0.10538   0.11733   0.12245   0.12856   0.13083

 Mulliken charges:
               1
     1  Cl  -0.487030
     2  P    1.345412
     3  N    0.093826
     4  N   -0.384003
     5  C    0.129547
     6  C   -1.724992
     7  C    1.116804
     8  H   -0.200690
     9  C    0.185136
    10  H   -0.200400
    11  C    0.412729
    12  H   -0.211831
    13  C    0.169734
    14  H   -0.244243
 Sum of Mulliken charges =  -0.00000

 Dipole moment (field-independent basis, Debye):
    X=              3.8605    Y=             -3.1428    Z=              1.1423  Tot=              5.1074

 Test job not archived.
 1\1\GINC-SE334\SP\RHF\Aug-CC-pVDZ\C6H4Cl1N2P1\OHZDE\08-Apr-2025\0\\#t
 hf aug-cc-pvdz iop(5/13=1,5/36=2,99/5=2) pseudo=read geom=check guess=
 (read,tcheck) scf=(maxcycle=1)\\title\\0,1\Cl,0,-2.497456,-0.812924,-0
 .733005\P,0,-1.368207,-0.012136,0.845085\N,0,-1.186742,1.707416,0.2160
 44\N,0,-0.018007,1.97229,-0.125614\C,0,0.339844,-0.346707,0.338544\C,0
 ,0.896026,0.872609,-0.077112\C,0,2.235061,0.989673,-0.424325\H,0,2.630
 473,1.949687,-0.73256\C,0,3.030976,-0.153681,-0.361664\H,0,4.078151,-0
 .095765,-0.634083\C,0,2.491085,-1.373531,0.05232\H,0,3.123998,-2.25252

 Normal termination of Gaussian 16 at Tue Apr  8 23:25:10 2025.
