 Gaussian 16, Revision C.01,

 ----------------------------------------------------------------------
 #t hf aug-cc-pvdz symm=none int=(grid=ultrafine) guess=(read,tcheck) s
 table=(opt,rrhf)
 ----------------------------------------------------------------------
 -----
 title
 -----
 Symbolic Z-matrix:
 Charge =  0 Multiplicity = 1

 SCF Done:  E(RHF) =  -299.229698981     A.U. after   12 cycles
 Normal termination of Gaussian 16 at Wed Apr  9 00:30:41 2025.
 Gaussian 16:  ES64L-G16RevC.01  3-Jul-2019

 ----------------------------------------------------------------------
 #t hf aug-cc-pvdz iop(5/13=1,5/36=2,99/5=2) pseudo=read geom=check gue
 ss=(read,tcheck) scf=(maxcycle=1)
 ----------------------------------------------------------------------
 -----
 title
 -----
 Structure from the checkpoint file:  "BDE49_nonexpt_350_mol1.chk"
 Charge =  0 Multiplicity = 1

                         Standard orientation:
 ---------------------------------------------------------------------
 Center     Atomic      Atomic             Coordinates (Angstroms)
 Number     Number       Type             X           Y           Z
 ---------------------------------------------------------------------
      1          9           0        1.105692   -0.766749   -0.000004
      2          9           0        0.162166    1.309294    0.000000
      3          8           0       -1.195506   -0.603063    0.000004
      4          5           0        0.015467   -0.016592   -0.000001
      5          1           0       -1.923998    0.024564    0.000007
 ---------------------------------------------------------------------

 SCF Done:  E(RHF) =  -299.508485138     A.U. after    2 cycles

 The electronic state is 1-A.
 Alpha  occ. eigenvalues --  -26.48665 -26.48066 -20.59489  -7.75089  -1.63840
 Alpha  occ. eigenvalues --   -1.59769  -1.50015  -0.82788  -0.78733  -0.75221
 Alpha  occ. eigenvalues --   -0.70823  -0.66559  -0.64060  -0.62924  -0.59011
 Alpha  occ. eigenvalues --   -0.55492
 Alpha virt. eigenvalues --    0.03449   0.05104   0.05828   0.05968   0.09220
 Alpha virt. eigenvalues --    0.17751   0.19514   0.21158   0.21525   0.22279
 Alpha virt. eigenvalues --    0.24536   0.26318   0.28004   0.28032   0.29127

 Mulliken charges:
               1
     1  F   -0.680171
     2  F   -0.564971
     3  O   -0.952744
     4  B    1.730733
     5  H    0.467154
 Sum of Mulliken charges =   0.00000

 Dipole moment (field-independent basis, Debye):
    X=             -1.7919    Y=              0.8625    Z=              0.0000  Tot=              1.9887

 Test job not archived.
 1\1\GINC-SE059\SP\RHF\Aug-CC-pVDZ\B1F2H1O1\OHZDE\09-Apr-2025\0\\#t hf
 aug-cc-pvdz iop(5/13=1,5/36=2,99/5=2) pseudo=read geom=check guess=(re
 ad,tcheck) scf=(maxcycle=1)\\title\\0,1\F,0,1.105692,-0.766748,-0.0000
 04\F,0,0.162165,1.309294,0.\O,0,-1.195506,-0.603064,0.000004\B,0,0.015
 467,-0.016592,-0.000001\H,0,-1.923998,0.024563,0.000007\\Version=ES64L
 -G16RevC.01\State=1-A\HF=-299.5084851\RMSD=6.075e-03\Dipole=-0.704987,
 0.3393204,0.0000009\Quadrupole=1.7308884,-2.5577918,0.8269034,-1.20265
 39,-0.0000051,0.0000031\PG=C01 [X(B1F2H1O1)]\\@

 Normal termination of Gaussian 16 at Wed Apr  9 00:30:43 2025.
