 Gaussian 16, Revision C.01,

 ----------------------------------------------------------------------
 #t hf aug-cc-pvdz symm=none int=(grid=ultrafine) guess=(read,tcheck) s
 table=(opt,rrhf)
 ----------------------------------------------------------------------
 -----
 title
 -----
 Symbolic Z-matrix:
 Charge =  0 Multiplicity = 1

 SCF Done:  E(RHF) =  -664.268988110     A.U. after   13 cycles
 Normal termination of Gaussian 16 at Tue Apr  8 23:36:31 2025.
 Gaussian 16:  ES64L-G16RevC.01  3-Jul-2019

 ----------------------------------------------------------------------
 #t hf aug-cc-pvdz iop(5/13=1,5/36=2,99/5=2) pseudo=read geom=check gue
 ss=(read,tcheck) scf=(maxcycle=1)
 ----------------------------------------------------------------------
 -----
 title
 -----
 Structure from the checkpoint file:  "BDE49_nonexpt_1504_mol1.chk"
 Charge =  0 Multiplicity = 1

                         Standard orientation:
 ---------------------------------------------------------------------
 Center     Atomic      Atomic             Coordinates (Angstroms)
 Number     Number       Type             X           Y           Z
 ---------------------------------------------------------------------
      1         15           0        0.140388    0.604496   -0.636552
      2          7           0       -0.783277   -0.835324   -0.131104
      3          8           0       -2.079735   -0.670656   -0.719678
      4          8           0       -0.977770   -0.854090    1.288011
      5          6           0        1.679872    0.267796    0.344166
      6          6           0        2.519774   -0.884244   -0.219881
      7          1           0        1.408938    0.086054    1.387274
      8          1           0        2.251155    1.202700    0.312532
      9          1           0        2.807964   -0.696345   -1.257593
     10          1           0        1.963377   -1.824225   -0.198010
     11          6           0       -0.621873    1.936760    0.397737
     12          1           0       -0.052995    2.858128    0.246508
     13          1           0       -0.636810    1.680439    1.457658
     14          1           0       -1.643451    2.105621    0.052737
     15          1           0        3.434974   -1.021891    0.362781
     16          1           0       -2.267999   -1.544430   -1.081023
     17          1           0       -0.894645   -1.790116    1.504351
 ---------------------------------------------------------------------

 SCF Done:  E(RHF) =  -664.649549730     A.U. after    2 cycles

 The electronic state is 1-A.
 Alpha  occ. eigenvalues --  -84.28573 -20.58750 -20.58648 -15.60490 -11.23615
 Alpha  occ. eigenvalues --  -11.23020 -11.22740  -6.75384  -4.28257  -4.27771
 Alpha  occ. eigenvalues --   -4.27120  -1.52922  -1.43910  -1.08012  -1.02280
 Alpha  occ. eigenvalues --   -0.96405  -0.85883  -0.75791  -0.72600  -0.71251
 Alpha  occ. eigenvalues --   -0.64289  -0.61128  -0.59974  -0.58081  -0.57022
 Alpha  occ. eigenvalues --   -0.56063  -0.52534  -0.50606  -0.48829  -0.48012
 Alpha  occ. eigenvalues --   -0.45104  -0.42404  -0.32466
 Alpha virt. eigenvalues --    0.03537   0.04126   0.04501   0.04902   0.05773
 Alpha virt. eigenvalues --    0.06107   0.06680   0.07038   0.07904   0.08971
 Alpha virt. eigenvalues --    0.10437   0.11858   0.13102   0.13964   0.15243

 Mulliken charges:
               1
     1  P    1.318608
     2  N    1.135311
     3  O   -1.021310
     4  O   -1.141792
     5  C   -0.636875
     6  C   -0.547516
     7  H    0.161227
     8  H    0.148299
     9  H    0.171395
    10  H    0.175332
    11  C   -0.847191
    12  H    0.136471
    13  H    0.126537
    14  H    0.097572
    15  H    0.116094
    16  H    0.306676
    17  H    0.301163
 Sum of Mulliken charges =   0.00000

 Dipole moment (field-independent basis, Debye):
    X=              0.7948    Y=             -1.1669    Z=              0.6981  Tot=              1.5750

 Test job not archived.
 1\1\GINC-SE026\SP\RHF\Aug-CC-pVDZ\C3H10N1O2P1\OHZDE\08-Apr-2025\0\\#t
 hf aug-cc-pvdz iop(5/13=1,5/36=2,99/5=2) pseudo=read geom=check guess=
 (read,tcheck) scf=(maxcycle=1)\\title\\0,1\P,0,0.140388,0.604496,-0.63
 6552\N,0,-0.783277,-0.835324,-0.131104\O,0,-2.079735,-0.670655,-0.7196
 78\O,0,-0.97777,-0.85409,1.288011\C,0,1.679872,0.267795,0.344166\C,0,2
 .519774,-0.884245,-0.219881\H,0,1.408938,0.086054,1.387274\H,0,2.25115
 5,1.202699,0.312532\H,0,2.807964,-0.696346,-1.257593\H,0,1.963376,-1.8
 24226,-0.19801\C,0,-0.621872,1.93676,0.397737\H,0,-0.052994,2.858128,0

 Normal termination of Gaussian 16 at Tue Apr  8 23:36:38 2025.
