 Gaussian 16, Revision C.01,

 ----------------------------------------------------------------------
 #t hf aug-cc-pvdz symm=none int=(grid=ultrafine) guess=(read,tcheck) s
 table=opt
 ----------------------------------------------------------------------
 -----
 title
 -----
 Symbolic Z-matrix:
 Charge =  0 Multiplicity = 2

 SCF Done:  E(UHF) =  -492.159857902     A.U. after   20 cycles
 Normal termination of Gaussian 16 at Wed Apr  9 00:15:34 2025.
 Gaussian 16:  ES64L-G16RevC.01  3-Jul-2019

 ----------------------------------------------------------------------
 #t hf aug-cc-pvdz iop(5/13=1,5/36=2,99/5=2) pseudo=read geom=check gue
 ss=(read,tcheck) scf=(maxcycle=1)
 ----------------------------------------------------------------------
 -----
 title
 -----
 Structure from the checkpoint file:  "BDE49_nonexpt_2528_mol2.chk"
 Charge =  0 Multiplicity = 2

                         Standard orientation:
 ---------------------------------------------------------------------
 Center     Atomic      Atomic             Coordinates (Angstroms)
 Number     Number       Type             X           Y           Z
 ---------------------------------------------------------------------
      1          7           0        0.367003    0.509689   -0.027445
      2         16           0       -1.149378   -0.132908    0.003344
      3          6           0        1.601886   -0.261008    0.004750
      4          1           0        0.457749    1.511024    0.085653
      5          1           0        1.408513   -1.249810   -0.408981
      6          1           0        1.975964   -0.375022    1.029206
      7          1           0        2.367482    0.238560   -0.595772
 ---------------------------------------------------------------------

 SCF Done:  E(UHF) =  -492.316479607     A.U. after    2 cycles

 The electronic state is 2-A.
 Alpha  occ. eigenvalues --  -93.96707 -15.55794 -11.27965  -8.24466  -6.23237
 Alpha  occ. eigenvalues --   -6.21965  -6.21628  -1.26074  -1.00460  -0.89737
 Alpha  occ. eigenvalues --   -0.71166  -0.65911  -0.62793  -0.55604  -0.52517
 Alpha  occ. eigenvalues --   -0.37271  -0.37241
 Alpha virt. eigenvalues --    0.03210   0.05049   0.05366   0.06135   0.08320
 Alpha virt. eigenvalues --    0.10272   0.12476   0.12993   0.14808   0.15453
 Alpha virt. eigenvalues --    0.16868   0.19027   0.20652   0.21928   0.22340

  Beta  occ. eigenvalues --  -93.96021 -15.54237 -11.28092  -8.23680  -6.21736
  Beta  occ. eigenvalues --   -6.21210  -6.20069  -1.22379  -0.98232  -0.86005
  Beta  occ. eigenvalues --   -0.69658  -0.61665  -0.60531  -0.54463  -0.43009
  Beta  occ. eigenvalues --   -0.35620
  Beta virt. eigenvalues --    0.03108   0.03336   0.05087   0.05465   0.06225
  Beta virt. eigenvalues --    0.08590   0.10350   0.13040   0.14427   0.15177
  Beta virt. eigenvalues --    0.15546   0.16965   0.19386   0.21278   0.22317

 Mulliken charges and spin densities:
               1          2
     1  N   -0.029828   0.266880
     2  S    0.106919   0.789586
     3  C   -0.518589  -0.045851
     4  H    0.051835  -0.032957
     5  H    0.097175  -0.002518
     6  H    0.179973   0.017443
     7  H    0.112514   0.007418
 Sum of Mulliken charges =  -0.00000   1.00000

 Dipole moment (field-independent basis, Debye):
    X=              2.3062    Y=              0.7333    Z=              0.1670  Tot=              2.4257
                          Isotropic Fermi Contact Couplings
        Atom                 a.u.       MegaHertz       Gauss      10(-4) cm-1
     1  N(14)              0.18327      59.21492      21.12936      19.75197
     2  S(33)              0.18249      62.68084      22.36608      20.90808
     3  C(13)             -0.02054     -23.09444      -8.24067      -7.70348
     4  H(1)              -0.00985     -44.03497     -15.71277     -14.68848
     5  H(1)               0.00155       6.93219       2.47358       2.31233
     6  H(1)               0.00646      28.87249      10.30242       9.63083
     7  H(1)               0.00231      10.32155       3.68299       3.44290
 --------------------------------------------------------

 Normal termination of Gaussian 16 at Wed Apr  9 00:15:36 2025.
