 Gaussian 16, Revision C.01,

 ----------------------------------------------------------------------
 #t hf aug-cc-pvdz symm=none int=(grid=ultrafine) guess=(read,tcheck) s
 table=(opt,rrhf)
 ----------------------------------------------------------------------
 -----
 title
 -----
 Symbolic Z-matrix:
 Charge =  0 Multiplicity = 1

 SCF Done:  E(RHF) =  -218.322133405     A.U. after   13 cycles
 Normal termination of Gaussian 16 at Wed Apr  9 00:47:26 2025.
 Gaussian 16:  ES64L-G16RevC.01  3-Jul-2019

 ----------------------------------------------------------------------
 #t hf aug-cc-pvdz iop(5/13=1,5/36=2,99/5=2) pseudo=read geom=check gue
 ss=(read,tcheck) scf=(maxcycle=1)
 ----------------------------------------------------------------------
 -----
 title
 -----
 Structure from the checkpoint file:  "BDE49_nonexpt_84_mol1.chk"
 Charge =  0 Multiplicity = 1

                         Standard orientation:
 ---------------------------------------------------------------------
 Center     Atomic      Atomic             Coordinates (Angstroms)
 Number     Number       Type             X           Y           Z
 ---------------------------------------------------------------------
      1          5           0        2.396053   -0.635817    0.000093
      2          5           0        1.325414    0.637449   -0.001668
      3          7           0       -0.083649    0.482788    0.002104
      4          6           0       -1.186091    0.014824    0.000462
      5          8           0       -2.286206   -0.379010   -0.000773
      6          1           0        2.818118   -1.107335   -1.013939
      7          1           0        2.822371   -1.099884    1.015815
      8          1           0        1.743912    1.762676   -0.005317
 ---------------------------------------------------------------------

 SCF Done:  E(RHF) =  -218.534052107     A.U. after    2 cycles

 The electronic state is 1-A.
 Alpha  occ. eigenvalues --  -20.60570 -15.53287 -11.42705  -7.63187  -7.60112
 Alpha  occ. eigenvalues --   -1.55204  -1.28135  -0.91028  -0.74239  -0.72958
 Alpha  occ. eigenvalues --   -0.67702  -0.66769  -0.59319  -0.52809  -0.51690
 Alpha  occ. eigenvalues --   -0.48761  -0.41850
 Alpha virt. eigenvalues --    0.02401   0.03772   0.04057   0.04319   0.05463
 Alpha virt. eigenvalues --    0.05965   0.07188   0.08406   0.08653   0.09371
 Alpha virt. eigenvalues --    0.10782   0.11910   0.12902   0.13354   0.13566

 Mulliken charges:
               1
     1  B   -0.721892
     2  B   -0.003519
     3  N    0.776381
     4  C    0.050822
     5  O   -0.799161
     6  H    0.308844
     7  H    0.308185
     8  H    0.080340
 Sum of Mulliken charges =  -0.00000

 Dipole moment (field-independent basis, Debye):
    X=              1.5344    Y=              0.0375    Z=             -0.0032  Tot=              1.5349

 Test job not archived.
 1\1\GINC-SE162\SP\RHF\Aug-CC-pVDZ\C1H3B2N1O1\OHZDE\09-Apr-2025\0\\#t h
 f aug-cc-pvdz iop(5/13=1,5/36=2,99/5=2) pseudo=read geom=check guess=(
 read,tcheck) scf=(maxcycle=1)\\title\\0,1\B,0,2.396053,-0.635817,0.000
 093\B,0,1.325414,0.637449,-0.001668\N,0,-0.083649,0.482788,0.002104\C,
 0,-1.186091,0.014824,0.000462\O,0,-2.286206,-0.37901,-0.000773\H,0,2.8
 18118,-1.107335,-1.013939\H,0,2.822371,-1.099884,1.015815\H,0,1.743912
 ,1.762676,-0.005317\\Version=ES64L-G16RevC.01\State=1-A\HF=-218.534052
 1\RMSD=2.000e-02\Dipole=0.6036764,0.0147553,-0.0012558\Quadrupole=-1.7

 Normal termination of Gaussian 16 at Wed Apr  9 00:47:28 2025.
