 Gaussian 16, Revision C.01,

 ----------------------------------------------------------------------
 #t hf aug-cc-pvdz symm=none int=(grid=ultrafine) guess=(read,tcheck) s
 table=(opt,rrhf)
 ----------------------------------------------------------------------
 -----
 title
 -----
 Symbolic Z-matrix:
 Charge =  0 Multiplicity = 1

 SCF Done:  E(RHF) =  -2814.45784769     A.U. after   12 cycles
 Normal termination of Gaussian 16 at Tue Apr  8 23:25:46 2025.
 Gaussian 16:  ES64L-G16RevC.01  3-Jul-2019

 ----------------------------------------------------------------------
 #t hf aug-cc-pvdz iop(5/13=1,5/36=2,99/5=2) pseudo=read geom=check gue
 ss=(read,tcheck) scf=(maxcycle=1)
 ----------------------------------------------------------------------
 -----
 title
 -----
 Structure from the checkpoint file:  "BDE49_nonexpt_1251_mol1.chk"
 Charge =  0 Multiplicity = 1

                         Standard orientation:
 ---------------------------------------------------------------------
 Center     Atomic      Atomic             Coordinates (Angstroms)
 Number     Number       Type             X           Y           Z
 ---------------------------------------------------------------------
      1          9           0        1.385078    0.858626    1.253126
      2         15           0       -0.054696    1.740701   -0.925419
      3          6           0        1.406690    0.872106   -0.122886
      4         17           0       -0.109199    3.478566    0.222605
      5         15           0        1.534787   -0.823064   -0.925343
      6          6           0       -1.458730    0.782140   -0.122880
      7          6           0        0.052037   -1.654198   -0.122467
      8         17           0        3.067228   -1.644682    0.222510
      9          9           0       -1.436555    0.770224    1.253146
     10         15           0       -1.480008   -0.917756   -0.925274
     11          9           0        0.051209   -1.628378    1.253570
     12         17           0       -2.957962   -1.834038    0.222406
     13          1           0        0.084938   -2.701378   -0.445056
     14          1           0       -2.381997    1.277139   -0.445797
     15          1           0        2.297102    1.424105   -0.445681
 ---------------------------------------------------------------------

 SCF Done:  E(RHF) =  -2815.20315678     A.U. after    2 cycles

 The electronic state is 1-A.
 Alpha  occ. eigenvalues -- -105.59013-105.59013-105.59013 -84.37147 -84.37146
 Alpha  occ. eigenvalues --  -84.37118 -26.48149 -26.48148 -26.48148 -11.37764
 Alpha  occ. eigenvalues --  -11.37764 -11.37753 -10.63873 -10.63873 -10.63873
 Alpha  occ. eigenvalues --   -7.80788  -7.80788  -7.80786  -7.80407  -7.80407
 Alpha  occ. eigenvalues --   -7.80405  -7.80380  -7.80379  -7.80379  -6.83837
 Alpha  occ. eigenvalues --   -6.83831  -6.83830  -4.36190  -4.36190  -4.36137
 Alpha  occ. eigenvalues --   -4.35991  -4.35991  -4.35949  -4.35461  -4.35461
 Alpha  occ. eigenvalues --   -4.35215  -1.61131  -1.60428  -1.60426  -1.13043
 Alpha  occ. eigenvalues --   -1.10171  -1.10171  -1.03502  -0.99174  -0.99174
 Alpha  occ. eigenvalues --   -0.82734  -0.82734  -0.80178  -0.74302  -0.72055
 Alpha  occ. eigenvalues --   -0.72055  -0.68943  -0.68064  -0.68063  -0.65991
 Alpha  occ. eigenvalues --   -0.65990  -0.63363  -0.59981  -0.54498  -0.54497
 Alpha  occ. eigenvalues --   -0.53569  -0.51832  -0.51425  -0.51425  -0.51065
 Alpha  occ. eigenvalues --   -0.51065  -0.47187  -0.47186  -0.44637  -0.42112
 Alpha  occ. eigenvalues --   -0.37317  -0.37315
 Alpha virt. eigenvalues --    0.02264   0.03531   0.04216   0.04216   0.06466
 Alpha virt. eigenvalues --    0.06985   0.06985   0.07428   0.07428   0.09535
 Alpha virt. eigenvalues --    0.09536   0.10391   0.11185   0.11635   0.13833

 Mulliken charges:
               1
     1  F   -0.743111
     2  P    1.136882
     3  C   -0.007376
     4  Cl  -0.464193
     5  P    1.136838
     6  C   -0.007451
     7  C   -0.007393
     8  Cl  -0.464226
     9  F   -0.743153
    10  P    1.136926
    11  F   -0.743175
    12  Cl  -0.464230
    13  H    0.077912
    14  H    0.077890
    15  H    0.077859
 Sum of Mulliken charges =  -0.00000

 Dipole moment (field-independent basis, Debye):
    X=              0.0004    Y=             -0.0000    Z=             -4.1030  Tot=              4.1030

 Test job not archived.
 1\1\GINC-SE341\SP\RHF\Aug-CC-pVDZ\C3H3Cl3F3P3\OHZDE\08-Apr-2025\0\\#t
 hf aug-cc-pvdz iop(5/13=1,5/36=2,99/5=2) pseudo=read geom=check guess=
 (read,tcheck) scf=(maxcycle=1)\\title\\0,1\F,0,-1.385228,-0.858384,1.2
 53126\P,0,0.054391,-1.740711,-0.925419\C,0,-1.406843,-0.87186,-0.12288
 6\Cl,0,0.10859,-3.478585,0.222605\P,0,-1.534643,0.823333,-0.925343\C,0
 ,1.458593,-0.782395,-0.12288\C,0,-0.051748,1.654207,-0.122467\Cl,0,-3.
 06694,1.645219,0.22251\F,0,1.43642,-0.770475,1.253146\P,0,1.480168,0.9
 17497,-0.925274\F,0,-0.050924,1.628387,1.25357\Cl,0,2.958283,1.83352,0

 Normal termination of Gaussian 16 at Tue Apr  8 23:25:58 2025.
