 Gaussian 16, Revision C.01,

 ----------------------------------------------------------------------
 #t hf aug-cc-pvdz symm=none int=(grid=ultrafine) guess=(read,tcheck) s
 table=(opt,rrhf)
 ----------------------------------------------------------------------
 -----
 title
 -----
 Symbolic Z-matrix:
 Charge =  0 Multiplicity = 1

 SCF Done:  E(RHF) =  -404.466525509     A.U. after   15 cycles
 Normal termination of Gaussian 16 at Tue Apr  8 23:11:12 2025.
 Gaussian 16:  ES64L-G16RevC.01  3-Jul-2019

 ----------------------------------------------------------------------
 #t hf aug-cc-pvdz iop(5/13=1,5/36=2,99/5=2) pseudo=read geom=check gue
 ss=(read,tcheck) scf=(maxcycle=1)
 ----------------------------------------------------------------------
 -----
 title
 -----
 Structure from the checkpoint file:  "BDE49_expt_722_mol1.chk"
 Charge =  0 Multiplicity = 1

                         Standard orientation:
 ---------------------------------------------------------------------
 Center     Atomic      Atomic             Coordinates (Angstroms)
 Number     Number       Type             X           Y           Z
 ---------------------------------------------------------------------
      1          6           0       -1.245814    1.072304    0.000000
      2          6           0       -1.191834   -0.315274    0.000000
      3          6           0       -0.001494   -1.021172    0.000000
      4          6           0       -0.040484    1.768331    0.000000
      5          6           0        1.178523    1.094622    0.000000
      6          6           0        1.196014   -0.303202    0.000000
      7          1           0        0.003730   -2.102952    0.000000
      8          1           0       -0.049491    2.851986    0.000000
      9          1           0        2.111373    1.649582    0.000000
     10          8           0        2.351014   -1.027049   -0.000001
     11          1           0        3.102487   -0.425418   -0.000001
     12          1           0       -2.203451    1.575648    0.000001
     13          9           0       -2.349136   -1.011789    0.000000
 ---------------------------------------------------------------------

 SCF Done:  E(RHF) =  -404.866751774     A.U. after    2 cycles

 The electronic state is 1-A.
 Alpha  occ. eigenvalues --  -26.47770 -20.59331 -11.34427 -11.32795 -11.26717
 Alpha  occ. eigenvalues --  -11.24971 -11.24704 -11.24620  -1.60672  -1.50774
 Alpha  occ. eigenvalues --   -1.16578  -1.03693  -1.02242  -0.86735  -0.86330
 Alpha  occ. eigenvalues --   -0.76883  -0.71940  -0.70134  -0.67960  -0.67392
 Alpha  occ. eigenvalues --   -0.63759  -0.61371  -0.59957  -0.57249  -0.55732
 Alpha  occ. eigenvalues --   -0.52633  -0.49498  -0.35954  -0.33596
 Alpha virt. eigenvalues --    0.02808   0.03606   0.04486   0.05247   0.06493
 Alpha virt. eigenvalues --    0.09648   0.10673   0.10957   0.11579   0.11796
 Alpha virt. eigenvalues --    0.13039   0.13726   0.13940   0.14524   0.14616

 Mulliken charges:
               1
     1  C   -0.241915
     2  C    1.413266
     3  C   -0.289981
     4  C    0.597264
     5  C   -0.302042
     6  C    1.983256
     7  H   -0.145547
     8  H   -0.194207
     9  H   -0.319003
    10  O   -1.739292
    11  H    0.414231
    12  H   -0.182468
    13  F   -0.993563
 Sum of Mulliken charges =  -0.00000

 Dipole moment (field-independent basis, Debye):
    X=              1.9977    Y=              2.0712    Z=              0.0000  Tot=              2.8776

 Test job not archived.
 1\1\GINC-SE250\SP\RHF\Aug-CC-pVDZ\C6H5F1O1\OHZDE\08-Apr-2025\0\\#t hf
 aug-cc-pvdz iop(5/13=1,5/36=2,99/5=2) pseudo=read geom=check guess=(re
 ad,tcheck) scf=(maxcycle=1)\\title\\0,1\C,0,-1.245814,1.072304,0.\C,0,
 -1.191834,-0.315274,0.\C,0,-0.001494,-1.021172,0.\C,0,-0.040484,1.7683
 31,0.\C,0,1.178523,1.094622,0.\C,0,1.196014,-0.303202,0.\H,0,0.00373,-
 2.102952,0.\H,0,-0.049491,2.851986,0.\H,0,2.111373,1.649582,0.\O,0,2.3
 51014,-1.027049,-0.000001\H,0,3.102487,-0.425418,-0.000001\H,0,-2.2034
 51,1.575648,0.000001\F,0,-2.349136,-1.011789,0.\\Version=ES64L-G16RevC

 Normal termination of Gaussian 16 at Tue Apr  8 23:11:17 2025.
