 Gaussian 16, Revision C.01,

 ----------------------------------------------------------------------
 #t hf aug-cc-pvdz symm=none int=(grid=ultrafine) guess=(read,tcheck) s
 table=(opt,rrhf)
 ----------------------------------------------------------------------
 -----
 title
 -----
 Symbolic Z-matrix:
 Charge =  0 Multiplicity = 1

 SCF Done:  E(RHF) =  -479.975393239     A.U. after   13 cycles
 Normal termination of Gaussian 16 at Wed Apr  9 00:06:29 2025.
 Gaussian 16:  ES64L-G16RevC.01  3-Jul-2019

 ----------------------------------------------------------------------
 #t hf aug-cc-pvdz iop(5/13=1,5/36=2,99/5=2) pseudo=read geom=check gue
 ss=(read,tcheck) scf=(maxcycle=1)
 ----------------------------------------------------------------------
 -----
 title
 -----
 Structure from the checkpoint file:  "BDE49_nonexpt_2237_mol1.chk"
 Charge =  0 Multiplicity = 1

                         Standard orientation:
 ---------------------------------------------------------------------
 Center     Atomic      Atomic             Coordinates (Angstroms)
 Number     Number       Type             X           Y           Z
 ---------------------------------------------------------------------
      1         14           0       -0.404051    0.524850    0.013806
      2          8           0        0.778731   -0.679801   -0.023372
      3          8           0        2.072699    0.007879   -0.093626
      4          1           0        2.496919   -0.363667    0.691677
      5          6           0       -2.012712   -0.420541   -0.001785
      6          1           0       -2.103639   -1.024091   -0.907981
      7          1           0       -2.853609    0.279402    0.026775
      8          1           0       -2.093115   -1.082698    0.863626
      9          1           0       -0.271795    1.406820   -1.165873
     10          1           0       -0.253224    1.334952    1.245191
 ---------------------------------------------------------------------

 SCF Done:  E(RHF) =  -480.200364335     A.U. after    2 cycles

 The electronic state is 1-A.
 Alpha  occ. eigenvalues --  -69.55774 -20.62338 -20.59656 -11.22442  -6.22452
 Alpha  occ. eigenvalues --   -3.97921  -3.97780  -3.97736  -1.56705  -1.27212
 Alpha  occ. eigenvalues --   -0.96053  -0.73604  -0.70746  -0.61506  -0.61177
 Alpha  occ. eigenvalues --   -0.57710  -0.55856  -0.51494  -0.47884  -0.46949
 Alpha  occ. eigenvalues --   -0.44519
 Alpha virt. eigenvalues --    0.03647   0.04119   0.04850   0.05382   0.06986
 Alpha virt. eigenvalues --    0.07785   0.08598   0.09587   0.10497   0.13949
 Alpha virt. eigenvalues --    0.15181   0.15746   0.16161   0.16695   0.17919

 Mulliken charges:
               1
     1  Si   1.854187
     2  O   -0.790209
     3  O   -0.625430
     4  H    0.488740
     5  C   -0.594345
     6  H    0.083410
     7  H   -0.000017
     8  H    0.076372
     9  H   -0.240185
    10  H   -0.252522
 Sum of Mulliken charges =  -0.00000

 Dipole moment (field-independent basis, Debye):
    X=             -0.7416    Y=              0.0745    Z=              1.3015  Tot=              1.4998

 Test job not archived.
 1\1\GINC-SE150\SP\RHF\Aug-CC-pVDZ\C1H6O2Si1\OHZDE\09-Apr-2025\0\\#t hf
  aug-cc-pvdz iop(5/13=1,5/36=2,99/5=2) pseudo=read geom=check guess=(r
 ead,tcheck) scf=(maxcycle=1)\\title\\0,1\Si,0,-0.404051,0.52485,0.0138
 06\O,0,0.778731,-0.679801,-0.023372\O,0,2.072699,0.007879,-0.093626\H,
 0,2.496919,-0.363667,0.691677\C,0,-2.012712,-0.420541,-0.001785\H,0,-2
 .103639,-1.024091,-0.907981\H,0,-2.853609,0.279402,0.026775\H,0,-2.093
 115,-1.082698,0.863626\H,0,-0.271795,1.40682,-1.165873\H,0,-0.253224,1
 .334952,1.245191\\Version=ES64L-G16RevC.01\State=1-A\HF=-480.2003643\R

 Normal termination of Gaussian 16 at Wed Apr  9 00:06:32 2025.
