 Gaussian 16, Revision C.01,

 ----------------------------------------------------------------------
 #t hf aug-cc-pvdz symm=none int=(grid=ultrafine) guess=(read,tcheck) s
 table=(opt,rrhf)
 ----------------------------------------------------------------------
 -----
 title
 -----
 Symbolic Z-matrix:
 Charge =  0 Multiplicity = 1

 SCF Done:  E(RHF) =  -901.970332583     A.U. after   13 cycles
 Normal termination of Gaussian 16 at Tue Apr  8 23:50:21 2025.
 Gaussian 16:  ES64L-G16RevC.01  3-Jul-2019

 ----------------------------------------------------------------------
 #t hf aug-cc-pvdz iop(5/13=1,5/36=2,99/5=2) pseudo=read geom=check gue
 ss=(read,tcheck) scf=(maxcycle=1)
 ----------------------------------------------------------------------
 -----
 title
 -----
 Structure from the checkpoint file:  "BDE49_nonexpt_1872_mol1.chk"
 Charge =  0 Multiplicity = 1

                         Standard orientation:
 ---------------------------------------------------------------------
 Center     Atomic      Atomic             Coordinates (Angstroms)
 Number     Number       Type             X           Y           Z
 ---------------------------------------------------------------------
      1          6           0       -0.619265    0.396339    0.857752
      2         14           0       -2.015875   -0.317637   -0.238604
      3          6           0        0.640266    0.656303    0.104181
      4          8           0        1.000219    1.657704   -0.406089
      5          1           0       -3.217991   -0.413872    0.617439
      6          1           0       -1.640028   -1.653921   -0.739745
      7          1           0       -2.266989    0.603898   -1.365917
      8         17           0        1.684325   -0.865356   -0.036877
      9          1           0       -0.443735   -0.306377    1.673119
     10          1           0       -0.970295    1.350756    1.259587
 ---------------------------------------------------------------------

 SCF Done:  E(RHF) =  -902.232201148     A.U. after    2 cycles

 The electronic state is 1-A.
 Alpha  occ. eigenvalues -- -105.57270 -69.55815 -20.58688 -11.42802 -11.27415
 Alpha  occ. eigenvalues --  -10.62111  -7.79022  -7.78672  -7.78656  -6.22854
 Alpha  occ. eigenvalues --   -3.98243  -3.98217  -3.98204  -1.53770  -1.10013
 Alpha  occ. eigenvalues --   -1.02308  -0.79621  -0.74872  -0.68731  -0.68111
 Alpha  occ. eigenvalues --   -0.61446  -0.59871  -0.51378  -0.50689  -0.49246
 Alpha  occ. eigenvalues --   -0.47257  -0.47038  -0.44705
 Alpha virt. eigenvalues --    0.03031   0.03788   0.04286   0.05677   0.07304
 Alpha virt. eigenvalues --    0.07851   0.08558   0.08793   0.09670   0.10636
 Alpha virt. eigenvalues --    0.11086   0.13963   0.14188   0.14492   0.14791

 Mulliken charges:
               1
     1  C   -0.512973
     2  Si   1.062752
     3  C    0.873102
     4  O   -1.093462
     5  H   -0.182860
     6  H   -0.153482
     7  H   -0.163116
     8  Cl  -0.146034
     9  H    0.166896
    10  H    0.149178
 Sum of Mulliken charges =  -0.00000

 Dipole moment (field-independent basis, Debye):
    X=             -2.8151    Y=             -0.5564    Z=              1.5886  Tot=              3.2799

 Test job not archived.
 1\1\GINC-SE454\SP\RHF\Aug-CC-pVDZ\C2H5Cl1O1Si1\OHZDE\08-Apr-2025\0\\#t
  hf aug-cc-pvdz iop(5/13=1,5/36=2,99/5=2) pseudo=read geom=check guess
 =(read,tcheck) scf=(maxcycle=1)\\title\\0,1\C,0,-0.619265,0.396339,0.8
 57752\Si,0,-2.015875,-0.317637,-0.238604\C,0,0.640266,0.656303,0.10418
 1\O,0,1.000219,1.657704,-0.406089\H,0,-3.217991,-0.413872,0.617439\H,0
 ,-1.640028,-1.653921,-0.739745\H,0,-2.266989,0.603898,-1.365917\Cl,0,1
 .684325,-0.865356,-0.036877\H,0,-0.443735,-0.306377,1.673119\H,0,-0.97
 0295,1.350756,1.259587\\Version=ES64L-G16RevC.01\State=1-A\HF=-902.232

 Normal termination of Gaussian 16 at Tue Apr  8 23:50:24 2025.
