 Gaussian 16, Revision C.01,

 ----------------------------------------------------------------------
 #t hf aug-cc-pvdz symm=none int=(grid=ultrafine) guess=(read,tcheck) s
 table=opt
 ----------------------------------------------------------------------
 -----
 title
 -----
 Symbolic Z-matrix:
 Charge =  0 Multiplicity = 2

 SCF Done:  E(UHF) =  -537.626600556     A.U. after   16 cycles
 Normal termination of Gaussian 16 at Tue Apr  8 23:58:40 2025.
 Gaussian 16:  ES64L-G16RevC.01  3-Jul-2019

 ----------------------------------------------------------------------
 #t hf aug-cc-pvdz iop(5/13=1,5/36=2,99/5=2) pseudo=read geom=check gue
 ss=(read,tcheck) scf=(maxcycle=1)
 ----------------------------------------------------------------------
 -----
 title
 -----
 Structure from the checkpoint file:  "BDE49_nonexpt_2050_mol2.chk"
 Charge =  0 Multiplicity = 2

                         Standard orientation:
 ---------------------------------------------------------------------
 Center     Atomic      Atomic             Coordinates (Angstroms)
 Number     Number       Type             X           Y           Z
 ---------------------------------------------------------------------
      1         14           0       -1.931888    0.374907   -0.352430
      2          6           0       -0.239506   -0.529161   -0.258655
      3          8           0       -0.270693   -1.390460    0.913981
      4          7           0        0.925199    0.303495   -0.390048
      5          6           0        2.170771   -0.450347   -0.533205
      6          1           0        2.059883   -1.188552   -1.330760
      7          1           0        2.464548   -0.979585    0.385566
      8          1           0        2.976630    0.233028   -0.812831
      9          6           0        1.047607    1.381715    0.582929
     10          1           0        0.131821    1.978033    0.604538
     11          1           0        1.863536    2.045569    0.287368
     12          1           0        1.260086    1.032882    1.608623
     13          1           0       -0.222018   -1.243192   -1.086010
     14          1           0       -0.423354   -0.840452    1.690695
     15          1           0       -2.275553    0.912841    0.996326
     16          1           0       -2.973225   -0.613294   -0.737412
 ---------------------------------------------------------------------

 SCF Done:  E(UHF) =  -537.917273853     A.U. after    2 cycles

 The electronic state is 2-A.
 Alpha  occ. eigenvalues --  -69.53916 -20.55285 -15.49661 -11.30683 -11.26359
 Alpha  occ. eigenvalues --  -11.25416  -6.21066  -3.97014  -3.96100  -3.96070
 Alpha  occ. eigenvalues --   -1.44805  -1.22473  -0.96995  -0.95656  -0.83262
 Alpha  occ. eigenvalues --   -0.74683  -0.69935  -0.66739  -0.64170  -0.60847
 Alpha  occ. eigenvalues --   -0.58326  -0.55640  -0.54665  -0.53375  -0.50329
 Alpha  occ. eigenvalues --   -0.48724  -0.44163  -0.39918  -0.33777
 Alpha virt. eigenvalues --    0.03541   0.04114   0.04415   0.04911   0.05479
 Alpha virt. eigenvalues --    0.06255   0.06489   0.06898   0.07249   0.09094
 Alpha virt. eigenvalues --    0.09721   0.10271   0.11413   0.13256   0.14463

  Beta  occ. eigenvalues --  -69.53354 -20.55086 -15.49665 -11.30608 -11.26353
  Beta  occ. eigenvalues --  -11.25422  -6.20212  -3.95717  -3.95699  -3.94834
  Beta  occ. eigenvalues --   -1.44278  -1.22451  -0.96975  -0.95412  -0.82713
  Beta  occ. eigenvalues --   -0.72039  -0.69595  -0.66625  -0.63621  -0.59866
  Beta  occ. eigenvalues --   -0.57911  -0.55581  -0.54237  -0.53321  -0.49944
  Beta  occ. eigenvalues --   -0.47857  -0.42580  -0.39679
  Beta virt. eigenvalues --    0.02320   0.03690   0.04213   0.04598   0.05291
  Beta virt. eigenvalues --    0.05537   0.06342   0.06855   0.07201   0.08342
  Beta virt. eigenvalues --    0.09213   0.09797   0.10544   0.11617   0.13386

 Mulliken charges and spin densities:
               1          2
     1  Si   0.391625   0.974220
     2  C    0.198329   0.018229
     3  O   -1.243731   0.019231
     4  N    0.451549  -0.037327
     5  C   -0.357138  -0.010837
     6  H    0.098106   0.001039
     7  H    0.254732   0.000336
     8  H    0.098800   0.000158
     9  C   -0.437302   0.014373
    10  H    0.052339  -0.001016
    11  H    0.090707  -0.000771
    12  H    0.199738  -0.000422
    13  H    0.026035  -0.004653
    14  H    0.359352  -0.017342
    15  H   -0.077358   0.011409
    16  H   -0.105782   0.033371
 Sum of Mulliken charges =   0.00000   1.00000

 Dipole moment (field-independent basis, Debye):
    X=              0.7112    Y=              1.0646    Z=              0.5398  Tot=              1.3894
                          Isotropic Fermi Contact Couplings
        Atom                 a.u.       MegaHertz       Gauss      10(-4) cm-1
     1  Si(29)             0.58123    -516.55729    -184.32049    -172.30497
     2  C(13)              0.01872      21.04683       7.51003       7.02047
     3  O(17)              0.02093     -12.68974      -4.52801      -4.23284
     4  N(14)             -0.00356      -1.15064      -0.41058      -0.38381
     5  C(13)             -0.00078      -0.87390      -0.31183      -0.29150
     6  H(1)               0.00000       0.01564       0.00558       0.00522
     7  H(1)               0.00006       0.27086       0.09665       0.09035
     8  H(1)              -0.00004      -0.17161      -0.06123      -0.05724

 Normal termination of Gaussian 16 at Tue Apr  8 23:58:46 2025.
