 Gaussian 16, Revision C.01,

 ----------------------------------------------------------------------
 #t hf aug-cc-pvdz symm=none int=(grid=ultrafine) guess=(read,tcheck) s
 table=(opt,rrhf)
 ----------------------------------------------------------------------
 -----
 title
 -----
 Symbolic Z-matrix:
 Charge =  0 Multiplicity = 1

 SCF Done:  E(RHF) =  -1100.13788230     A.U. after   15 cycles
 Normal termination of Gaussian 16 at Wed Apr  9 00:16:38 2025.
 Gaussian 16:  ES64L-G16RevC.01  3-Jul-2019

 ----------------------------------------------------------------------
 #t hf aug-cc-pvdz iop(5/13=1,5/36=2,99/5=2) pseudo=read geom=check gue
 ss=(read,tcheck) scf=(maxcycle=1)
 ----------------------------------------------------------------------
 -----
 title
 -----
 Structure from the checkpoint file:  "BDE49_nonexpt_2539_mol1.chk"
 Charge =  0 Multiplicity = 1

                         Standard orientation:
 ---------------------------------------------------------------------
 Center     Atomic      Atomic             Coordinates (Angstroms)
 Number     Number       Type             X           Y           Z
 ---------------------------------------------------------------------
      1         17           0       -1.912155   -0.804682   -0.238455
      2         16           0       -0.976725    0.958884    0.317499
      3          6           0        0.565749    0.801344   -0.558762
      4          7           0        1.610236   -0.155251    0.058538
      5          1           0        1.037404    1.786655   -0.542503
      6          1           0        0.442525    0.472208   -1.587616
      7          8           0        1.429110   -0.595473    1.171286
      8          8           0        2.569410   -0.359867   -0.665452
 ---------------------------------------------------------------------

 SCF Done:  E(RHF) =  -1100.50677997     A.U. after    2 cycles

 The electronic state is 1-A.
 Alpha  occ. eigenvalues -- -105.61017 -94.04740 -20.61298 -20.60584 -15.80512
 Alpha  occ. eigenvalues --  -11.37478 -10.65715  -8.32480  -7.82661  -7.82200
 Alpha  occ. eigenvalues --   -7.82159  -6.30270  -6.30045  -6.29744  -1.69109
 Alpha  occ. eigenvalues --   -1.53173  -1.18898  -1.10472  -0.98158  -0.87698
 Alpha  occ. eigenvalues --   -0.79551  -0.77949  -0.76294  -0.66629  -0.62107
 Alpha  occ. eigenvalues --   -0.55442  -0.53996  -0.51138  -0.50647  -0.48080
 Alpha  occ. eigenvalues --   -0.46676  -0.40755
 Alpha virt. eigenvalues --    0.02241   0.03576   0.04481   0.06181   0.06618
 Alpha virt. eigenvalues --    0.08838   0.10990   0.11911   0.12484   0.13348
 Alpha virt. eigenvalues --    0.14249   0.15151   0.15719   0.16519   0.17329

 Mulliken charges:
               1
     1  Cl  -0.263437
     2  S    0.648256
     3  C   -0.674979
     4  N    2.345273
     5  H    0.253208
     6  H    0.224571
     7  O   -1.220408
     8  O   -1.312484
 Sum of Mulliken charges =  -0.00000

 Dipole moment (field-independent basis, Debye):
    X=             -1.2933    Y=              2.6966    Z=             -1.3904  Tot=              3.2981

 Test job not archived.
 1\1\GINC-SE341\SP\RHF\Aug-CC-pVDZ\C1H2Cl1N1O2S1\OHZDE\09-Apr-2025\0\\#
 t hf aug-cc-pvdz iop(5/13=1,5/36=2,99/5=2) pseudo=read geom=check gues
 s=(read,tcheck) scf=(maxcycle=1)\\title\\0,1\Cl,0,-1.912155,-0.804682,
 -0.238455\S,0,-0.976725,0.958884,0.317499\C,0,0.565749,0.801344,-0.558
 762\N,0,1.610236,-0.155251,0.058538\H,0,1.037404,1.786655,-0.542503\H,
 0,0.442525,0.472208,-1.587616\O,0,1.42911,-0.595473,1.171286\O,0,2.569
 41,-0.359867,-0.665452\\Version=ES64L-G16RevC.01\State=1-A\HF=-1100.50
 678\RMSD=1.382e-02\Dipole=-0.508841,1.0609129,-0.5470095\Quadrupole=-4

 Normal termination of Gaussian 16 at Wed Apr  9 00:16:41 2025.
