 Gaussian 16, Revision C.01,

 ----------------------------------------------------------------------
 #t hf aug-cc-pvdz symm=none int=(grid=ultrafine) guess=(read,tcheck) s
 table=(opt,rrhf)
 ----------------------------------------------------------------------
 -----
 title
 -----
 Symbolic Z-matrix:
 Charge =  0 Multiplicity = 1

 SCF Done:  E(RHF) =  -443.032026995     A.U. after   13 cycles
 Normal termination of Gaussian 16 at Tue Apr  8 23:50:18 2025.
 Gaussian 16:  ES64L-G16RevC.01  3-Jul-2019

 ----------------------------------------------------------------------
 #t hf aug-cc-pvdz iop(5/13=1,5/36=2,99/5=2) pseudo=read geom=check gue
 ss=(read,tcheck) scf=(maxcycle=1)
 ----------------------------------------------------------------------
 -----
 title
 -----
 Structure from the checkpoint file:  "BDE49_nonexpt_1867_mol1.chk"
 Charge =  0 Multiplicity = 1

                         Standard orientation:
 ---------------------------------------------------------------------
 Center     Atomic      Atomic             Coordinates (Angstroms)
 Number     Number       Type             X           Y           Z
 ---------------------------------------------------------------------
      1         14           0        1.489557   -0.234194    0.015595
      2          6           0       -0.084246    0.814404   -0.208506
      3          6           0       -1.294638    0.149039    0.380426
      4          1           0        1.367995   -1.495285   -0.745870
      5          1           0        1.685726   -0.542561    1.451027
      6          1           0        2.650324    0.540944   -0.476571
      7          8           0       -2.091794   -0.503693   -0.245790
      8          1           0       -1.407532    0.275139    1.480689
      9          1           0       -0.238779    0.974295   -1.278811
     10          1           0        0.096119    1.775065    0.286014
 ---------------------------------------------------------------------

 SCF Done:  E(RHF) =  -443.222626329     A.U. after    2 cycles

 The electronic state is 1-A.
 Alpha  occ. eigenvalues --  -69.54700 -20.54709 -11.35008 -11.24863  -6.21752
 Alpha  occ. eigenvalues --   -3.97133  -3.97119  -3.97110  -1.47886  -1.02948
 Alpha  occ. eigenvalues --   -0.81504  -0.74351  -0.68206  -0.63607  -0.58101
 Alpha  occ. eigenvalues --   -0.55711  -0.50182  -0.49504  -0.46541  -0.41815
 Alpha virt. eigenvalues --    0.03168   0.03812   0.04168   0.05061   0.06947
 Alpha virt. eigenvalues --    0.07222   0.08228   0.08773   0.09259   0.11183
 Alpha virt. eigenvalues --    0.12489   0.13632   0.14502   0.15249   0.15389

 Mulliken charges:
               1
     1  Si   1.053526
     2  C   -0.778826
     3  C    1.006178
     4  H   -0.162104
     5  H   -0.192435
     6  H   -0.195644
     7  O   -1.111566
     8  H    0.140348
     9  H    0.085944
    10  H    0.154578
 Sum of Mulliken charges =  -0.00000

 Dipole moment (field-independent basis, Debye):
    X=              2.1806    Y=              1.8293    Z=              1.0148  Tot=              3.0218

 Test job not archived.
 1\1\GINC-SE396\SP\RHF\Aug-CC-pVDZ\C2H6O1Si1\OHZDE\08-Apr-2025\0\\#t hf
  aug-cc-pvdz iop(5/13=1,5/36=2,99/5=2) pseudo=read geom=check guess=(r
 ead,tcheck) scf=(maxcycle=1)\\title\\0,1\Si,0,1.489557,-0.234194,0.015
 595\C,0,-0.084246,0.814404,-0.208506\C,0,-1.294638,0.149039,0.380426\H
 ,0,1.367995,-1.495285,-0.74587\H,0,1.685726,-0.542561,1.451027\H,0,2.6
 50324,0.540944,-0.476571\O,0,-2.091794,-0.503693,-0.24579\H,0,-1.40753
 2,0.275139,1.480689\H,0,-0.238779,0.974295,-1.278811\H,0,0.096119,1.77
 5065,0.286014\\Version=ES64L-G16RevC.01\State=1-A\HF=-443.2226263\RMSD

 Normal termination of Gaussian 16 at Tue Apr  8 23:50:21 2025.
