 Gaussian 16, Revision C.01,

 ----------------------------------------------------------------------
 #t hf aug-cc-pvdz symm=none int=(grid=ultrafine) guess=(read,tcheck) s
 table=(opt,rrhf)
 ----------------------------------------------------------------------
 -----
 title
 -----
 Symbolic Z-matrix:
 Charge =  0 Multiplicity = 1

 SCF Done:  E(RHF) =  -628.479429908     A.U. after   13 cycles
 Normal termination of Gaussian 16 at Tue Apr  8 23:36:59 2025.
 Gaussian 16:  ES64L-G16RevC.01  3-Jul-2019

 ----------------------------------------------------------------------
 #t hf aug-cc-pvdz iop(5/13=1,5/36=2,99/5=2) pseudo=read geom=check gue
 ss=(read,tcheck) scf=(maxcycle=1)
 ----------------------------------------------------------------------
 -----
 title
 -----
 Structure from the checkpoint file:  "BDE49_nonexpt_1519_mol1.chk"
 Charge =  0 Multiplicity = 1

                         Standard orientation:
 ---------------------------------------------------------------------
 Center     Atomic      Atomic             Coordinates (Angstroms)
 Number     Number       Type             X           Y           Z
 ---------------------------------------------------------------------
      1          6           0       -0.974534    0.141305    0.021697
      2          7           0        1.805289   -0.307607    0.495779
      3          8           0        2.428131    0.711061   -0.318731
      4          6           0       -2.159069   -0.447434   -0.770369
      5          1           0       -2.416453   -1.454108   -0.428090
      6          1           0       -1.943893   -0.498129   -1.842143
      7          6           0       -0.653037    1.549642   -0.503627
      8          1           0       -0.339983    1.530841   -1.549991
      9          1           0        0.143857    2.020832    0.073877
     10          1           0       -1.541161    2.188294   -0.424073
     11          1           0       -3.044014    0.184617   -0.641274
     12          6           0       -1.325926    0.205938    1.518978
     13          1           0       -2.159531    0.897749    1.682214
     14          1           0       -0.474449    0.556019    2.108168
     15          1           0       -1.621002   -0.774163    1.904066
     16         15           0        0.427621   -1.101171   -0.185280
     17          1           0        2.399599    1.488916    0.249369
     18          1           0        0.658330   -0.874398   -1.570878
     19          1           0        2.537710   -0.980856    0.697282
 ---------------------------------------------------------------------

 SCF Done:  E(RHF) =  -628.831635373     A.U. after    2 cycles

 The electronic state is 1-A.
 Alpha  occ. eigenvalues --  -84.28365 -20.58428 -15.54884 -11.25023 -11.23101
 Alpha  occ. eigenvalues --  -11.22706 -11.22616  -6.75201  -4.28181  -4.27702
 Alpha  occ. eigenvalues --   -4.27100  -1.47597  -1.12310  -1.08821  -0.93918
 Alpha  occ. eigenvalues --   -0.93700  -0.84952  -0.73751  -0.70253  -0.67383
 Alpha  occ. eigenvalues --   -0.63267  -0.61210  -0.60506  -0.57805  -0.55252
 Alpha  occ. eigenvalues --   -0.54619  -0.52545  -0.49497  -0.48425  -0.47881
 Alpha  occ. eigenvalues --   -0.45474  -0.41383  -0.33167
 Alpha virt. eigenvalues --    0.03690   0.03964   0.04459   0.04505   0.05782
 Alpha virt. eigenvalues --    0.06185   0.06462   0.06882   0.07429   0.09042
 Alpha virt. eigenvalues --    0.09286   0.09710   0.11297   0.12156   0.12746

 Mulliken charges:
               1
     1  C   -2.302551
     2  N    0.398461
     3  O   -1.081876
     4  C    0.181217
     5  H    0.168024
     6  H    0.170544
     7  C    0.143056
     8  H    0.149305
     9  H    0.154189
    10  H    0.176348
    11  H    0.224046
    12  C   -0.077240
    13  H    0.202297
    14  H    0.181878
    15  H    0.201113
    16  P    0.362581
    17  H    0.359360
    18  H    0.299651
    19  H    0.089599
 Sum of Mulliken charges =  -0.00000

 Dipole moment (field-independent basis, Debye):
    X=             -0.4860    Y=              0.7837    Z=              0.3757  Tot=              0.9957

 Test job not archived.
 1\1\GINC-SE363\SP\RHF\Aug-CC-pVDZ\C4H12N1O1P1\OHZDE\08-Apr-2025\0\\#t
 hf aug-cc-pvdz iop(5/13=1,5/36=2,99/5=2) pseudo=read geom=check guess=
 (read,tcheck) scf=(maxcycle=1)\\title\\0,1\C,0,-0.974534,0.141305,0.02
 1697\N,0,1.805289,-0.307607,0.495779\O,0,2.428131,0.711061,-0.318731\C
 ,0,-2.159069,-0.447434,-0.770369\H,0,-2.416453,-1.454108,-0.42809\H,0,
 -1.943893,-0.498129,-1.842143\C,0,-0.653037,1.549642,-0.503627\H,0,-0.
 339983,1.530841,-1.549991\H,0,0.143857,2.020832,0.073877\H,0,-1.541161
 ,2.188294,-0.424073\H,0,-3.044014,0.184617,-0.641274\C,0,-1.325926,0.2

 Normal termination of Gaussian 16 at Tue Apr  8 23:37:08 2025.
