 Gaussian 16, Revision C.01,

 ----------------------------------------------------------------------
 #t hf aug-cc-pvdz symm=none int=(grid=ultrafine) guess=(read,tcheck) s
 table=(opt,rrhf)
 ----------------------------------------------------------------------
 -----
 title
 -----
 Symbolic Z-matrix:
 Charge =  0 Multiplicity = 1

 SCF Done:  E(RHF) =  -614.646376089     A.U. after   14 cycles
 Normal termination of Gaussian 16 at Wed Apr  9 00:21:44 2025.
 Gaussian 16:  ES64L-G16RevC.01  3-Jul-2019

 ----------------------------------------------------------------------
 #t hf aug-cc-pvdz iop(5/13=1,5/36=2,99/5=2) pseudo=read geom=check gue
 ss=(read,tcheck) scf=(maxcycle=1)
 ----------------------------------------------------------------------
 -----
 title
 -----
 Structure from the checkpoint file:  "BDE49_nonexpt_2635_mol1.chk"
 Charge =  0 Multiplicity = 1

                         Standard orientation:
 ---------------------------------------------------------------------
 Center     Atomic      Atomic             Coordinates (Angstroms)
 Number     Number       Type             X           Y           Z
 ---------------------------------------------------------------------
      1          9           0       -1.941850    0.420893    0.232073
      2         16           0       -0.798002   -0.718388   -0.228097
      3          6           0        0.695488    0.129887    0.383812
      4          6           0        1.862216   -0.812927    0.061037
      5          1           0        1.738099   -1.792698    0.528703
      6          1           0        2.791180   -0.377339    0.437536
      7          1           0        1.972535   -0.952720   -1.017918
      8          6           0        0.853937    1.518776   -0.230256
      9          1           0        0.584844    0.209280    1.468766
     10          1           0        1.017881    1.450805   -1.308717
     11          1           0        1.708623    2.032863    0.221404
     12          1           0       -0.038334    2.121563   -0.056428
 ---------------------------------------------------------------------

 SCF Done:  E(RHF) =  -614.927174414     A.U. after    2 cycles

 The electronic state is 1-A.
 Alpha  occ. eigenvalues --  -94.02215 -26.45890 -11.28947 -11.25378 -11.24042
 Alpha  occ. eigenvalues --   -8.29531  -6.27341  -6.27010  -6.26747  -1.55719
 Alpha  occ. eigenvalues --   -1.11880  -0.96269  -0.95713  -0.80272  -0.67408
 Alpha  occ. eigenvalues --   -0.65324  -0.64290  -0.62823  -0.58318  -0.57457
 Alpha  occ. eigenvalues --   -0.56401  -0.52161  -0.51475  -0.45945  -0.37190
 Alpha virt. eigenvalues --    0.03287   0.04038   0.04187   0.05332   0.06952
 Alpha virt. eigenvalues --    0.07131   0.07465   0.08243   0.10025   0.12730
 Alpha virt. eigenvalues --    0.13406   0.14773   0.15294   0.16016   0.16107

 Mulliken charges:
               1
     1  F   -0.691644
     2  S    0.885863
     3  C   -1.066554
     4  C   -0.092728
     5  H    0.135393
     6  H    0.181952
     7  H    0.206773
     8  C   -0.283242
     9  H    0.179104
    10  H    0.208189
    11  H    0.167551
    12  H    0.169343
 Sum of Mulliken charges =   0.00000

 Dipole moment (field-independent basis, Debye):
    X=              2.8574    Y=              0.0957    Z=              0.3014  Tot=              2.8749

 Test job not archived.
 1\1\GINC-SE105\SP\RHF\Aug-CC-pVDZ\C3H7F1S1\OHZDE\09-Apr-2025\0\\#t hf
 aug-cc-pvdz iop(5/13=1,5/36=2,99/5=2) pseudo=read geom=check guess=(re
 ad,tcheck) scf=(maxcycle=1)\\title\\0,1\F,0,-1.94185,0.420894,0.232073
 \S,0,-0.798002,-0.718388,-0.228097\C,0,0.695488,0.129887,0.383812\C,0,
 1.862216,-0.812927,0.061037\H,0,1.738098,-1.792698,0.528703\H,0,2.7911
 8,-0.37734,0.437536\H,0,1.972535,-0.952721,-1.017918\C,0,0.853937,1.51
 8776,-0.230256\H,0,0.584844,0.20928,1.468766\H,0,1.017881,1.450805,-1.
 308717\H,0,1.708624,2.032863,0.221404\H,0,-0.038333,2.121563,-0.056428

 Normal termination of Gaussian 16 at Wed Apr  9 00:21:47 2025.
