 Gaussian 16, Revision C.01,

 ----------------------------------------------------------------------
 #t hf aug-cc-pvdz symm=none int=(grid=ultrafine) guess=(read,tcheck) s
 table=(opt,rrhf)
 ----------------------------------------------------------------------
 -----
 title
 -----
 Symbolic Z-matrix:
 Charge =  0 Multiplicity = 1

 SCF Done:  E(RHF) =  -346.643392180     A.U. after   14 cycles
 Normal termination of Gaussian 16 at Wed Apr  9 00:53:21 2025.
 Gaussian 16:  ES64L-G16RevC.01  3-Jul-2019

 ----------------------------------------------------------------------
 #t hf aug-cc-pvdz iop(5/13=1,5/36=2,99/5=2) pseudo=read geom=check gue
 ss=(read,tcheck) scf=(maxcycle=1)
 ----------------------------------------------------------------------
 -----
 title
 -----
 Structure from the checkpoint file:  "BDE49_nonexpt_970_mol1.chk"
 Charge =  0 Multiplicity = 1

                         Standard orientation:
 ---------------------------------------------------------------------
 Center     Atomic      Atomic             Coordinates (Angstroms)
 Number     Number       Type             X           Y           Z
 ---------------------------------------------------------------------
      1          9           0        0.679296    2.118246    0.000000
      2          7           0       -0.285954    1.022312    0.000000
      3          6           0       -0.090143    0.303035    1.198341
      4          6           0       -0.090143   -1.029242    1.237815
      5          6           0       -0.204110   -1.875016   -0.000000
      6          6           0       -0.090143   -1.029242   -1.237815
      7          6           0       -0.090143    0.303035   -1.198341
      8          1           0       -0.024220    0.933734    2.074463
      9          1           0       -0.044564   -1.522051    2.202188
     10          1           0       -0.044564   -1.522051   -2.202188
     11          1           0       -0.024220    0.933734   -2.074463
     12          1           0       -1.157299   -2.425504   -0.000000
     13          1           0        0.570965   -2.653680   -0.000000
 ---------------------------------------------------------------------

 SCF Done:  E(RHF) =  -346.990292045     A.U. after    2 cycles

 The electronic state is 1-A'.
 Alpha  occ. eigenvalues --  -26.46314 -15.61009 -11.28365 -11.28364 -11.26101
 Alpha  occ. eigenvalues --  -11.25566 -11.25564  -1.56512  -1.24277  -1.08286
 Alpha  occ. eigenvalues --   -1.05702  -0.91308  -0.87804  -0.74740  -0.69889
 Alpha  occ. eigenvalues --   -0.69367  -0.67896  -0.63574  -0.62953  -0.60729
 Alpha  occ. eigenvalues --   -0.59306  -0.55746  -0.51630  -0.51238  -0.39676
 Alpha  occ. eigenvalues --   -0.35001
 Alpha virt. eigenvalues --    0.03216   0.03743   0.04340   0.04763   0.05455
 Alpha virt. eigenvalues --    0.06444   0.09974   0.10902   0.11426   0.11779
 Alpha virt. eigenvalues --    0.12317   0.13454   0.13812   0.14583   0.14821

 Mulliken charges:
               1
     1  F   -0.684822
     2  N    1.129109
     3  C   -0.395567
     4  C    0.622193
     5  C   -0.798870
     6  C    0.622193
     7  C   -0.395567
     8  H   -0.141129
     9  H   -0.168455
    10  H   -0.168455
    11  H   -0.141129
    12  H    0.268244
    13  H    0.252255
 Sum of Mulliken charges =   0.00000

 Dipole moment (field-independent basis, Debye):
    X=             -0.2073    Y=             -2.8291    Z=             -0.0000  Tot=              2.8366

 Test job not archived.
 1\1\GINC-SE041\SP\RHF\Aug-CC-pVDZ\C5H6F1N1\OHZDE\09-Apr-2025\0\\#t hf
 aug-cc-pvdz iop(5/13=1,5/36=2,99/5=2) pseudo=read geom=check guess=(re
 ad,tcheck) scf=(maxcycle=1)\\title\\0,1\F,0,0.679296,2.118246,0.\N,0,-
 0.285954,1.022312,0.\C,0,-0.090143,0.303035,1.198341\C,0,-0.090143,-1.
 029242,1.237815\C,0,-0.20411,-1.875016,0.\C,0,-0.090143,-1.029242,-1.2
 37815\C,0,-0.090143,0.303035,-1.198341\H,0,-0.02422,0.933734,2.074463\
 H,0,-0.044564,-1.522051,2.202188\H,0,-0.044564,-1.522051,-2.202188\H,0
 ,-0.02422,0.933734,-2.074463\H,0,-1.157299,-2.425504,0.\H,0,0.570965,-

 Normal termination of Gaussian 16 at Wed Apr  9 00:53:25 2025.
