 Gaussian 16, Revision C.01,

 ----------------------------------------------------------------------
 #t hf aug-cc-pvdz symm=none int=(grid=ultrafine) guess=(read,tcheck) s
 table=(opt,rrhf)
 ----------------------------------------------------------------------
 -----
 title
 -----
 Symbolic Z-matrix:
 Charge =  0 Multiplicity = 1

 SCF Done:  E(RHF) =  -1013.81116889     A.U. after   17 cycles
 Normal termination of Gaussian 16 at Tue Apr  8 23:19:50 2025.
 Gaussian 16:  ES64L-G16RevC.01  3-Jul-2019

 ----------------------------------------------------------------------
 #t hf aug-cc-pvdz iop(5/13=1,5/36=2,99/5=2) pseudo=read geom=check gue
 ss=(read,tcheck) scf=(maxcycle=1)
 ----------------------------------------------------------------------
 -----
 title
 -----
 Structure from the checkpoint file:  "BDE49_expt_714_mol1.chk"
 Charge =  0 Multiplicity = 1

                         Standard orientation:
 ---------------------------------------------------------------------
 Center     Atomic      Atomic             Coordinates (Angstroms)
 Number     Number       Type             X           Y           Z
 ---------------------------------------------------------------------
      1          6           0       -0.407278    1.054806   -0.153959
      2          6           0       -1.300964   -0.179756   -0.486461
      3          6           0       -0.601777   -1.533349   -0.295420
      4          6           0        0.528414   -1.510763    0.700426
      5          6           0        1.623440   -0.501129    0.257115
      6          1           0        0.947269   -2.512343    0.796248
      7          1           0        0.118302   -1.216121    1.671010
      8          7           0        0.948140    0.568011   -0.547789
      9          6           0       -0.804786    2.182514   -1.121690
     10          1           0       -0.619103    1.884944   -2.157036
     11          1           0       -0.245222    3.093521   -0.911623
     12          1           0       -1.870189    2.397292   -1.010575
     13          6           0       -0.514963    1.596139    1.284342
     14          1           0       -0.452340    0.821709    2.047935
     15          1           0       -1.464313    2.114135    1.425956
     16          1           0        0.291844    2.314019    1.443380
     17          6           0        2.596360   -1.203016   -0.707314
     18          1           0        2.057671   -1.647008   -1.546884
     19          1           0        3.149124   -1.991774   -0.190309
     20          1           0        3.320126   -0.484743   -1.098145
     21          6           0        2.406837    0.009141    1.481128
     22          1           0        1.767080    0.517114    2.202091
     23          1           0        3.191154    0.699669    1.172719
     24          1           0        2.874737   -0.840576    1.986087
     25          8           0        1.847298    1.683460   -0.638509
     26          1           0        2.012781    1.757282   -1.584243
     27          8           0       -0.934100   -2.500420   -0.934380
     28         17           0       -2.856088   -0.217495    0.467503
     29          1           0       -1.619685   -0.137623   -1.525520
 ---------------------------------------------------------------------

 SCF Done:  E(RHF) =  -1014.45936539     A.U. after    2 cycles

 The electronic state is 1-A.
 Alpha  occ. eigenvalues -- -105.56710 -20.58919 -20.54937 -15.56275 -11.35262
 Alpha  occ. eigenvalues --  -11.31905 -11.30236 -11.29622 -11.25498 -11.23817
 Alpha  occ. eigenvalues --  -11.23478 -11.23197 -11.23168 -10.61452  -7.78396
 Alpha  occ. eigenvalues --   -7.78034  -7.78024  -1.49328  -1.48421  -1.21121
 Alpha  occ. eigenvalues --   -1.12676  -1.08511  -1.01875  -1.00624  -0.96006
 Alpha  occ. eigenvalues --   -0.94748  -0.93006  -0.82500  -0.79816  -0.73433
 Alpha  occ. eigenvalues --   -0.71345  -0.70820  -0.68796  -0.65350  -0.63728
 Alpha  occ. eigenvalues --   -0.62618  -0.61473  -0.60033  -0.59200  -0.58113
 Alpha  occ. eigenvalues --   -0.56627  -0.55926  -0.55498  -0.54273  -0.53819
 Alpha  occ. eigenvalues --   -0.53017  -0.52442  -0.51698  -0.49884  -0.48277
 Alpha  occ. eigenvalues --   -0.47415  -0.46623  -0.45050  -0.41912  -0.40579
 Alpha virt. eigenvalues --    0.02937   0.03457   0.03702   0.04119   0.04522
 Alpha virt. eigenvalues --    0.04721   0.05045   0.05857   0.06404   0.08039
 Alpha virt. eigenvalues --    0.08424   0.08722   0.09021   0.09208   0.10174

 Mulliken charges:
               1
     1  C   -1.326156
     2  C   -0.663553
     3  C    1.866333
     4  C    0.196513
     5  C   -3.160483
     6  H    0.049897
     7  H    0.357041
     8  N    2.772065
     9  C   -0.143230
    10  H    0.226016
    11  H    0.281138
    12  H    0.238999
    13  C    0.138032
    14  H    0.181098
    15  H    0.119000
    16  H    0.292953
    17  C    0.075058
    18  H    0.226618
    19  H    0.224674
    20  H    0.155126
    21  C    0.121991
    22  H    0.106989
    23  H    0.234034
    24  H    0.273524
    25  O   -1.622840
    26  H    0.315476
    27  O   -1.564606
    28  Cl  -0.075732
    29  H    0.104024
 Sum of Mulliken charges =   0.00000

 Dipole moment (field-independent basis, Debye):
    X=              2.6835    Y=              2.4796    Z=              0.4295  Tot=              3.6789

 Test job not archived.
 1\1\GINC-SE229\SP\RHF\Aug-CC-pVDZ\C9H16Cl1N1O2\OHZDE\08-Apr-2025\0\\#t
  hf aug-cc-pvdz iop(5/13=1,5/36=2,99/5=2) pseudo=read geom=check guess
 =(read,tcheck) scf=(maxcycle=1)\\title\\0,1\C,0,-0.407278,1.054806,-0.
 153959\C,0,-1.300964,-0.179756,-0.486461\C,0,-0.601777,-1.533349,-0.29
 542\C,0,0.528414,-1.510763,0.700426\C,0,1.62344,-0.501129,0.257115\H,0
 ,0.947269,-2.512343,0.796248\H,0,0.118302,-1.216121,1.67101\N,0,0.9481
 4,0.568011,-0.547789\C,0,-0.804786,2.182514,-1.12169\H,0,-0.619103,1.8
 84944,-2.157036\H,0,-0.245222,3.093521,-0.911623\H,0,-1.870189,2.39729

 Normal termination of Gaussian 16 at Tue Apr  8 23:20:26 2025.
