 Gaussian 16, Revision C.01,

 ----------------------------------------------------------------------
 #t hf aug-cc-pvdz symm=none int=(grid=ultrafine) guess=(read,tcheck) s
 table=(opt,rrhf)
 ----------------------------------------------------------------------
 -----
 title
 -----
 Symbolic Z-matrix:
 Charge =  0 Multiplicity = 1

 SCF Done:  E(RHF) =  -1607.49033109     A.U. after   14 cycles

 1\1\GINC-SE334\Stability\RHF\Aug-CC-pVDZ\C6H3Cl3\OHZDE\08-Apr-2025\0\\
 #t hf aug-cc-pvdz symm=none int=(grid=ultrafine) guess=(read,tcheck) s
 table=(opt,rrhf)\\title\\0,1\C,0,0.70247,-1.216712,0.\C,0,-0.688368,-1
 .192291,0.\C,0,-1.404934,0.,0.\C,0,-0.688368,1.192291,0.\C,0,0.70247,1
 .216712,0.\C,0,1.376735,0.,0.\H,0,1.242648,-2.152315,0.\Cl,0,-1.56342,
 -2.707908,0.\Cl,0,3.126836,0.,0.\Cl,0,-1.563419,2.707908,0.\H,0,-2.485
 279,0.,0.\H,0,1.242649,2.152315,0.\\Version=ES64L-G16RevC.01\HF=-1607.
 4903311\RMSD=2.589e-09\Dipole=-0.0000191,0.0000005,0.\Quadrupole=0.571

 Normal termination of Gaussian 16 at Tue Apr  8 22:48:50 2025.
 Gaussian 16:  ES64L-G16RevC.01  3-Jul-2019

 ----------------------------------------------------------------------
 #t hf aug-cc-pvdz iop(5/13=1,5/36=2,99/5=2) pseudo=read geom=check gue
 ss=(read,tcheck) scf=(maxcycle=1)
 ----------------------------------------------------------------------
 -----
 title
 -----
 Structure from the checkpoint file:  "BDE49_expt_1682_mol1.chk"
 Charge =  0 Multiplicity = 1

                         Standard orientation:
 ---------------------------------------------------------------------
 Center     Atomic      Atomic             Coordinates (Angstroms)
 Number     Number       Type             X           Y           Z
 ---------------------------------------------------------------------
      1          6           0        1.216712    0.702470    0.000000
      2          6           0        1.192291   -0.688368    0.000000
      3          6           0        0.000000   -1.404934    0.000000
      4          6           0       -1.192291   -0.688368    0.000000
      5          6           0       -1.216712    0.702470    0.000000
      6          6           0        0.000000    1.376735    0.000000
      7          1           0        2.152315    1.242648    0.000000
      8         17           0        2.707908   -1.563420    0.000000
      9         17           0        0.000000    3.126836    0.000000
     10         17           0       -2.707908   -1.563419    0.000000
     11          1           0        0.000000   -2.485279    0.000000
     12          1           0       -2.152315    1.242649    0.000000
 ---------------------------------------------------------------------

 SCF Done:  E(RHF) =  -1607.94663126     A.U. after    2 cycles

 The electronic state is 1-A'.
 Alpha  occ. eigenvalues -- -105.59237-105.59237-105.59237 -11.34185 -11.34179
 Alpha  occ. eigenvalues --  -11.34179 -11.28460 -11.28459 -11.28459 -10.64031
 Alpha  occ. eigenvalues --  -10.64031 -10.64030  -7.80999  -7.80999  -7.80999
 Alpha  occ. eigenvalues --   -7.80590  -7.80590  -7.80588  -7.80574  -7.80574
 Alpha  occ. eigenvalues --   -7.80573  -1.23203  -1.14699  -1.14699  -1.06370
 Alpha  occ. eigenvalues --   -1.01336  -1.01336  -0.85144  -0.85144  -0.74034
 Alpha  occ. eigenvalues --   -0.72112  -0.65295  -0.63069  -0.63069  -0.60232
 Alpha  occ. eigenvalues --   -0.56286  -0.56286  -0.53239  -0.53239  -0.49059
 Alpha  occ. eigenvalues --   -0.49059  -0.47569  -0.46522  -0.36990  -0.36990
 Alpha virt. eigenvalues --    0.03916   0.04440   0.04440   0.06784   0.06784
 Alpha virt. eigenvalues --    0.07831   0.07832   0.08691   0.09418   0.10109
 Alpha virt. eigenvalues --    0.12470   0.12470   0.14102   0.14102   0.14274

 Mulliken charges:
               1
     1  C    0.336538
     2  C    0.091636
     3  C    0.336528
     4  C    0.091639
     5  C    0.336533
     6  C    0.091650
     7  H   -0.118965
     8  Cl  -0.309207
     9  Cl  -0.309214
    10  Cl  -0.309206
    11  H   -0.118967
    12  H   -0.118964
 Sum of Mulliken charges =  -0.00000

 Dipole moment (field-independent basis, Debye):
    X=             -0.0000    Y=             -0.0000    Z=              0.0000  Tot=              0.0000

 Test job not archived.
 1\1\GINC-SE334\SP\RHF\Aug-CC-pVDZ\C6H3Cl3\OHZDE\08-Apr-2025\0\\#t hf a
 ug-cc-pvdz iop(5/13=1,5/36=2,99/5=2) pseudo=read geom=check guess=(rea
 d,tcheck) scf=(maxcycle=1)\\title\\0,1\C,0,0.70247,-1.216712,0.\C,0,-0
 .688368,-1.192291,0.\C,0,-1.404934,0.,0.\C,0,-0.688368,1.192291,0.\C,0
 ,0.70247,1.216712,0.\C,0,1.376735,0.,0.\H,0,1.242648,-2.152315,0.\Cl,0
 ,-1.56342,-2.707908,0.\Cl,0,3.126836,0.,0.\Cl,0,-1.563419,2.707908,0.\
 H,0,-2.485279,0.,0.\H,0,1.242649,2.152315,0.\\Version=ES64L-G16RevC.01
 \State=1-A'\HF=-1607.9466313\RMSD=3.446e-02\Dipole=-0.0000194,0.000000

 Normal termination of Gaussian 16 at Tue Apr  8 22:48:58 2025.
