 Gaussian 16, Revision C.01,

 ----------------------------------------------------------------------
 #t hf aug-cc-pvdz symm=none int=(grid=ultrafine) guess=(read,tcheck) s
 table=(opt,rrhf)
 ----------------------------------------------------------------------
 -----
 title
 -----
 Symbolic Z-matrix:
 Charge =  0 Multiplicity = 1

 SCF Done:  E(RHF) =  -1136.58651838     A.U. after   18 cycles
 Normal termination of Gaussian 16 at Tue Apr  8 23:08:12 2025.
 Gaussian 16:  ES64L-G16RevC.01  3-Jul-2019

 ----------------------------------------------------------------------
 #t hf aug-cc-pvdz iop(5/13=1,5/36=2,99/5=2) pseudo=read geom=check gue
 ss=(read,tcheck) scf=(maxcycle=1)
 ----------------------------------------------------------------------
 -----
 title
 -----
 Structure from the checkpoint file:  "BDE49_expt_1765_mol1.chk"
 Charge =  0 Multiplicity = 1

                         Standard orientation:
 ---------------------------------------------------------------------
 Center     Atomic      Atomic             Coordinates (Angstroms)
 Number     Number       Type             X           Y           Z
 ---------------------------------------------------------------------
      1          6           0        3.444472   -0.277049    1.501464
      2          6           0        2.095730   -0.546345    1.281766
      3          6           0        4.289993   -0.007030    0.428084
      4          6           0        3.785365    0.003699   -0.871834
      5          6           0        2.437596   -0.251654   -1.100455
      6          6           0        1.598844   -0.528533   -0.020935
      7          1           0        1.421846   -0.746174    2.104539
      8          1           0        3.832662   -0.281393    2.513394
      9          1           0        5.340334    0.196520    0.602863
     10          1           0        4.441045    0.214649   -1.708710
     11          1           0        2.031792   -0.238852   -2.103795
     12          7           0        0.206924   -0.810176   -0.261264
     13          7           0       -0.205352   -1.974267   -0.909237
     14          8           0        0.682383   -2.692937   -1.275042
     15         15           0       -1.009385    0.224140    0.349429
     16          8           0       -0.966092    0.395378    1.805604
     17          8           0       -0.739387    1.515445   -0.524137
     18          6           0       -1.241109    2.819803   -0.110606
     19          6           0       -0.405645    3.879401   -0.797213
     20          1           0       -1.174327    2.888336    0.976932
     21          1           0       -2.291255    2.882532   -0.407225
     22          1           0        0.640500    3.801596   -0.494977
     23          1           0       -0.773189    4.872529   -0.524722
     24          1           0       -0.463167    3.775180   -1.882616
     25          8           0       -2.356112   -0.345220   -0.248681
     26          6           0       -3.135699   -1.374803    0.430707
     27          6           0       -4.580813   -1.225507    0.004743
     28          1           0       -3.012900   -1.247720    1.508097
     29          1           0       -2.723469   -2.339408    0.129899
     30          1           0       -4.979266   -0.255193    0.308588
     31          1           0       -5.183861   -2.008559    0.472523
     32          1           0       -4.675716   -1.318262   -1.079004
 ---------------------------------------------------------------------

 SCF Done:  E(RHF) =  -1137.43223081     A.U. after    2 cycles

 The electronic state is 1-A.
 Alpha  occ. eigenvalues --  -84.44764 -20.60249 -20.58193 -20.57952 -20.50461
 Alpha  occ. eigenvalues --  -15.69021 -15.56869 -11.30992 -11.30960 -11.28962
 Alpha  occ. eigenvalues --  -11.25292 -11.25160 -11.25101 -11.24939 -11.24857
 Alpha  occ. eigenvalues --  -11.24083 -11.23978  -6.89720  -4.43951  -4.43516
 Alpha  occ. eigenvalues --   -4.43107  -1.61080  -1.53559  -1.47513  -1.39229
 Alpha  occ. eigenvalues --   -1.28820  -1.16085  -1.05547  -1.04894  -1.03681
 Alpha  occ. eigenvalues --   -1.02754  -0.95850  -0.89280  -0.86584  -0.85438
 Alpha  occ. eigenvalues --   -0.84235  -0.80201  -0.76508  -0.74828  -0.71533
 Alpha  occ. eigenvalues --   -0.70442  -0.69118  -0.67787  -0.66945  -0.65886
 Alpha  occ. eigenvalues --   -0.64117  -0.62686  -0.62251  -0.60974  -0.60706
 Alpha  occ. eigenvalues --   -0.58273  -0.57195  -0.55844  -0.55367  -0.54519
 Alpha  occ. eigenvalues --   -0.53751  -0.52787  -0.52011  -0.51388  -0.50680
 Alpha  occ. eigenvalues --   -0.48991  -0.48713  -0.47767  -0.45495  -0.44954
 Alpha  occ. eigenvalues --   -0.44109  -0.35405  -0.35214
 Alpha virt. eigenvalues --    0.03413   0.03540   0.03766   0.03881   0.04275
 Alpha virt. eigenvalues --    0.04414   0.04808   0.06072   0.06178   0.06749
 Alpha virt. eigenvalues --    0.07094   0.07356   0.07679   0.08414   0.08930

 Mulliken charges:
               1
     1  C    0.437892
     2  C    0.370437
     3  C    0.362320
     4  C    0.440259
     5  C    0.560215
     6  C   -2.065862
     7  H   -0.370438
     8  H   -0.241372
     9  H   -0.226918
    10  H   -0.250181
    11  H   -0.396815
    12  N    1.064263
    13  N    0.952502
    14  O   -1.057196
    15  P    4.965819
    16  O   -1.661020
    17  O   -2.179540
    18  C    0.342863
    19  C   -0.501412
    20  H    0.142027
    21  H    0.081956
    22  H    0.187635
    23  H    0.138159
    24  H    0.181880
    25  O   -1.766271
    26  C    0.323097
    27  C   -0.571507
    28  H    0.113287
    29  H    0.131336
    30  H    0.158420
    31  H    0.155721
    32  H    0.178444
 Sum of Mulliken charges =  -0.00000

 Dipole moment (field-independent basis, Debye):
    X=             -0.4806    Y=              2.0081    Z=             -0.6373  Tot=              2.1609

 Test job not archived.
 1\1\GINC-SE398\SP\RHF\Aug-CC-pVDZ\C10H15N2O4P1\OHZDE\08-Apr-2025\0\\#t
  hf aug-cc-pvdz iop(5/13=1,5/36=2,99/5=2) pseudo=read geom=check guess
 =(read,tcheck) scf=(maxcycle=1)\\title\\0,1\C,0,3.444472,-0.277049,1.5
 01464\C,0,2.09573,-0.546345,1.281766\C,0,4.289993,-0.00703,0.428084\C,
 0,3.785365,0.003699,-0.871834\C,0,2.437596,-0.251654,-1.100455\C,0,1.5
 98844,-0.528533,-0.020935\H,0,1.421846,-0.746174,2.104539\H,0,3.832662
 ,-0.281393,2.513394\H,0,5.340334,0.19652,0.602863\H,0,4.441045,0.21464
 9,-1.70871\H,0,2.031792,-0.238852,-2.103795\N,0,0.206924,-0.810176,-0.

 Normal termination of Gaussian 16 at Tue Apr  8 23:08:57 2025.
