 Gaussian 16, Revision C.01,

 ----------------------------------------------------------------------
 #t hf aug-cc-pvdz symm=none int=(grid=ultrafine) guess=(read,tcheck) s
 table=(opt,rrhf)
 ----------------------------------------------------------------------
 -----
 title
 -----
 Symbolic Z-matrix:
 Charge =  0 Multiplicity = 1

 SCF Done:  E(RHF) =  -1223.44430058     A.U. after   15 cycles
 Normal termination of Gaussian 16 at Tue Apr  8 23:11:25 2025.
 Gaussian 16:  ES64L-G16RevC.01  3-Jul-2019

 ----------------------------------------------------------------------
 #t hf aug-cc-pvdz iop(5/13=1,5/36=2,99/5=2) pseudo=read geom=check gue
 ss=(read,tcheck) scf=(maxcycle=1)
 ----------------------------------------------------------------------
 -----
 title
 -----
 Structure from the checkpoint file:  "BDE49_expt_762_mol1.chk"
 Charge =  0 Multiplicity = 1

                         Standard orientation:
 ---------------------------------------------------------------------
 Center     Atomic      Atomic             Coordinates (Angstroms)
 Number     Number       Type             X           Y           Z
 ---------------------------------------------------------------------
      1          6           0        0.000000    1.070907    0.000000
      2          6           0       -1.191478    0.348874    0.000000
      3          6           0       -1.221638   -1.037329    0.000000
      4          6           0        1.184908    0.345992    0.000000
      5          6           0        1.204769   -1.044385    0.000000
      6          6           0       -0.010117   -1.733196    0.000000
      7          1           0        2.148834   -1.575820    0.000000
      8          8           0       -0.080052   -3.091584    0.000000
      9          1           0        0.808325   -3.463323    0.000000
     10          1           0       -2.154390   -1.583457    0.000000
     11          1           0        0.002164    2.150688    0.000000
     12         17           0        2.709590    1.211905    0.000000
     13         17           0       -2.707424    1.229237    0.000000
 ---------------------------------------------------------------------

 SCF Done:  E(RHF) =  -1223.90070143     A.U. after    2 cycles

 The electronic state is 1-A'.
 Alpha  occ. eigenvalues -- -105.58636-105.58349 -20.60477 -11.34259 -11.33530
 Alpha  occ. eigenvalues --  -11.33345 -11.26912 -11.26681 -11.26331 -10.63428
 Alpha  occ. eigenvalues --  -10.63144  -7.80395  -7.80111  -7.79990  -7.79975
 Alpha  occ. eigenvalues --   -7.79705  -7.79691  -1.52030  -1.21033  -1.13742
 Alpha  occ. eigenvalues --   -1.08633  -1.01888  -1.00424  -0.87076  -0.84504
 Alpha  occ. eigenvalues --   -0.75535  -0.72721  -0.69884  -0.63097  -0.62015
 Alpha  occ. eigenvalues --   -0.61855  -0.60828  -0.56982  -0.56131  -0.53778
 Alpha  occ. eigenvalues --   -0.52426  -0.48458  -0.47223  -0.45990  -0.36285
 Alpha  occ. eigenvalues --   -0.34847
 Alpha virt. eigenvalues --    0.02706   0.04445   0.04622   0.05792   0.07551
 Alpha virt. eigenvalues --    0.08122   0.09096   0.09271   0.09956   0.10513
 Alpha virt. eigenvalues --    0.11995   0.12842   0.13765   0.14405   0.14522

 Mulliken charges:
               1
     1  C    0.381276
     2  C    0.277354
     3  C    0.107398
     4  C    0.007394
     5  C   -0.183793
     6  C    1.904568
     7  H   -0.246007
     8  O   -1.757918
     9  H    0.422124
    10  H   -0.151726
    11  H   -0.122928
    12  Cl  -0.322947
    13  Cl  -0.314795
 Sum of Mulliken charges =  -0.00000

 Dipole moment (field-independent basis, Debye):
    X=              1.3182    Y=             -1.8403    Z=              0.0000  Tot=              2.2637

 Test job not archived.
 1\1\GINC-SE460\SP\RHF\Aug-CC-pVDZ\C6H4Cl2O1\OHZDE\08-Apr-2025\0\\#t hf
  aug-cc-pvdz iop(5/13=1,5/36=2,99/5=2) pseudo=read geom=check guess=(r
 ead,tcheck) scf=(maxcycle=1)\\title\\0,1\C,0,0.,1.070907,0.\C,0,-1.191
 478,0.348874,0.\C,0,-1.221638,-1.037329,0.\C,0,1.184908,0.345992,0.\C,
 0,1.204769,-1.044385,0.\C,0,-0.010117,-1.733196,0.\H,0,2.148834,-1.575
 82,0.\O,0,-0.080052,-3.091584,0.\H,0,0.808325,-3.463323,0.\H,0,-2.1543
 9,-1.583457,0.\H,0,0.002164,2.150688,0.\Cl,0,2.70959,1.211905,0.\Cl,0,
 -2.707424,1.229237,0.\\Version=ES64L-G16RevC.01\State=1-A'\HF=-1223.90

 Normal termination of Gaussian 16 at Tue Apr  8 23:11:31 2025.
