 Gaussian 16, Revision C.01,

 ----------------------------------------------------------------------
 #t hf aug-cc-pvdz symm=none int=(grid=ultrafine) guess=(read,tcheck) s
 table=opt
 ----------------------------------------------------------------------
 -----
 title
 -----
 Symbolic Z-matrix:
 Charge =  0 Multiplicity = 2

 SCF Done:  E(UHF) =  -548.957578420     A.U. after   15 cycles
 Normal termination of Gaussian 16 at Tue Apr  8 22:50:44 2025.
 Gaussian 16:  ES64L-G16RevC.01  3-Jul-2019

 ----------------------------------------------------------------------
 #t hf aug-cc-pvdz iop(5/13=1,5/36=2,99/5=2) pseudo=read geom=check gue
 ss=(read,tcheck) scf=(maxcycle=1)
 ----------------------------------------------------------------------
 -----
 title
 -----
 Structure from the checkpoint file:  "BDE49_expt_173_mol2.chk"
 Charge =  0 Multiplicity = 2

                         Standard orientation:
 ---------------------------------------------------------------------
 Center     Atomic      Atomic             Coordinates (Angstroms)
 Number     Number       Type             X           Y           Z
 ---------------------------------------------------------------------
      1          6           0        0.996678   -0.049239   -0.193034
      2          8           0        0.046312   -0.252607    0.768440
      3          9           0        1.983267   -0.922031   -0.056494
      4          9           0        1.476289    1.193082   -0.200733
      5          6           0       -1.276728   -0.112789    0.387002
      6          9           0       -1.599231   -1.021427   -0.560085
      7          9           0       -1.505320    1.112101   -0.136824
      8          1           0       -1.885240   -0.262501    1.275885
 ---------------------------------------------------------------------

 SCF Done:  E(UHF) =  -549.460387523     A.U. after    2 cycles

 The electronic state is 2-A.
 Alpha  occ. eigenvalues --  -26.52522 -26.52167 -26.51455 -26.51450 -20.64578
 Alpha  occ. eigenvalues --  -11.51329 -11.51156  -1.72102  -1.69563  -1.63364
 Alpha  occ. eigenvalues --   -1.61768  -1.56295  -1.03808  -0.93076  -0.84809
 Alpha  occ. eigenvalues --   -0.84466  -0.82428  -0.78852  -0.78356  -0.73329
 Alpha  occ. eigenvalues --   -0.69293  -0.68139  -0.67160  -0.64627  -0.63767
 Alpha  occ. eigenvalues --   -0.63402  -0.59457  -0.56912  -0.45478
 Alpha virt. eigenvalues --    0.03402   0.07824   0.08360   0.08725   0.11038
 Alpha virt. eigenvalues --    0.11619   0.11888   0.15424   0.19191   0.20400
 Alpha virt. eigenvalues --    0.21583   0.26582   0.26923   0.27070   0.28440

  Beta  occ. eigenvalues --  -26.52096 -26.51682 -26.51458 -26.51444 -20.64257
  Beta  occ. eigenvalues --  -11.51287 -11.48234  -1.70929  -1.68902  -1.62155
  Beta  occ. eigenvalues --   -1.61718  -1.55284  -1.02341  -0.90337  -0.83821
  Beta  occ. eigenvalues --   -0.82579  -0.81211  -0.78180  -0.73980  -0.71277
  Beta  occ. eigenvalues --   -0.68077  -0.66754  -0.66057  -0.64205  -0.63680
  Beta  occ. eigenvalues --   -0.61209  -0.59188  -0.56522
  Beta virt. eigenvalues --    0.03339   0.06489   0.08385   0.08691   0.10276
  Beta virt. eigenvalues --    0.11144   0.11756   0.12392   0.16259   0.20313
  Beta virt. eigenvalues --    0.20513   0.21673   0.26753   0.27085   0.27285

 Mulliken charges and spin densities:
               1          2
     1  C    1.756951   0.941727
     2  O   -1.204767   0.016898
     3  F   -0.657777   0.023479
     4  F   -0.654322   0.033831
     5  C    2.032659  -0.010946
     6  F   -0.669465  -0.001182
     7  F   -0.653238  -0.001177
     8  H    0.049959  -0.002630
 Sum of Mulliken charges =  -0.00000   1.00000

 Dipole moment (field-independent basis, Debye):
    X=             -1.2841    Y=             -0.3476    Z=              1.0627  Tot=              1.7027
                          Isotropic Fermi Contact Couplings
        Atom                 a.u.       MegaHertz       Gauss      10(-4) cm-1
     1  C(13)              0.53873     605.63369     216.10516     202.01765
     2  O(17)              0.01178      -7.13851      -2.54720      -2.38115
     3  F(19)              0.07553     317.77411     113.38970     105.99803
     4  F(19)              0.08850     372.35815     132.86665     124.20531
     5  C(13)              0.01285      14.44927       5.15586       4.81976
     6  F(19)             -0.00162      -6.80445      -2.42800      -2.26972
     7  F(19)             -0.00079      -3.31492      -1.18285      -1.10574
     8  H(1)              -0.00052      -2.30350      -0.82195      -0.76837

 Normal termination of Gaussian 16 at Tue Apr  8 22:50:47 2025.
