 Gaussian 16, Revision C.01,

 ----------------------------------------------------------------------
 #t hf aug-cc-pvdz symm=none int=(grid=ultrafine) guess=(read,tcheck) s
 table=(opt,rrhf)
 ----------------------------------------------------------------------
 -----
 title
 -----
 Symbolic Z-matrix:
 Charge =  0 Multiplicity = 1

 SCF Done:  E(RHF) =  -405.218689060     A.U. after   11 cycles
 Normal termination of Gaussian 16 at Wed Apr  9 00:05:57 2025.
 Gaussian 16:  ES64L-G16RevC.01  3-Jul-2019

 ----------------------------------------------------------------------
 #t hf aug-cc-pvdz iop(5/13=1,5/36=2,99/5=2) pseudo=read geom=check gue
 ss=(read,tcheck) scf=(maxcycle=1)
 ----------------------------------------------------------------------
 -----
 title
 -----
 Structure from the checkpoint file:  "BDE49_nonexpt_2234_mol1.chk"
 Charge =  0 Multiplicity = 1

                         Standard orientation:
 ---------------------------------------------------------------------
 Center     Atomic      Atomic             Coordinates (Angstroms)
 Number     Number       Type             X           Y           Z
 ---------------------------------------------------------------------
      1          6           0        1.517180   -0.399189    0.000000
      2         14           0       -0.113723    0.500983   -0.000001
      3          1           0        1.613023   -1.032605   -0.885678
      4          1           0        1.613026   -1.032598    0.885684
      5          1           0        2.347125    0.313972   -0.000004
      6          8           0       -1.301135   -0.655126   -0.000002
      7          1           0       -2.218808   -0.375739    0.000025
      8          1           0       -0.228119    1.374676   -1.197243
      9          1           0       -0.228124    1.374674    1.197242
 ---------------------------------------------------------------------

 SCF Done:  E(RHF) =  -405.375593683     A.U. after    2 cycles

 The electronic state is 1-A.
 Alpha  occ. eigenvalues --  -69.54964 -20.54452 -11.21610  -6.21598  -3.97091
 Alpha  occ. eigenvalues --   -3.96939  -3.96914  -1.42984  -0.95466  -0.74749
 Alpha  occ. eigenvalues --   -0.65084  -0.57820  -0.55683  -0.53468  -0.52983
 Alpha  occ. eigenvalues --   -0.45749  -0.44503
 Alpha virt. eigenvalues --    0.03476   0.04217   0.04984   0.05317   0.07371
 Alpha virt. eigenvalues --    0.07710   0.08459   0.09749   0.10227   0.13880
 Alpha virt. eigenvalues --    0.16062   0.16384   0.16455   0.17590   0.18459

 Mulliken charges:
               1
     1  C   -0.630008
     2  Si   1.887633
     3  H    0.079215
     4  H    0.079216
     5  H    0.009802
     6  O   -1.346395
     7  H    0.424608
     8  H   -0.252037
     9  H   -0.252035
 Sum of Mulliken charges =  -0.00000

 Dipole moment (field-independent basis, Debye):
    X=             -0.3254    Y=              0.6273    Z=              0.0000  Tot=              0.7067

 Test job not archived.
 1\1\GINC-SE338\SP\RHF\Aug-CC-pVDZ\C1H6O1Si1\OHZDE\09-Apr-2025\0\\#t hf
  aug-cc-pvdz iop(5/13=1,5/36=2,99/5=2) pseudo=read geom=check guess=(r
 ead,tcheck) scf=(maxcycle=1)\\title\\0,1\C,0,1.51718,-0.399189,0.\Si,0
 ,-0.113723,0.500983,-0.000001\H,0,1.613023,-1.032605,-0.885678\H,0,1.6
 13026,-1.032598,0.885684\H,0,2.347125,0.313972,-0.000004\O,0,-1.301135
 ,-0.655126,-0.000002\H,0,-2.218808,-0.375739,0.000025\H,0,-0.228119,1.
 374676,-1.197243\H,0,-0.228124,1.374674,1.197242\\Version=ES64L-G16Rev
 C.01\State=1-A\HF=-405.3755937\RMSD=5.994e-03\Dipole=-0.1280269,0.2468

 Normal termination of Gaussian 16 at Wed Apr  9 00:05:59 2025.
