 Gaussian 16, Revision C.01,

 ----------------------------------------------------------------------
 #t hf aug-cc-pvdz symm=none int=(grid=ultrafine) guess=(read,tcheck) s
 table=(opt,rrhf)
 ----------------------------------------------------------------------
 -----
 title
 -----
 Symbolic Z-matrix:
 Charge =  0 Multiplicity = 1

 SCF Done:  E(RHF) =  -832.751567893     A.U. after   18 cycles
 Normal termination of Gaussian 16 at Tue Apr  8 23:16:34 2025.
 Gaussian 16:  ES64L-G16RevC.01  3-Jul-2019

 ----------------------------------------------------------------------
 #t hf aug-cc-pvdz iop(5/13=1,5/36=2,99/5=2) pseudo=read geom=check gue
 ss=(read,tcheck) scf=(maxcycle=1)
 ----------------------------------------------------------------------
 -----
 title
 -----
 Structure from the checkpoint file:  "BDE49_expt_850_mol1.chk"
 Charge =  0 Multiplicity = 1

                         Standard orientation:
 ---------------------------------------------------------------------
 Center     Atomic      Atomic             Coordinates (Angstroms)
 Number     Number       Type             X           Y           Z
 ---------------------------------------------------------------------
      1          6           0       -0.220544    1.338771   -0.177954
      2          6           0       -1.598946    1.204071   -0.227677
      3          6           0       -2.185149   -0.050783   -0.004511
      4          6           0       -1.375829   -1.161318    0.269965
      5          6           0        0.005055   -1.020706    0.300182
      6          6           0        0.594253    0.226006    0.067847
      7          1           0        0.246294    2.303570   -0.328881
      8          1           0       -2.227992    2.061137   -0.432383
      9          1           0       -1.833094   -2.123564    0.462081
     10          1           0        0.615932   -1.881188    0.540951
     11          6           0       -3.608022   -0.196688   -0.049327
     12          6           0        2.072957    0.477504    0.126786
     13          8           0        2.530893    1.555296    0.405090
     14         16           0        3.236030   -0.858239   -0.248975
     15          1           0        2.365452   -1.762788   -0.723816
     16          7           0       -4.756123   -0.315551   -0.086706
 ---------------------------------------------------------------------

 SCF Done:  E(RHF) =  -833.236738089     A.U. after    2 cycles

 The electronic state is 1-A.
 Alpha  occ. eigenvalues --  -93.99332 -20.57245 -15.53371 -11.40444 -11.32053
 Alpha  occ. eigenvalues --  -11.30282 -11.29982 -11.29819 -11.29709 -11.29577
 Alpha  occ. eigenvalues --  -11.29059  -8.27482  -6.25306  -6.25157  -6.24940
 Alpha  occ. eigenvalues --   -1.51492  -1.25347  -1.21131  -1.11112  -1.07355
 Alpha  occ. eigenvalues --   -1.06124  -0.94388  -0.89122  -0.81714  -0.80087
 Alpha  occ. eigenvalues --   -0.72624  -0.71109  -0.67621  -0.65164  -0.64954
 Alpha  occ. eigenvalues --   -0.63094  -0.60552  -0.59633  -0.57659  -0.56120
 Alpha  occ. eigenvalues --   -0.53827  -0.51849  -0.51687  -0.44305  -0.41275
 Alpha  occ. eigenvalues --   -0.39491  -0.39167
 Alpha virt. eigenvalues --    0.01259   0.02408   0.03297   0.04019   0.05138
 Alpha virt. eigenvalues --    0.05820   0.06517   0.07590   0.07979   0.09010
 Alpha virt. eigenvalues --    0.09433   0.09993   0.10573   0.11835   0.12114

 Mulliken charges:
               1
     1  C    0.044934
     2  C    0.187795
     3  C    2.514934
     4  C   -0.270630
     5  C    0.538205
     6  C    0.856298
     7  H   -0.294942
     8  H   -0.308262
     9  H   -0.309016
    10  H   -0.240897
    11  C   -3.196306
    12  C    0.450068
    13  O   -1.383409
    14  S   -0.011127
    15  H    0.334747
    16  N    1.087608
 Sum of Mulliken charges =  -0.00000

 Dipole moment (field-independent basis, Debye):
    X=              2.2224    Y=             -1.6971    Z=             -0.5711  Tot=              2.8540

 Test job not archived.
 1\1\GINC-SE212\SP\RHF\Aug-CC-pVDZ\C8H5N1O1S1\OHZDE\08-Apr-2025\0\\#t h
 f aug-cc-pvdz iop(5/13=1,5/36=2,99/5=2) pseudo=read geom=check guess=(
 read,tcheck) scf=(maxcycle=1)\\title\\0,1\C,0,-0.220544,1.338771,-0.17
 7954\C,0,-1.598946,1.204071,-0.227677\C,0,-2.185149,-0.050783,-0.00451
 1\C,0,-1.375829,-1.161318,0.269965\C,0,0.005055,-1.020706,0.300182\C,0
 ,0.594253,0.226006,0.067847\H,0,0.246294,2.30357,-0.328881\H,0,-2.2279
 92,2.061137,-0.432383\H,0,-1.833094,-2.123564,0.462081\H,0,0.615932,-1
 .881188,0.540951\C,0,-3.608022,-0.196688,-0.049327\C,0,2.072957,0.4775

 Normal termination of Gaussian 16 at Tue Apr  8 23:16:44 2025.
