 Gaussian 16, Revision C.01,

 ----------------------------------------------------------------------
 #t hf aug-cc-pvdz symm=none int=(grid=ultrafine) guess=(read,tcheck) s
 table=opt
 ----------------------------------------------------------------------
 -----
 title
 -----
 Symbolic Z-matrix:
 Charge =  0 Multiplicity = 2

 SCF Done:  E(UHF) =  -516.699544533     A.U. after   16 cycles
 Normal termination of Gaussian 16 at Wed Apr  9 00:00:02 2025.
 Gaussian 16:  ES64L-G16RevC.01  3-Jul-2019

 ----------------------------------------------------------------------
 #t hf aug-cc-pvdz iop(5/13=1,5/36=2,99/5=2) pseudo=read geom=check gue
 ss=(read,tcheck) scf=(maxcycle=1)
 ----------------------------------------------------------------------
 -----
 title
 -----
 Structure from the checkpoint file:  "BDE49_nonexpt_2087_mol2.chk"
 Charge =  0 Multiplicity = 2

                         Standard orientation:
 ---------------------------------------------------------------------
 Center     Atomic      Atomic             Coordinates (Angstroms)
 Number     Number       Type             X           Y           Z
 ---------------------------------------------------------------------
      1          7           0       -0.433017    1.352491    0.085396
      2          7           0       -0.433017   -1.352491    0.085396
      3          6           0        1.000682    1.278908   -0.211743
      4          6           0        1.617894    0.000000    0.362184
      5          6           0        1.000682   -1.278908   -0.211743
      6         14           0       -1.507624    0.000000   -0.091897
      7          1           0       -0.816699    2.279478   -0.033831
      8          1           0       -0.816699   -2.279478   -0.033831
      9          1           0        1.204661   -1.322371   -1.294145
     10          1           0        1.497369   -2.146101    0.236534
     11          1           0        1.488984    0.000000    1.448973
     12          1           0        2.692304    0.000000    0.150625
     13          1           0        1.497369    2.146101    0.236534
     14          1           0        1.204661    1.322371   -1.294146
     15          1           0       -2.498538    0.000000    1.042126
 ---------------------------------------------------------------------

 SCF Done:  E(UHF) =  -516.969113589     A.U. after    2 cycles

 The electronic state is 2-A.
 Alpha  occ. eigenvalues --  -69.54279 -15.47362 -15.47330 -11.26341 -11.26328
 Alpha  occ. eigenvalues --  -11.22947  -6.20924  -3.96636  -3.96070  -3.95923
 Alpha  occ. eigenvalues --   -1.19666  -1.15223  -1.02374  -0.89677  -0.81589
 Alpha  occ. eigenvalues --   -0.74542  -0.69013  -0.64973  -0.62951  -0.60811
 Alpha  occ. eigenvalues --   -0.59852  -0.54454  -0.52671  -0.50231  -0.47411
 Alpha  occ. eigenvalues --   -0.45125  -0.41924  -0.29613
 Alpha virt. eigenvalues --    0.03640   0.04130   0.04466   0.04697   0.05193
 Alpha virt. eigenvalues --    0.05717   0.06190   0.06738   0.07439   0.09124
 Alpha virt. eigenvalues --    0.09473   0.10804   0.13638   0.13965   0.14315

  Beta  occ. eigenvalues --  -69.53847 -15.46899 -15.46867 -11.26379 -11.26366
  Beta  occ. eigenvalues --  -11.22940  -6.20234  -3.95818  -3.95746  -3.94950
  Beta  occ. eigenvalues --   -1.18732  -1.14124  -1.01989  -0.89428  -0.81079
  Beta  occ. eigenvalues --   -0.73838  -0.67865  -0.64646  -0.62010  -0.59762
  Beta  occ. eigenvalues --   -0.59620  -0.53763  -0.51353  -0.47984  -0.47291
  Beta  occ. eigenvalues --   -0.42062  -0.39189
  Beta virt. eigenvalues --    0.03315   0.04154   0.04271   0.04688   0.05370
  Beta virt. eigenvalues --    0.05387   0.06119   0.06521   0.06744   0.09155
  Beta virt. eigenvalues --    0.09343   0.09587   0.11146   0.13860   0.14155

 Mulliken charges and spin densities:
               1          2
     1  N    0.279183   0.059622
     2  N    0.279182   0.059622
     3  C   -0.504026  -0.020165
     4  C   -0.481427  -0.012670
     5  C   -0.504023  -0.020166
     6  Si   0.302616   0.782988
     7  H   -0.005952  -0.011275
     8  H   -0.005952  -0.011275
     9  H    0.101335   0.002069
    10  H    0.057126   0.004647
    11  H    0.131270   0.000862
    12  H    0.177368  -0.002317
    13  H    0.057126   0.004647
    14  H    0.101337   0.002069
    15  H    0.014836   0.161342
 Sum of Mulliken charges =  -0.00000   1.00000

 Dipole moment (field-independent basis, Debye):
    X=              1.2800    Y=             -0.0000    Z=             -0.7366  Tot=              1.4768
                          Isotropic Fermi Contact Couplings
        Atom                 a.u.       MegaHertz       Gauss      10(-4) cm-1
     1  N(14)              0.05896      19.05182       6.79816       6.35500
     2  N(14)              0.05896      19.05182       6.79816       6.35500
     3  C(13)             -0.00622      -6.99538      -2.49612      -2.33341
     4  C(13)              0.00159       1.78602       0.63730       0.59575
     5  C(13)             -0.00622      -6.99537      -2.49612      -2.33341
     6  Si(29)             0.60915    -541.36623    -193.17293    -180.58034
     7  H(1)              -0.00224     -10.01387      -3.57320      -3.34027
     8  H(1)              -0.00224     -10.01388      -3.57320      -3.34027

 Normal termination of Gaussian 16 at Wed Apr  9 00:00:08 2025.
