 Gaussian 16, Revision C.01,

 ----------------------------------------------------------------------
 #t hf aug-cc-pvdz symm=none int=(grid=ultrafine) guess=(read,tcheck) s
 table=(opt,rrhf)
 ----------------------------------------------------------------------
 -----
 title
 -----
 Symbolic Z-matrix:
 Charge =  0 Multiplicity = 1

 SCF Done:  E(RHF) =  -286.090015213     A.U. after   13 cycles
 Normal termination of Gaussian 16 at Tue Apr  8 22:39:46 2025.
 Gaussian 16:  ES64L-G16RevC.01  3-Jul-2019

 ----------------------------------------------------------------------
 #t hf aug-cc-pvdz iop(5/13=1,5/36=2,99/5=2) pseudo=read geom=check gue
 ss=(read,tcheck) scf=(maxcycle=1)
 ----------------------------------------------------------------------
 -----
 title
 -----
 Structure from the checkpoint file:  "BDE49_expt_1296_mol1.chk"
 Charge =  0 Multiplicity = 1

                         Standard orientation:
 ---------------------------------------------------------------------
 Center     Atomic      Atomic             Coordinates (Angstroms)
 Number     Number       Type             X           Y           Z
 ---------------------------------------------------------------------
      1          6           0       -2.080914    0.305410    0.755215
      2          6           0       -1.509644   -0.260264   -0.547949
      3          1           0       -2.176322   -0.473066    1.519734
      4          1           0       -3.073764    0.733508    0.593708
      5          1           0       -1.439417    1.096365    1.150278
      6          6           0       -0.128110   -0.899641   -0.380934
      7          1           0       -1.427617    0.539889   -1.287650
      8          1           0       -2.194219   -1.010420   -0.957279
      9          6           0        0.975041    0.123792   -0.105918
     10          1           0        0.153581   -1.424855   -1.302002
     11          1           0       -0.143915   -1.655036    0.413558
     12          8           0        0.888428    1.294123   -0.427854
     13          7           0        2.085283   -0.378842    0.513513
     14          1           0        2.182285   -1.354950    0.734192
     15          1           0        2.876748    0.231687    0.641210
 ---------------------------------------------------------------------

 SCF Done:  E(RHF) =  -286.390933566     A.U. after    2 cycles

 The electronic state is 1-A.
 Alpha  occ. eigenvalues --  -20.50622 -15.52701 -11.35752 -11.24839 -11.23067
 Alpha  occ. eigenvalues --  -11.21947  -1.45542  -1.22004  -1.07257  -0.96231
 Alpha  occ. eigenvalues --   -0.85268  -0.79916  -0.74683  -0.68952  -0.64192
 Alpha  occ. eigenvalues --   -0.61946  -0.57551  -0.57356  -0.55243  -0.49363
 Alpha  occ. eigenvalues --   -0.49134  -0.48453  -0.43479  -0.41901
 Alpha virt. eigenvalues --    0.02602   0.03894   0.04304   0.04814   0.06153
 Alpha virt. eigenvalues --    0.06276   0.07352   0.07939   0.08577   0.11771
 Alpha virt. eigenvalues --    0.12328   0.13283   0.14363   0.14981   0.15213

 Mulliken charges:
               1
     1  C   -0.317705
     2  C   -0.256266
     3  H    0.148379
     4  H    0.119769
     5  H    0.166431
     6  C   -0.350782
     7  H    0.150185
     8  H    0.109242
     9  C    0.277033
    10  H    0.215455
    11  H    0.164589
    12  O   -1.285178
    13  N    0.750205
    14  H    0.029163
    15  H    0.079480
 Sum of Mulliken charges =  -0.00000

 Dipole moment (field-independent basis, Debye):
    X=              0.7187    Y=             -3.4404    Z=              0.8726  Tot=              3.6214

 Test job not archived.
 1\1\GINC-SE404\SP\RHF\Aug-CC-pVDZ\C4H9N1O1\OHZDE\08-Apr-2025\0\\#t hf
 aug-cc-pvdz iop(5/13=1,5/36=2,99/5=2) pseudo=read geom=check guess=(re
 ad,tcheck) scf=(maxcycle=1)\\title\\0,1\C,0,-2.080914,0.30541,0.755215
 \C,0,-1.509644,-0.260264,-0.547949\H,0,-2.176322,-0.473066,1.519734\H,
 0,-3.073764,0.733508,0.593708\H,0,-1.439417,1.096365,1.150278\C,0,-0.1
 2811,-0.899641,-0.380934\H,0,-1.427617,0.539889,-1.28765\H,0,-2.194219
 ,-1.01042,-0.957279\C,0,0.975041,0.123792,-0.105918\H,0,0.153581,-1.42
 4855,-1.302002\H,0,-0.143915,-1.655036,0.413558\O,0,0.888428,1.294123,

 Normal termination of Gaussian 16 at Tue Apr  8 22:39:50 2025.
