 Gaussian 16, Revision C.01,

 ----------------------------------------------------------------------
 #t hf aug-cc-pvdz symm=none int=(grid=ultrafine) guess=(read,tcheck) s
 table=(opt,rrhf)
 ----------------------------------------------------------------------
 -----
 title
 -----
 Symbolic Z-matrix:
 Charge =  0 Multiplicity = 1

 SCF Done:  E(RHF) =  -975.019232284     A.U. after   11 cycles
 Normal termination of Gaussian 16 at Tue Apr  8 22:58:39 2025.
 Gaussian 16:  ES64L-G16RevC.01  3-Jul-2019

 ----------------------------------------------------------------------
 #t hf aug-cc-pvdz iop(5/13=1,5/36=2,99/5=2) pseudo=read geom=check gue
 ss=(read,tcheck) scf=(maxcycle=1)
 ----------------------------------------------------------------------
 -----
 title
 -----
 Structure from the checkpoint file:  "BDE49_expt_1946_mol1.chk"
 Charge =  0 Multiplicity = 1

                         Standard orientation:
 ---------------------------------------------------------------------
 Center     Atomic      Atomic             Coordinates (Angstroms)
 Number     Number       Type             X           Y           Z
 ---------------------------------------------------------------------
      1         14           0       -0.381933    0.000006   -0.000003
      2         17           0        1.706775   -0.000029    0.000014
      3          8           0       -0.909799    1.532794   -0.037031
      4          8           0       -0.909849   -0.798433   -1.308909
      5          8           0       -0.909880   -0.734317    1.345911
      6          1           0       -0.610485    2.109364   -0.744171
      7          1           0       -0.610671   -1.699168   -1.454628
      8          1           0       -0.610732   -0.410142    2.198838
 ---------------------------------------------------------------------

 SCF Done:  E(RHF) =  -975.351546041     A.U. after    2 cycles

 The electronic state is 1-A.
 Alpha  occ. eigenvalues -- -105.56003 -69.65123 -20.56991 -20.56990 -20.56987
 Alpha  occ. eigenvalues --  -10.61052  -7.77927  -7.77640  -7.77640  -6.30813
 Alpha  occ. eigenvalues --   -4.06302  -4.06302  -4.06244  -1.48723  -1.45167
 Alpha  occ. eigenvalues --   -1.45167  -1.05414  -0.81047  -0.72745  -0.72745
 Alpha  occ. eigenvalues --   -0.64618  -0.58327  -0.58326  -0.54369  -0.54025
 Alpha  occ. eigenvalues --   -0.54025  -0.50786  -0.47303  -0.47303
 Alpha virt. eigenvalues --    0.03346   0.04967   0.04967   0.06284   0.07670
 Alpha virt. eigenvalues --    0.07670   0.10621   0.13843   0.15328   0.15328
 Alpha virt. eigenvalues --    0.19425   0.19457   0.19457   0.22473   0.22473

 Mulliken charges:
               1
     1  Si   3.501029
     2  Cl  -0.563439
     3  O   -1.358964
     4  O   -1.358977
     5  O   -1.358969
     6  H    0.379776
     7  H    0.379770
     8  H    0.379774
 Sum of Mulliken charges =  -0.00000

 Dipole moment (field-independent basis, Debye):
    X=              0.3431    Y=              0.0000    Z=              0.0001  Tot=              0.3431

 Test job not archived.
 1\1\GINC-SE338\SP\RHF\Aug-CC-pVDZ\Cl1H3O3Si1\OHZDE\08-Apr-2025\0\\#t h
 f aug-cc-pvdz iop(5/13=1,5/36=2,99/5=2) pseudo=read geom=check guess=(
 read,tcheck) scf=(maxcycle=1)\\title\\0,1\Si,0,0.381933,-0.000006,-0.0
 00003\Cl,0,-1.706775,0.000028,0.000014\O,0,0.909799,-1.532344,-0.05242
 2\O,0,0.909849,0.811537,-1.300825\O,0,0.909879,0.720765,1.353217\H,0,0
 .610486,-2.101784,-0.765316\H,0,0.61067,1.71369,-1.437491\H,0,0.610731
 ,0.388041,2.202846\\Version=ES64L-G16RevC.01\State=1-A\HF=-975.351546\
 RMSD=5.344e-03\Dipole=-0.1350005,-0.0000089,0.0000512\Quadrupole=-5.48

 Normal termination of Gaussian 16 at Tue Apr  8 22:58:42 2025.
