 Gaussian 16, Revision C.01,

 ----------------------------------------------------------------------
 #t hf aug-cc-pvdz symm=none int=(grid=ultrafine) guess=(read,tcheck) s
 table=(opt,rrhf)
 ----------------------------------------------------------------------
 -----
 title
 -----
 Symbolic Z-matrix:
 Charge =  0 Multiplicity = 1

 SCF Done:  E(RHF) =  -886.573532743     A.U. after   14 cycles
 Normal termination of Gaussian 16 at Wed Apr  9 00:20:56 2025.
 Gaussian 16:  ES64L-G16RevC.01  3-Jul-2019

 ----------------------------------------------------------------------
 #t hf aug-cc-pvdz iop(5/13=1,5/36=2,99/5=2) pseudo=read geom=check gue
 ss=(read,tcheck) scf=(maxcycle=1)
 ----------------------------------------------------------------------
 -----
 title
 -----
 Structure from the checkpoint file:  "BDE49_nonexpt_2626_mol1.chk"
 Charge =  0 Multiplicity = 1

                         Standard orientation:
 ---------------------------------------------------------------------
 Center     Atomic      Atomic             Coordinates (Angstroms)
 Number     Number       Type             X           Y           Z
 ---------------------------------------------------------------------
      1          9           0       -1.685642    0.919296    0.257201
      2         16           0       -1.065919   -0.536798   -0.314417
      3         14           0        0.948240   -0.310181    0.383941
      4          9           0        1.836518    0.676706   -0.517902
      5          1           0        0.928304    0.241605    1.745737
      6          1           0        1.493166   -1.674328    0.256068
 ---------------------------------------------------------------------

 SCF Done:  E(RHF) =  -886.845517946     A.U. after    2 cycles

 The electronic state is 1-A.
 Alpha  occ. eigenvalues --  -94.04038 -69.62864 -26.48304 -26.47239  -8.31582
 Alpha  occ. eigenvalues --   -6.29360  -6.29293  -6.29043  -6.28811  -4.04690
 Alpha  occ. eigenvalues --   -4.04575  -4.04458  -1.58435  -1.57794  -1.01084
 Alpha  occ. eigenvalues --   -0.79033  -0.68427  -0.67136  -0.67007  -0.65522
 Alpha  occ. eigenvalues --   -0.64868  -0.61250  -0.52453  -0.47494  -0.41468
 Alpha virt. eigenvalues --    0.03810   0.04292   0.05119   0.05305   0.06391
 Alpha virt. eigenvalues --    0.09131   0.10077   0.12826   0.13607   0.14567
 Alpha virt. eigenvalues --    0.15390   0.16219   0.19895   0.22911   0.23474

 Mulliken charges:
               1
     1  F   -0.628196
     2  S    0.086189
     3  Si   1.788748
     4  F   -0.827532
     5  H   -0.194656
     6  H   -0.224554
 Sum of Mulliken charges =  -0.00000

 Dipole moment (field-independent basis, Debye):
    X=              1.0778    Y=             -1.6818    Z=              0.8710  Tot=              2.1792

 Test job not archived.
 1\1\GINC-SE143\SP\RHF\Aug-CC-pVDZ\F2H2S1Si1\OHZDE\09-Apr-2025\0\\#t hf
  aug-cc-pvdz iop(5/13=1,5/36=2,99/5=2) pseudo=read geom=check guess=(r
 ead,tcheck) scf=(maxcycle=1)\\title\\0,1\F,0,-1.685642,0.919296,0.2572
 01\S,0,-1.065919,-0.536798,-0.314417\Si,0,0.94824,-0.310181,0.383941\F
 ,0,1.836518,0.676706,-0.517902\H,0,0.928304,0.241605,1.745737\H,0,1.49
 3166,-1.674328,0.256068\\Version=ES64L-G16RevC.01\State=1-A\HF=-886.84
 55179\RMSD=3.446e-03\Dipole=0.4240331,-0.6616839,0.3426949\Quadrupole=
 -1.1750172,0.4893029,0.6857142,-0.776914,1.8045787,0.5202943\PG=C01 [X

 Normal termination of Gaussian 16 at Wed Apr  9 00:20:58 2025.
