 Gaussian 16, Revision C.01,

 ----------------------------------------------------------------------
 #t hf aug-cc-pvdz symm=none int=(grid=ultrafine) guess=(read,tcheck) s
 table=opt
 ----------------------------------------------------------------------
 -----
 title
 -----
 Symbolic Z-matrix:
 Charge =  0 Multiplicity = 2

 SCF Done:  E(UHF) =  -202.789556737     A.U. after   14 cycles
 Normal termination of Gaussian 16 at Wed Apr  9 00:32:16 2025.
 Gaussian 16:  ES64L-G16RevC.01  3-Jul-2019

 ----------------------------------------------------------------------
 #t hf aug-cc-pvdz iop(5/13=1,5/36=2,99/5=2) pseudo=read geom=check gue
 ss=(read,tcheck) scf=(maxcycle=1)
 ----------------------------------------------------------------------
 -----
 title
 -----
 Structure from the checkpoint file:  "BDE49_nonexpt_370_mol2.chk"
 Charge =  0 Multiplicity = 2

                         Standard orientation:
 ---------------------------------------------------------------------
 Center     Atomic      Atomic             Coordinates (Angstroms)
 Number     Number       Type             X           Y           Z
 ---------------------------------------------------------------------
      1          9           0        1.988394   -0.019690   -0.000001
      2          5           0        0.751754   -0.479357   -0.000001
      3          6           0       -0.495980    0.463668   -0.000001
      4          6           0       -1.872187   -0.214012    0.000002
      5          1           0       -0.384387    1.126551    0.872290
      6          1           0       -1.998241   -0.849572   -0.879955
      7          1           0       -2.680065    0.522103    0.000001
      8          1           0       -1.998239   -0.849569    0.879961
      9          1           0       -0.384389    1.126548   -0.872294
 ---------------------------------------------------------------------

 SCF Done:  E(UHF) =  -202.989812543     A.U. after    2 cycles

 The electronic state is 2-A.
 Alpha  occ. eigenvalues --  -26.47666 -11.23519 -11.23143  -7.67490  -1.60790
 Alpha  occ. eigenvalues --   -1.04108  -0.87464  -0.76793  -0.68227  -0.66190
 Alpha  occ. eigenvalues --   -0.62660  -0.61363  -0.53321  -0.51424  -0.50738
 Alpha  occ. eigenvalues --   -0.34382
 Alpha virt. eigenvalues --    0.03724   0.03926   0.04161   0.04759   0.06810
 Alpha virt. eigenvalues --    0.07004   0.07525   0.07770   0.12230   0.12645
 Alpha virt. eigenvalues --    0.13730   0.15004   0.15802   0.16685   0.17137

  Beta  occ. eigenvalues --  -26.47337 -11.23517 -11.22822  -7.65661  -1.59875
  Beta  occ. eigenvalues --   -1.03463  -0.86641  -0.75292  -0.66098  -0.65410
  Beta  occ. eigenvalues --   -0.61319  -0.60800  -0.52940  -0.50664  -0.49212
  Beta virt. eigenvalues --    0.03093   0.04106   0.04160   0.04554   0.06681
  Beta virt. eigenvalues --    0.07449   0.07489   0.07685   0.09788   0.12965
  Beta virt. eigenvalues --    0.14690   0.14994   0.15365   0.16773   0.17162

 Mulliken charges and spin densities:
               1          2
     1  F   -0.561855  -0.033048
     2  B    0.650291   1.022387
     3  C   -0.222453   0.066882
     4  C   -0.406033  -0.043662
     5  H    0.052967  -0.000008
     6  H    0.142789  -0.002899
     7  H    0.148540  -0.006747
     8  H    0.142788  -0.002899
     9  H    0.052966  -0.000008
 Sum of Mulliken charges =  -0.00000   1.00000

 Dipole moment (field-independent basis, Debye):
    X=             -1.2570    Y=              0.6813    Z=             -0.0000  Tot=              1.4297
                          Isotropic Fermi Contact Couplings
        Atom                 a.u.       MegaHertz       Gauss      10(-4) cm-1
     1  F(19)              0.07645     321.66963     114.77972     107.29744
     2  B(11)              0.30154     432.51357     154.33160     144.27100
     3  C(13)              0.07344      82.55600      29.45803      27.53772
     4  C(13)              0.00468       5.25703       1.87584       1.75356
     5  H(1)               0.00063       2.81498       1.00445       0.93897
     6  H(1)              -0.00010      -0.46887      -0.16730      -0.15640
     7  H(1)              -0.00056      -2.51813      -0.89853      -0.83996
     8  H(1)              -0.00010      -0.46887      -0.16730      -0.15640

 Normal termination of Gaussian 16 at Wed Apr  9 00:32:19 2025.
