 Gaussian 16, Revision C.01,

 ----------------------------------------------------------------------
 #t hf aug-cc-pvdz symm=none int=(grid=ultrafine) guess=(read,tcheck) s
 table=(opt,rrhf)
 ----------------------------------------------------------------------
 -----
 title
 -----
 Symbolic Z-matrix:
 Charge =  0 Multiplicity = 1

 SCF Done:  E(RHF) =  -766.919726154     A.U. after   12 cycles
 Normal termination of Gaussian 16 at Wed Apr  9 00:14:38 2025.
 Gaussian 16:  ES64L-G16RevC.01  3-Jul-2019

 ----------------------------------------------------------------------
 #t hf aug-cc-pvdz iop(5/13=1,5/36=2,99/5=2) pseudo=read geom=check gue
 ss=(read,tcheck) scf=(maxcycle=1)
 ----------------------------------------------------------------------
 -----
 title
 -----
 Structure from the checkpoint file:  "BDE49_nonexpt_2474_mol1.chk"
 Charge =  0 Multiplicity = 1

                         Standard orientation:
 ---------------------------------------------------------------------
 Center     Atomic      Atomic             Coordinates (Angstroms)
 Number     Number       Type             X           Y           Z
 ---------------------------------------------------------------------
      1         16           0        1.691050    0.034062   -0.158677
      2         14           0       -0.411281   -0.010167    0.411727
      3          6           0       -1.139060    1.592612   -0.231587
      4          1           0        2.015415   -1.120423    0.450441
      5          1           0       -1.054385    1.656690   -1.319921
      6          1           0       -0.633528    2.458872    0.202079
      7          6           0       -1.282255   -1.513161   -0.295296
      8          1           0       -2.335846   -1.517163    0.003670
      9          1           0       -0.829518   -2.440193    0.066675
     10          1           0       -1.234389   -1.517644   -1.387367
     11          1           0       -2.200089    1.656166    0.028322
     12          1           0       -0.498635   -0.055665    1.892048
 ---------------------------------------------------------------------

 SCF Done:  E(RHF) =  -767.107957952     A.U. after    2 cycles

 The electronic state is 1-A.
 Alpha  occ. eigenvalues --  -93.93595 -69.54848 -11.22338 -11.22318  -8.21865
 Alpha  occ. eigenvalues --   -6.21648  -6.19693  -6.19572  -6.19362  -3.97041
 Alpha  occ. eigenvalues --   -3.96940  -3.96917  -1.00808  -0.96037  -0.94102
 Alpha  occ. eigenvalues --   -0.68163  -0.59137  -0.58102  -0.56571  -0.56029
 Alpha  occ. eigenvalues --   -0.53449  -0.47491  -0.46057  -0.43835  -0.37290
 Alpha virt. eigenvalues --    0.03284   0.04045   0.04577   0.04638   0.06789
 Alpha virt. eigenvalues --    0.06921   0.07175   0.07513   0.09409   0.09887
 Alpha virt. eigenvalues --    0.10540   0.12827   0.13793   0.14911   0.15921

 Mulliken charges:
               1
     1  S   -0.946808
     2  Si   1.949216
     3  C   -0.589402
     4  H    0.260249
     5  H    0.100917
     6  H   -0.017182
     7  C   -0.587686
     8  H    0.029502
     9  H   -0.018403
    10  H    0.080411
    11  H   -0.002412
    12  H   -0.258402
 Sum of Mulliken charges =  -0.00000

 Dipole moment (field-independent basis, Debye):
    X=             -1.6766    Y=             -0.6984    Z=              0.2497  Tot=              1.8334

 Test job not archived.
 1\1\GINC-SE094\SP\RHF\Aug-CC-pVDZ\C2H8S1Si1\OHZDE\09-Apr-2025\0\\#t hf
  aug-cc-pvdz iop(5/13=1,5/36=2,99/5=2) pseudo=read geom=check guess=(r
 ead,tcheck) scf=(maxcycle=1)\\title\\0,1\S,0,1.69105,0.034062,-0.15867
 7\Si,0,-0.411281,-0.010167,0.411727\C,0,-1.13906,1.592612,-0.231587\H,
 0,2.015415,-1.120423,0.450441\H,0,-1.054385,1.65669,-1.319921\H,0,-0.6
 33528,2.458872,0.202079\C,0,-1.282255,-1.513161,-0.295296\H,0,-2.33584
 6,-1.517163,0.00367\H,0,-0.829518,-2.440193,0.066675\H,0,-1.234389,-1.
 517644,-1.387367\H,0,-2.200089,1.656166,0.028322\H,0,-0.498635,-0.0556

 Normal termination of Gaussian 16 at Wed Apr  9 00:14:41 2025.
