 Gaussian 16, Revision C.01,

 ----------------------------------------------------------------------
 #t hf aug-cc-pvdz symm=none int=(grid=ultrafine) guess=(read,tcheck) s
 table=(opt,rrhf)
 ----------------------------------------------------------------------
 -----
 title
 -----
 Symbolic Z-matrix:
 Charge =  0 Multiplicity = 1

 SCF Done:  E(RHF) =  -688.247755451     A.U. after   12 cycles
 Normal termination of Gaussian 16 at Wed Apr  9 00:47:00 2025.
 Gaussian 16:  ES64L-G16RevC.01  3-Jul-2019

 ----------------------------------------------------------------------
 #t hf aug-cc-pvdz iop(5/13=1,5/36=2,99/5=2) pseudo=read geom=check gue
 ss=(read,tcheck) scf=(maxcycle=1)
 ----------------------------------------------------------------------
 -----
 title
 -----
 Structure from the checkpoint file:  "BDE49_nonexpt_844_mol1.chk"
 Charge =  0 Multiplicity = 1

                         Standard orientation:
 ---------------------------------------------------------------------
 Center     Atomic      Atomic             Coordinates (Angstroms)
 Number     Number       Type             X           Y           Z
 ---------------------------------------------------------------------
      1         14           0        0.409553   -0.025996    0.000002
      2          5           0       -1.493736   -0.695380    0.000006
      3          9           0        1.203609   -0.555064    1.277467
      4          9           0        0.551665    1.558818   -0.000019
      5          9           0        1.203617   -0.555099   -1.277444
      6          8           0       -2.473988    0.226444   -0.000010
      7          1           0       -3.364914   -0.142682   -0.000011
      8          1           0       -1.738271   -1.865919    0.000012
 ---------------------------------------------------------------------

 SCF Done:  E(RHF) =  -688.648597299     A.U. after    2 cycles

 The electronic state is 1-A.
 Alpha  occ. eigenvalues --  -69.65688 -26.47080 -26.47079 -26.46926 -20.60469
 Alpha  occ. eigenvalues --   -7.65920  -6.31682  -4.06963  -4.06961  -4.06651
 Alpha  occ. eigenvalues --   -1.60774  -1.57462  -1.57363  -1.50374  -0.83089
 Alpha  occ. eigenvalues --   -0.78931  -0.71903  -0.71813  -0.70040  -0.68317
 Alpha  occ. eigenvalues --   -0.65807  -0.65731  -0.62951  -0.62754  -0.61256
 Alpha  occ. eigenvalues --   -0.58252  -0.56952  -0.46275
 Alpha virt. eigenvalues --    0.02569   0.03583   0.04925   0.05427   0.07852
 Alpha virt. eigenvalues --    0.07900   0.07900   0.09156   0.10560   0.10774
 Alpha virt. eigenvalues --    0.15060   0.17279   0.19634   0.20496   0.21509

 Mulliken charges:
               1
     1  Si   2.857598
     2  B    0.104870
     3  F   -0.862559
     4  F   -0.872420
     5  F   -0.862558
     6  O   -0.923957
     7  H    0.496555
     8  H    0.062471
 Sum of Mulliken charges =  -0.00000

 Dipole moment (field-independent basis, Debye):
    X=             -3.7339    Y=             -1.4888    Z=              0.0000  Tot=              4.0198

 Test job not archived.
 1\1\GINC-SE461\SP\RHF\Aug-CC-pVDZ\B1F3H2O1Si1\OHZDE\09-Apr-2025\0\\#t
 hf aug-cc-pvdz iop(5/13=1,5/36=2,99/5=2) pseudo=read geom=check guess=
 (read,tcheck) scf=(maxcycle=1)\\title\\0,1\Si,0,0.409553,-0.025996,0.0
 00002\B,0,-1.493736,-0.69538,0.000006\F,0,1.203609,-0.555064,1.277467\
 F,0,0.551665,1.558818,-0.000019\F,0,1.203617,-0.555099,-1.277444\O,0,-
 2.473988,0.226444,-0.00001\H,0,-3.364914,-0.142681,-0.000011\H,0,-1.73
 8271,-1.865919,0.000012\\Version=ES64L-G16RevC.01\State=1-A\HF=-688.64
 85973\RMSD=6.221e-03\Dipole=-1.469037,-0.5857268,0.0000033\Quadrupole=

 Normal termination of Gaussian 16 at Wed Apr  9 00:47:03 2025.
