 Gaussian 16, Revision C.01,

 ----------------------------------------------------------------------
 #t hf aug-cc-pvdz symm=none int=(grid=ultrafine) guess=(read,tcheck) s
 table=(opt,rrhf)
 ----------------------------------------------------------------------
 -----
 title
 -----
 Symbolic Z-matrix:
 Charge =  0 Multiplicity = 1

 SCF Done:  E(RHF) =  -611.282964518     A.U. after   18 cycles
 Normal termination of Gaussian 16 at Tue Apr  8 23:19:52 2025.
 Gaussian 16:  ES64L-G16RevC.01  3-Jul-2019

 ----------------------------------------------------------------------
 #t hf aug-cc-pvdz iop(5/13=1,5/36=2,99/5=2) pseudo=read geom=check gue
 ss=(read,tcheck) scf=(maxcycle=1)
 ----------------------------------------------------------------------
 -----
 title
 -----
 Structure from the checkpoint file:  "BDE49_nonexpt_1100_mol1.chk"
 Charge =  0 Multiplicity = 1

                         Standard orientation:
 ---------------------------------------------------------------------
 Center     Atomic      Atomic             Coordinates (Angstroms)
 Number     Number       Type             X           Y           Z
 ---------------------------------------------------------------------
      1          9           0        1.796337    0.586651   -0.251094
      2         16           0       -0.501190   -0.646252   -0.230322
      3          8           0        0.780363   -0.378547    0.609140
      4          6           0       -1.531086    0.806907    0.102464
      5          1           0       -2.487373    0.640275   -0.399069
      6          1           0       -1.038325    1.683162   -0.319246
      7          1           0       -1.678680    0.923678    1.175405
 ---------------------------------------------------------------------

 SCF Done:  E(RHF) =  -611.547813658     A.U. after    2 cycles

 The electronic state is 1-A.
 Alpha  occ. eigenvalues --  -94.05143 -26.45137 -20.71919 -11.29640  -8.32790
 Alpha  occ. eigenvalues --   -6.30677  -6.30292  -6.30151  -1.58392  -1.42397
 Alpha  occ. eigenvalues --   -1.07321  -0.89865  -0.68698  -0.68130  -0.65644
 Alpha  occ. eigenvalues --   -0.60872  -0.60717  -0.56776  -0.55838  -0.47858
 Alpha  occ. eigenvalues --   -0.39638
 Alpha virt. eigenvalues --    0.02887   0.03609   0.04819   0.05701   0.07180
 Alpha virt. eigenvalues --    0.09919   0.11689   0.13038   0.14327   0.14647
 Alpha virt. eigenvalues --    0.15944   0.19903   0.22084   0.22360   0.22739

 Mulliken charges:
               1
     1  F   -0.368523
     2  S    1.136586
     3  O   -0.608260
     4  C   -0.796896
     5  H    0.211810
     6  H    0.229874
     7  H    0.195410
 Sum of Mulliken charges =  -0.00000

 Dipole moment (field-independent basis, Debye):
    X=             -3.9400    Y=              0.3291    Z=              0.1710  Tot=              3.9575

 Test job not archived.
 1\1\GINC-SE084\SP\RHF\Aug-CC-pVDZ\C1H3F1O1S1\OHZDE\08-Apr-2025\0\\#t h
 f aug-cc-pvdz iop(5/13=1,5/36=2,99/5=2) pseudo=read geom=check guess=(
 read,tcheck) scf=(maxcycle=1)\\title\\0,1\F,0,1.796337,0.586651,-0.251
 094\S,0,-0.50119,-0.646252,-0.230322\O,0,0.780363,-0.378547,0.60914\C,
 0,-1.531086,0.806907,0.102464\H,0,-2.487373,0.640275,-0.399069\H,0,-1.
 038325,1.683162,-0.319246\H,0,-1.67868,0.923678,1.175405\\Version=ES64
 L-G16RevC.01\State=1-A\HF=-611.5478137\RMSD=4.958e-03\Dipole=-1.550133
 4,0.1294807,0.067284\Quadrupole=-0.308311,0.4214406,-0.1131295,-2.0084

 Normal termination of Gaussian 16 at Tue Apr  8 23:19:56 2025.
