 Gaussian 16, Revision C.01,

 ----------------------------------------------------------------------
 #t hf aug-cc-pvdz symm=none int=(grid=ultrafine) guess=(read,tcheck) s
 table=(opt,rrhf)
 ----------------------------------------------------------------------
 -----
 title
 -----
 Symbolic Z-matrix:
 Charge =  0 Multiplicity = 1

 SCF Done:  E(RHF) =  -285.770639260     A.U. after   15 cycles
 Normal termination of Gaussian 16 at Tue Apr  8 23:07:08 2025.
 Gaussian 16:  ES64L-G16RevC.01  3-Jul-2019

 ----------------------------------------------------------------------
 #t hf aug-cc-pvdz iop(5/13=1,5/36=2,99/5=2) pseudo=read geom=check gue
 ss=(read,tcheck) scf=(maxcycle=1)
 ----------------------------------------------------------------------
 -----
 title
 -----
 Structure from the checkpoint file:  "BDE49_expt_456_mol1.chk"
 Charge =  0 Multiplicity = 1

                         Standard orientation:
 ---------------------------------------------------------------------
 Center     Atomic      Atomic             Coordinates (Angstroms)
 Number     Number       Type             X           Y           Z
 ---------------------------------------------------------------------
      1          6           0       -1.170049   -1.200112    0.003312
      2          6           0        0.220258   -1.205810   -0.004393
      3          6           0        0.938401   -0.000000   -0.007498
      4          6           0       -1.878917    0.000000    0.007314
      5          6           0       -1.170049    1.200112    0.003312
      6          6           0        0.220258    1.205810   -0.004392
      7          1           0       -1.703062   -2.144836    0.007240
      8          1           0        0.759673   -2.147964   -0.012718
      9          1           0        0.759673    2.147964   -0.012716
     10          1           0       -2.962227    0.000000    0.013990
     11          1           0       -1.703062    2.144836    0.007240
     12          7           0        2.333050   -0.000000   -0.076073
     13          1           0        2.779119    0.836097    0.271767
     14          1           0        2.779119   -0.836094    0.271777
 ---------------------------------------------------------------------

 SCF Done:  E(RHF) =  -286.069417712     A.U. after    2 cycles

 The electronic state is 1-A.
 Alpha  occ. eigenvalues --  -15.50926 -11.28367 -11.24241 -11.24227 -11.23078
 Alpha  occ. eigenvalues --  -11.23078 -11.22631  -1.22419  -1.12870  -1.01359
 Alpha  occ. eigenvalues --   -0.99017  -0.84147  -0.82802  -0.72828  -0.71676
 Alpha  occ. eigenvalues --   -0.67237  -0.61472  -0.61379  -0.59332  -0.55624
 Alpha  occ. eigenvalues --   -0.52157  -0.49907  -0.47129  -0.34522  -0.31022
 Alpha virt. eigenvalues --    0.03057   0.03932   0.04044   0.05234   0.05259
 Alpha virt. eigenvalues --    0.07708   0.08716   0.10420   0.11073   0.11682
 Alpha virt. eigenvalues --    0.12860   0.13155   0.13720   0.14418   0.14725

 Mulliken charges:
               1
     1  C    0.383189
     2  C    0.485976
     3  C   -1.167561
     4  C   -0.066417
     5  C    0.383186
     6  C    0.485969
     7  H   -0.228960
     8  H   -0.282796
     9  H   -0.282797
    10  H   -0.218445
    11  H   -0.228960
    12  N    0.718325
    13  H    0.009644
    14  H    0.009648
 Sum of Mulliken charges =   0.00000

 Dipole moment (field-independent basis, Debye):
    X=              0.8921    Y=              0.0000    Z=              1.0285  Tot=              1.3615

 Test job not archived.
 1\1\GINC-SE458\SP\RHF\Aug-CC-pVDZ\C6H7N1\OHZDE\08-Apr-2025\0\\#t hf au
 g-cc-pvdz iop(5/13=1,5/36=2,99/5=2) pseudo=read geom=check guess=(read
 ,tcheck) scf=(maxcycle=1)\\title\\0,1\C,0,-1.170049,-1.200112,0.003312
 \C,0,0.220258,-1.20581,-0.004393\C,0,0.938401,0.,-0.007498\C,0,-1.8789
 17,0.,0.007314\C,0,-1.170049,1.200112,0.003312\C,0,0.220258,1.20581,-0
 .004392\H,0,-1.703062,-2.144836,0.00724\H,0,0.759673,-2.147964,-0.0127
 18\H,0,0.759673,2.147964,-0.012716\H,0,-2.962227,0.,0.01399\H,0,-1.703
 062,2.144836,0.00724\N,0,2.33305,0.,-0.076073\H,0,2.779119,0.836097,0.

 Normal termination of Gaussian 16 at Tue Apr  8 23:07:13 2025.
