 Gaussian 16, Revision C.01,

 ----------------------------------------------------------------------
 #t hf aug-cc-pvdz symm=none int=(grid=ultrafine) guess=(read,tcheck) s
 table=(opt,rrhf)
 ----------------------------------------------------------------------
 -----
 title
 -----
 Symbolic Z-matrix:
 Charge =  0 Multiplicity = 1

 SCF Done:  E(RHF) =  -1046.70361683     A.U. after   16 cycles
 Normal termination of Gaussian 16 at Tue Apr  8 23:20:57 2025.
 Gaussian 16:  ES64L-G16RevC.01  3-Jul-2019

 ----------------------------------------------------------------------
 #t hf aug-cc-pvdz iop(5/13=1,5/36=2,99/5=2) pseudo=read geom=check gue
 ss=(read,tcheck) scf=(maxcycle=1)
 ----------------------------------------------------------------------
 -----
 title
 -----
 Structure from the checkpoint file:  "BDE49_nonexpt_1149_mol1.chk"
 Charge =  0 Multiplicity = 1

                         Standard orientation:
 ---------------------------------------------------------------------
 Center     Atomic      Atomic             Coordinates (Angstroms)
 Number     Number       Type             X           Y           Z
 ---------------------------------------------------------------------
      1          9           0        2.211679   -0.973652    0.000161
      2          8           0        1.599863    0.427245    0.000059
      3          6           0        0.268416    0.355856   -0.000205
      4         16           0       -0.390693    1.857149    0.000083
      5         16           0       -0.447071   -1.228160   -0.000140
      6          6           0       -2.208189   -0.781433    0.000016
      7          1           0       -2.737965   -1.735052    0.000059
      8          1           0       -2.461663   -0.215198   -0.894354
      9          1           0       -2.461512   -0.215204    0.894432
 ---------------------------------------------------------------------

 SCF Done:  E(RHF) =  -1047.06054250     A.U. after    2 cycles

 The electronic state is 1-A.
 Alpha  occ. eigenvalues --  -94.01502 -93.94850 -26.53302 -20.74793 -11.44079
 Alpha  occ. eigenvalues --  -11.29883  -8.29614  -8.23146  -6.27422  -6.27209
 Alpha  occ. eigenvalues --   -6.27023  -6.20997  -6.20668  -6.20557  -1.67106
 Alpha  occ. eigenvalues --   -1.46055  -1.15360  -1.05560  -0.95751  -0.82312
 Alpha  occ. eigenvalues --   -0.73068  -0.71252  -0.68855  -0.63481  -0.62671
 Alpha  occ. eigenvalues --   -0.61090  -0.59964  -0.56509  -0.50375  -0.45540
 Alpha  occ. eigenvalues --   -0.37930  -0.37828
 Alpha virt. eigenvalues --    0.02924   0.04234   0.04646   0.05766   0.06207
 Alpha virt. eigenvalues --    0.07735   0.08802   0.09959   0.12445   0.12703
 Alpha virt. eigenvalues --    0.12764   0.13218   0.14972   0.15348   0.16956

 Mulliken charges:
               1
     1  F   -0.290470
     2  O   -0.564760
     3  C    0.080518
     4  S    0.162492
     5  S    0.733078
     6  C   -0.757395
     7  H    0.128330
     8  H    0.254095
     9  H    0.254113
 Sum of Mulliken charges =  -0.00000

 Dipole moment (field-independent basis, Debye):
    X=             -2.8460    Y=             -1.9573    Z=             -0.0001  Tot=              3.4541

 Test job not archived.
 1\1\GINC-SE100\SP\RHF\Aug-CC-pVDZ\C2H3F1O1S2\OHZDE\08-Apr-2025\0\\#t h
 f aug-cc-pvdz iop(5/13=1,5/36=2,99/5=2) pseudo=read geom=check guess=(
 read,tcheck) scf=(maxcycle=1)\\title\\0,1\F,0,2.211679,-0.973654,0.000
 161\O,0,1.599863,0.427244,0.000059\C,0,0.268416,0.355856,-0.000205\S,0
 ,-0.390692,1.857149,0.000083\S,0,-0.447072,-1.22816,-0.00014\C,0,-2.20
 8189,-0.781432,0.000016\H,0,-2.737966,-1.735051,0.000059\H,0,-2.461663
 ,-0.215197,-0.894354\H,0,-2.461512,-0.215203,0.894432\\Version=ES64L-G
 16RevC.01\State=1-A\HF=-1047.0605425\RMSD=5.835e-03\Dipole=-1.1196916,

 Normal termination of Gaussian 16 at Tue Apr  8 23:21:00 2025.
