 Gaussian 16, Revision C.01,

 ----------------------------------------------------------------------
 #t hf aug-cc-pvdz symm=none int=(grid=ultrafine) guess=(read,tcheck) s
 table=(opt,rrhf)
 ----------------------------------------------------------------------
 -----
 title
 -----
 Symbolic Z-matrix:
 Charge =  0 Multiplicity = 1

 SCF Done:  E(RHF) =  -699.323065093     A.U. after   18 cycles
 Normal termination of Gaussian 16 at Tue Apr  8 23:02:15 2025.
 Gaussian 16:  ES64L-G16RevC.01  3-Jul-2019

 ----------------------------------------------------------------------
 #t hf aug-cc-pvdz iop(5/13=1,5/36=2,99/5=2) pseudo=read geom=check gue
 ss=(read,tcheck) scf=(maxcycle=1)
 ----------------------------------------------------------------------
 -----
 title
 -----
 Structure from the checkpoint file:  "BDE49_expt_1761_mol1.chk"
 Charge =  0 Multiplicity = 1

                         Standard orientation:
 ---------------------------------------------------------------------
 Center     Atomic      Atomic             Coordinates (Angstroms)
 Number     Number       Type             X           Y           Z
 ---------------------------------------------------------------------
      1          7           0        0.675252    0.650198    0.034982
      2          7           0        1.028475    1.941158   -0.172706
      3          8           0        2.204611    2.189608    0.009618
      4          6           0        1.635124   -0.309679    0.623474
      5          8           0        1.491397   -0.653845    1.773225
      6          7           0        2.587176   -0.752262   -0.232317
      7          6           0       -0.714405    0.332340    0.006903
      8          6           0       -1.682886    1.309379    0.248537
      9          6           0       -3.028903    0.973324    0.176582
     10          6           0       -3.446818   -0.331728   -0.107187
     11          6           0       -2.460997   -1.295523   -0.333191
     12          6           0       -1.109016   -0.972967   -0.286776
     13          1           0       -3.771137    1.742981    0.361864
     14          1           0       -2.751280   -2.316530   -0.557368
     15          1           0       -0.363744   -1.735903   -0.478364
     16          6           0        2.771983   -0.270657   -1.595829
     17          1           0        1.837179    0.116231   -1.994099
     18          1           0        3.093451   -1.106768   -2.221210
     19          1           0        3.528294    0.518569   -1.636198
     20          6           0        3.663666   -1.577387    0.309135
     21          1           0        4.600433   -1.010579    0.338423
     22          1           0        3.805351   -2.460087   -0.320095
     23          1           0        3.398558   -1.884874    1.316926
     24          6           0       -4.912649   -0.689326   -0.134559
     25          1           0       -5.509826    0.110262   -0.579864
     26          1           0       -5.295420   -0.856580    0.878129
     27          1           0       -5.089347   -1.602464   -0.706877
     28          1           0       -1.377476    2.319333    0.483747
 ---------------------------------------------------------------------

 SCF Done:  E(RHF) =  -700.025018131     A.U. after    2 cycles

 The electronic state is 1-A.
 Alpha  occ. eigenvalues --  -20.59331 -20.52907 -15.68842 -15.58670 -15.54737
 Alpha  occ. eigenvalues --  -11.40920 -11.29910 -11.28319 -11.27632 -11.25521
 Alpha  occ. eigenvalues --  -11.25498 -11.25231 -11.25044 -11.24946 -11.24116
 Alpha  occ. eigenvalues --   -1.59783  -1.48839  -1.31905  -1.26976  -1.16761
 Alpha  occ. eigenvalues --   -1.06977  -1.03857  -1.01612  -0.99552  -0.97542
 Alpha  occ. eigenvalues --   -0.92722  -0.85712  -0.84483  -0.78867  -0.77866
 Alpha  occ. eigenvalues --   -0.76391  -0.71308  -0.68337  -0.67912  -0.67375
 Alpha  occ. eigenvalues --   -0.66543  -0.65111  -0.63591  -0.61296  -0.60817
 Alpha  occ. eigenvalues --   -0.58971  -0.58716  -0.58108  -0.55980  -0.55876
 Alpha  occ. eigenvalues --   -0.55652  -0.53591  -0.52926  -0.51210  -0.48500
 Alpha  occ. eigenvalues --   -0.45656  -0.43837  -0.41313  -0.35785  -0.33122
 Alpha virt. eigenvalues --    0.03067   0.03314   0.03439   0.04397   0.04427
 Alpha virt. eigenvalues --    0.04758   0.05148   0.05654   0.06299   0.06467
 Alpha virt. eigenvalues --    0.07000   0.07539   0.08029   0.09021   0.09856

 Mulliken charges:
               1
     1  N    1.289846
     2  N    1.079490
     3  O   -1.181325
     4  C   -0.238150
     5  O   -1.373524
     6  N    1.117649
     7  C   -1.356132
     8  C   -0.113242
     9  C    0.858851
    10  C    0.229177
    11  C    0.544020
    12  C    0.279851
    13  H   -0.316603
    14  H   -0.302921
    15  H   -0.399703
    16  C   -0.305218
    17  H    0.057743
    18  H    0.101040
    19  H    0.197649
    20  C   -0.189773
    21  H    0.241884
    22  H    0.177576
    23  H    0.022447
    24  C   -0.633495
    25  H    0.158398
    26  H    0.281529
    27  H    0.084303
    28  H   -0.311368
 Sum of Mulliken charges =  -0.00000

 Dipole moment (field-independent basis, Debye):
    X=             -0.5059    Y=             -2.2806    Z=             -2.7621  Tot=              3.6175

 Test job not archived.
 1\1\GINC-SE084\SP\RHF\Aug-CC-pVDZ\C10H13N3O2\OHZDE\08-Apr-2025\0\\#t h
 f aug-cc-pvdz iop(5/13=1,5/36=2,99/5=2) pseudo=read geom=check guess=(
 read,tcheck) scf=(maxcycle=1)\\title\\0,1\N,0,-0.675252,0.650198,-0.03
 4982\N,0,-1.028475,1.941158,0.172706\O,0,-2.204611,2.189608,-0.009618\
 C,0,-1.635124,-0.309679,-0.623474\O,0,-1.491397,-0.653845,-1.773225\N,
 0,-2.587176,-0.752262,0.232317\C,0,0.714405,0.33234,-0.006903\C,0,1.68
 2886,1.309379,-0.248537\C,0,3.028903,0.973324,-0.176582\C,0,3.446818,-
 0.331728,0.107187\C,0,2.460997,-1.295523,0.333191\C,0,1.109016,-0.9729

 Normal termination of Gaussian 16 at Tue Apr  8 23:02:51 2025.
