 Gaussian 16, Revision C.01,

 ----------------------------------------------------------------------
 #t hf aug-cc-pvdz symm=none int=(grid=ultrafine) guess=(read,tcheck) s
 table=opt
 ----------------------------------------------------------------------
 -----
 title
 -----
 Symbolic Z-matrix:
 Charge =  0 Multiplicity = 2

 SCF Done:  E(UHF) =  -233.604416509     A.U. after   16 cycles
 Normal termination of Gaussian 16 at Tue Apr  8 22:41:05 2025.
 Gaussian 16:  ES64L-G16RevC.01  3-Jul-2019

 ----------------------------------------------------------------------
 #t hf aug-cc-pvdz iop(5/13=1,5/36=2,99/5=2) pseudo=read geom=check gue
 ss=(read,tcheck) scf=(maxcycle=1)
 ----------------------------------------------------------------------
 -----
 title
 -----
 Structure from the checkpoint file:  "BDE49_expt_1345_mol2.chk"
 Charge =  0 Multiplicity = 2

                         Standard orientation:
 ---------------------------------------------------------------------
 Center     Atomic      Atomic             Coordinates (Angstroms)
 Number     Number       Type             X           Y           Z
 ---------------------------------------------------------------------
      1          6           0        0.049118    0.792543    1.288499
      2          6           0        0.049118   -0.750500    1.267973
      3          6           0        0.538141    1.371052    0.000000
      4          1           0        0.640173    1.164542    2.131215
      5          1           0       -0.987610    1.129872    1.478043
      6          6           0       -0.623499   -1.294495   -0.000000
      7          1           0       -0.451683   -1.135486    2.162131
      8          1           0        1.085158   -1.107758    1.305284
      9          6           0        0.049118    0.792543   -1.288499
     10          6           0        0.049118   -0.750500   -1.267973
     11          1           0       -1.684047   -1.008859   -0.000000
     12          1           0       -0.596479   -2.389065   -0.000000
     13          1           0        0.640173    1.164542   -2.131215
     14          1           0       -0.987610    1.129872   -1.478043
     15          1           0       -0.451683   -1.135486   -2.162131
     16          1           0        1.085158   -1.107758   -1.305284
     17          1           0        1.041763    2.331723    0.000000
 ---------------------------------------------------------------------

 SCF Done:  E(UHF) =  -233.862056307     A.U. after    2 cycles

 The electronic state is 2-A'.
 Alpha  occ. eigenvalues --  -11.22839 -11.22427 -11.22416 -11.22378 -11.22363
 Alpha  occ. eigenvalues --  -11.22243  -1.11727  -1.00381  -1.00274  -0.83653
 Alpha  occ. eigenvalues --   -0.82713  -0.74168  -0.66389  -0.61395  -0.60475
 Alpha  occ. eigenvalues --   -0.58436  -0.54421  -0.54249  -0.53116  -0.48832
 Alpha  occ. eigenvalues --   -0.47061  -0.44712  -0.44382  -0.32663
 Alpha virt. eigenvalues --    0.03676   0.03774   0.03845   0.04055   0.05825
 Alpha virt. eigenvalues --    0.06023   0.06544   0.06552   0.07205   0.09277
 Alpha virt. eigenvalues --    0.09623   0.13775   0.14162   0.14838   0.14858

  Beta  occ. eigenvalues --  -11.22749 -11.22737 -11.22280 -11.22280 -11.22249
  Beta  occ. eigenvalues --  -11.20377  -1.10360  -1.00154  -0.97652  -0.83528
  Beta  occ. eigenvalues --   -0.80348  -0.71683  -0.65868  -0.60815  -0.59875
  Beta  occ. eigenvalues --   -0.56122  -0.53865  -0.53163  -0.52731  -0.48175
  Beta  occ. eigenvalues --   -0.46482  -0.44339  -0.43973
  Beta virt. eigenvalues --    0.03715   0.03782   0.03875   0.03976   0.05814
  Beta virt. eigenvalues --    0.06026   0.06449   0.06565   0.07060   0.09277
  Beta virt. eigenvalues --    0.09632   0.11362   0.14022   0.14202   0.14856

 Mulliken charges and spin densities:
               1          2
     1  C   -0.441840  -0.282603
     2  C   -0.286173   0.014380
     3  C    0.535922   1.533300
     4  H    0.109265   0.000976
     5  H    0.198874   0.041829
     6  C   -0.259497  -0.001795
     7  H    0.115324   0.001582
     8  H    0.134373  -0.003521
     9  C   -0.441840  -0.282603
    10  C   -0.286173   0.014380
    11  H    0.133348  -0.001348
    12  H    0.117363   0.000928
    13  H    0.109265   0.000976
    14  H    0.198874   0.041829
    15  H    0.115324   0.001582
    16  H    0.134373  -0.003521
    17  H   -0.186783  -0.076370
 Sum of Mulliken charges =   0.00000   1.00000

 Dipole moment (field-independent basis, Debye):
    X=             -0.1634    Y=             -0.0405    Z=             -0.0000  Tot=              0.1684
                          Isotropic Fermi Contact Couplings
        Atom                 a.u.       MegaHertz       Gauss      10(-4) cm-1
     1  C(13)             -0.05796     -65.15968     -23.25059     -21.73493
     2  C(13)              0.02160      24.27816       8.66305       8.09832
     3  C(13)              0.22609     254.16911      90.69386      84.78169
     4  H(1)               0.00436      19.48313       6.95207       6.49887
     5  H(1)               0.02333     104.26229      37.20338      34.77816
     6  C(13)             -0.00374      -4.20987      -1.50219      -1.40426
     7  H(1)              -0.00044      -1.96442      -0.70096      -0.65526
     8  H(1)              -0.00095      -4.26350      -1.52132      -1.42215

 Normal termination of Gaussian 16 at Tue Apr  8 22:41:09 2025.
