 Gaussian 16, Revision C.01,

 ----------------------------------------------------------------------
 #t hf aug-cc-pvdz symm=none int=(grid=ultrafine) guess=(read,tcheck) s
 table=opt
 ----------------------------------------------------------------------
 -----
 title
 -----
 Symbolic Z-matrix:
 Charge =  0 Multiplicity = 2

 SCF Done:  E(UHF) =  -622.428401068     A.U. after   23 cycles
 Normal termination of Gaussian 16 at Tue Apr  8 23:38:20 2025.
 Gaussian 16:  ES64L-G16RevC.01  3-Jul-2019

 ----------------------------------------------------------------------
 #t hf aug-cc-pvdz iop(5/13=1,5/36=2,99/5=2) pseudo=read geom=check gue
 ss=(read,tcheck) scf=(maxcycle=1)
 ----------------------------------------------------------------------
 -----
 title
 -----
 Structure from the checkpoint file:  "BDE49_nonexpt_1572_mol2.chk"
 Charge =  0 Multiplicity = 2

                         Standard orientation:
 ---------------------------------------------------------------------
 Center     Atomic      Atomic             Coordinates (Angstroms)
 Number     Number       Type             X           Y           Z
 ---------------------------------------------------------------------
      1          6           0        1.925076    0.154347    0.000013
      2          7           0        0.633556   -0.373323    0.000034
      3          6           0       -0.531927    0.397981    0.000040
      4          8           0        2.907831   -0.541419   -0.000060
      5          1           0        1.928004    1.252262   -0.000052
      6          8           0       -0.512528    1.607886    0.000002
      7          1           0        0.573014   -1.384396    0.000037
      8         15           0       -2.102244   -0.640908   -0.000005
      9          1           0       -2.923570    0.513310   -0.000005
 ---------------------------------------------------------------------

 SCF Done:  E(UHF) =  -622.738622266     A.U. after    2 cycles

 The electronic state is 2-A.
 Alpha  occ. eigenvalues --  -84.32549 -20.56721 -20.55348 -15.57339 -11.40338
 Alpha  occ. eigenvalues --  -11.38841  -6.79808  -4.32125  -4.31899  -4.31301
 Alpha  occ. eigenvalues --   -1.51685  -1.49611  -1.27777  -0.98705  -0.88653
 Alpha  occ. eigenvalues --   -0.86539  -0.73462  -0.70203  -0.65833  -0.65087
 Alpha  occ. eigenvalues --   -0.60150  -0.56751  -0.51172  -0.46877  -0.46027
 Alpha  occ. eigenvalues --   -0.40255  -0.37820
 Alpha virt. eigenvalues --    0.03428   0.04724   0.05497   0.06488   0.07514
 Alpha virt. eigenvalues --    0.09181   0.09520   0.10594   0.10786   0.11829
 Alpha virt. eigenvalues --    0.13750   0.14011   0.14519   0.16111   0.16667

  Beta  occ. eigenvalues --  -84.31867 -20.56094 -20.55345 -15.57351 -11.40735
  Beta  occ. eigenvalues --  -11.38852  -6.78945  -4.31357  -4.30875  -4.28820
  Beta  occ. eigenvalues --   -1.50665  -1.49394  -1.27734  -0.97218  -0.87240
  Beta  occ. eigenvalues --   -0.83920  -0.73375  -0.69321  -0.65360  -0.64988
  Beta  occ. eigenvalues --   -0.59449  -0.55088  -0.50255  -0.45359  -0.45138
  Beta  occ. eigenvalues --   -0.39144
  Beta virt. eigenvalues --   -0.00674   0.03547   0.04759   0.05522   0.06655
  Beta virt. eigenvalues --    0.07959   0.09574   0.10097   0.11099   0.11955
  Beta virt. eigenvalues --    0.13386   0.13874   0.14759   0.14910   0.16365

 Mulliken charges and spin densities:
               1          2
     1  C    0.683113   0.004501
     2  N    0.697428  -0.003224
     3  C   -0.077451  -0.202379
     4  O   -1.040294   0.001156
     5  H    0.122057   0.000161
     6  O   -1.085404   0.159655
     7  H    0.116464  -0.005712
     8  P    0.359602   1.203558
     9  H    0.224483  -0.157716
 Sum of Mulliken charges =  -0.00000   1.00000

 Dipole moment (field-independent basis, Debye):
    X=             -3.0800    Y=             -1.2386    Z=              0.0001  Tot=              3.3197
                          Isotropic Fermi Contact Couplings
        Atom                 a.u.       MegaHertz       Gauss      10(-4) cm-1
     1  C(13)             -0.00146      -1.64415      -0.58667      -0.54843
     2  N(14)             -0.00598      -1.93113      -0.68907      -0.64416
     3  C(13)             -0.05908     -66.41645     -23.69904     -22.15414
     4  O(17)              0.00018      -0.11036      -0.03938      -0.03681
     5  H(1)               0.00005       0.20211       0.07212       0.06742
     6  O(17)              0.04700     -28.49292     -10.16698      -9.50422
     7  H(1)               0.00016       0.71295       0.25440       0.23781
     8  P(31)              0.19549     354.04808     126.33316     118.09773

 Normal termination of Gaussian 16 at Tue Apr  8 23:38:24 2025.
