 Gaussian 16, Revision C.01,

 ----------------------------------------------------------------------
 #t hf aug-cc-pvdz symm=none int=(grid=ultrafine) guess=(read,tcheck) s
 table=opt
 ----------------------------------------------------------------------
 -----
 title
 -----
 Symbolic Z-matrix:
 Charge =  0 Multiplicity = 2

 SCF Done:  E(UHF) =  -463.264814503     A.U. after   19 cycles

 1\1\GINC-SE343\Stability\UHF\Aug-CC-pVDZ\F1O1Si1\OHZDE\08-Apr-2025\0\\
 #t hf aug-cc-pvdz symm=none int=(grid=ultrafine) guess=(read,tcheck) s
 table=opt\\title\\0,2\Si,0,0.,0.392016,0.\O,0,1.456381,-0.06585,0.\F,0
 ,-1.294561,-0.551269,0.\\Version=ES64L-G16RevC.01\HF=-463.2648145\S2=0
 .766853\S2-1=0.\S2A=0.750092\RMSD=6.352e-09\Dipole=-1.0828046,0.747863
 9,0.\Quadrupole=-4.5848109,1.5284823,3.0563286,-0.6080787,0.,0.\PG=Unk
 nown\\@
 The archive entry for this job was punched.

 Normal termination of Gaussian 16 at Tue Apr  8 23:55:17 2025.
 Gaussian 16:  ES64L-G16RevC.01  3-Jul-2019

 ----------------------------------------------------------------------
 #t hf aug-cc-pvdz iop(5/13=1,5/36=2,99/5=2) pseudo=read geom=check gue
 ss=(read,tcheck) scf=(maxcycle=1)
 ----------------------------------------------------------------------
 -----
 title
 -----
 Structure from the checkpoint file:  "BDE49_nonexpt_1989_mol2.chk"
 Charge =  0 Multiplicity = 2

                         Standard orientation:
 ---------------------------------------------------------------------
 Center     Atomic      Atomic             Coordinates (Angstroms)
 Number     Number       Type             X           Y           Z
 ---------------------------------------------------------------------
      1         14           0        0.000000    0.392016    0.000000
      2          8           0        1.456381   -0.065850    0.000000
      3          9           0       -1.294561   -0.551269   -0.000000
 ---------------------------------------------------------------------

 SCF Done:  E(UHF) =  -463.447763088     A.U. after    2 cycles

 The electronic state is 2-A'.
 Alpha  occ. eigenvalues --  -69.65815 -26.51360 -20.54746  -6.32356  -4.07710
 Alpha  occ. eigenvalues --   -4.07205  -4.07178  -1.62626  -1.38776  -0.79894
 Alpha  occ. eigenvalues --   -0.69597  -0.68832  -0.62765  -0.50707  -0.48611
 Alpha  occ. eigenvalues --   -0.44301
 Alpha virt. eigenvalues --    0.01414   0.04985   0.05567   0.06817   0.08111
 Alpha virt. eigenvalues --    0.15773   0.18839   0.20686   0.22850   0.23246
 Alpha virt. eigenvalues --    0.24891   0.25250   0.29364   0.30355   0.31426

  Beta  occ. eigenvalues --  -69.65302 -26.50830 -20.53609  -6.31447  -4.07023
  Beta  occ. eigenvalues --   -4.06777  -4.06107  -1.61055  -1.34895  -0.76404
  Beta  occ. eigenvalues --   -0.68466  -0.68168  -0.55354  -0.48293  -0.46853
  Beta virt. eigenvalues --   -0.03756   0.03705   0.05595   0.06126   0.08622
  Beta virt. eigenvalues --    0.11047   0.18010   0.20449   0.21691   0.23827
  Beta virt. eigenvalues --    0.24460   0.25303   0.25331   0.29621   0.30735

 Mulliken charges and spin densities:
               1          2
     1  Si   1.813582   0.741888
     2  O   -1.151624   0.271252
     3  F   -0.661958  -0.013140
 Sum of Mulliken charges =  -0.00000   1.00000

 Dipole moment (field-independent basis, Debye):
    X=             -2.6560    Y=              1.6712    Z=             -0.0000  Tot=              3.1381
                          Isotropic Fermi Contact Couplings
        Atom                 a.u.       MegaHertz       Gauss      10(-4) cm-1
     1  Si(29)             0.94757    -842.12879    -300.49249    -280.90393
     2  O(17)              0.04815     -29.18831     -10.41512      -9.73617
     3  F(19)              0.12341     519.25410     185.28277     173.20452
 --------------------------------------------------------
       Center         ----  Spin Dipole Couplings  ----
                      3XX-RR        3YY-RR        3ZZ-RR
 --------------------------------------------------------
     1   Atom       -0.252769      0.608109     -0.355340

 Normal termination of Gaussian 16 at Tue Apr  8 23:55:18 2025.
