 Gaussian 16, Revision C.01,

 ----------------------------------------------------------------------
 #t hf aug-cc-pvdz symm=none int=(grid=ultrafine) guess=(read,tcheck) s
 table=opt
 ----------------------------------------------------------------------
 -----
 title
 -----
 Symbolic Z-matrix:
 Charge =  0 Multiplicity = 2

 SCF Done:  E(UHF) =  -461.626940801     A.U. after   19 cycles
 Normal termination of Gaussian 16 at Tue Apr  8 23:59:49 2025.
 Gaussian 16:  ES64L-G16RevC.01  3-Jul-2019

 ----------------------------------------------------------------------
 #t hf aug-cc-pvdz iop(5/13=1,5/36=2,99/5=2) pseudo=read geom=check gue
 ss=(read,tcheck) scf=(maxcycle=1)
 ----------------------------------------------------------------------
 -----
 title
 -----
 Structure from the checkpoint file:  "BDE49_nonexpt_2090_mol2.chk"
 Charge =  0 Multiplicity = 2

                         Standard orientation:
 ---------------------------------------------------------------------
 Center     Atomic      Atomic             Coordinates (Angstroms)
 Number     Number       Type             X           Y           Z
 ---------------------------------------------------------------------
      1          7           0        0.328461   -0.535034   -0.000003
      2          6           0       -1.162156    1.436108    0.000009
      3          6           0       -0.837885   -0.045591   -0.000009
      4          6           0       -2.038640   -0.969030    0.000003
      5         14           0        1.967509    0.035096   -0.000004
      6          1           0       -0.253935    2.038406    0.000013
      7          1           0       -1.763864    1.690108    0.878832
      8          1           0       -1.763869    1.690126   -0.878805
      9          1           0       -1.714786   -2.008132    0.000006
     10          1           0       -2.663460   -0.780871   -0.879555
     11          1           0       -2.663452   -0.780864    0.879565
     12          1           0        2.605550   -0.561910   -1.207893
     13          1           0        2.605549   -0.561889    1.207897
 ---------------------------------------------------------------------

 SCF Done:  E(UHF) =  -461.838378289     A.U. after    2 cycles

 The electronic state is 2-A.
 Alpha  occ. eigenvalues --  -69.54023 -15.47767 -11.31022 -11.24668 -11.23956
 Alpha  occ. eigenvalues --   -6.20828  -3.96720  -3.95896  -3.95873  -1.21823
 Alpha  occ. eigenvalues --   -1.02277  -0.96373  -0.81695  -0.68933  -0.63789
 Alpha  occ. eigenvalues --   -0.62063  -0.61615  -0.56078  -0.56001  -0.53687
 Alpha  occ. eigenvalues --   -0.51459  -0.44724  -0.43945  -0.31766
 Alpha virt. eigenvalues --    0.03312   0.04274   0.04339   0.04761   0.05815
 Alpha virt. eigenvalues --    0.06413   0.06850   0.07113   0.07951   0.09481
 Alpha virt. eigenvalues --    0.10283   0.12340   0.12785   0.13794   0.14749

  Beta  occ. eigenvalues --  -69.53552 -15.46974 -11.31237 -11.24607 -11.23902
  Beta  occ. eigenvalues --   -6.20105  -3.95663  -3.95586  -3.94810  -1.20532
  Beta  occ. eigenvalues --   -1.01693  -0.96216  -0.80258  -0.68088  -0.62796
  Beta  occ. eigenvalues --   -0.62200  -0.59237  -0.56044  -0.55254  -0.53284
  Beta  occ. eigenvalues --   -0.49979  -0.42581  -0.40254
  Beta virt. eigenvalues --    0.02907   0.03781   0.04353   0.04491   0.05167
  Beta virt. eigenvalues --    0.05908   0.06496   0.06932   0.07970   0.08613
  Beta virt. eigenvalues --    0.09810   0.10638   0.12223   0.13083   0.14216

 Mulliken charges and spin densities:
               1          2
     1  N    0.640772   0.198179
     2  C   -0.204625   0.013180
     3  C   -1.540799  -0.112286
     4  C   -0.277772   0.030667
     5  Si   0.448691   0.805962
     6  H    0.095367  -0.032431
     7  H    0.246268  -0.003896
     8  H    0.246269  -0.003896
     9  H    0.111424  -0.000174
    10  H    0.245010  -0.002690
    11  H    0.245007  -0.002690
    12  H   -0.127805   0.055038
    13  H   -0.127807   0.055037
 Sum of Mulliken charges =  -0.00000   1.00000

 Dipole moment (field-independent basis, Debye):
    X=             -2.4917    Y=              1.4759    Z=              0.0000  Tot=              2.8960
                          Isotropic Fermi Contact Couplings
        Atom                 a.u.       MegaHertz       Gauss      10(-4) cm-1
     1  N(14)              0.06769      21.86977       7.80368       7.29497
     2  C(13)              0.00466       5.23717       1.86875       1.74693
     3  C(13)             -0.02240     -25.17765      -8.98401      -8.39836
     4  C(13)              0.01195      13.42936       4.79193       4.47955
     5  Si(29)             0.53923    -479.23290    -171.00222    -159.85489
     6  H(1)              -0.00085      -3.78042      -1.34895      -1.26101
     7  H(1)              -0.00151      -6.74997      -2.40856      -2.25155
     8  H(1)              -0.00151      -6.74997      -2.40856      -2.25155

 Normal termination of Gaussian 16 at Tue Apr  8 23:59:53 2025.
