 Gaussian 16, Revision C.01,

 ----------------------------------------------------------------------
 #t hf aug-cc-pvdz symm=none int=(grid=ultrafine) guess=(read,tcheck) s
 table=opt
 ----------------------------------------------------------------------
 -----
 title
 -----
 Symbolic Z-matrix:
 Charge =  0 Multiplicity = 2

 SCF Done:  E(UHF) =  -465.759437998     A.U. after   15 cycles
 Normal termination of Gaussian 16 at Wed Apr  9 00:13:35 2025.
 Gaussian 16:  ES64L-G16RevC.01  3-Jul-2019

 ----------------------------------------------------------------------
 #t hf aug-cc-pvdz iop(5/13=1,5/36=2,99/5=2) pseudo=read geom=check gue
 ss=(read,tcheck) scf=(maxcycle=1)
 ----------------------------------------------------------------------
 -----
 title
 -----
 Structure from the checkpoint file:  "BDE49_nonexpt_2455_mol2.chk"
 Charge =  0 Multiplicity = 2

                         Standard orientation:
 ---------------------------------------------------------------------
 Center     Atomic      Atomic             Coordinates (Angstroms)
 Number     Number       Type             X           Y           Z
 ---------------------------------------------------------------------
      1         14           0        1.490225   -0.000000   -0.073015
      2          5           0       -0.517677    0.000000    0.014663
      3          1           0        2.186005    1.220162    0.398595
      4          1           0        2.186005   -1.220162    0.398595
      5          8           0       -1.151077   -1.211896    0.009043
      6          8           0       -1.151077    1.211896    0.009043
      7          1           0       -2.114771   -1.178916    0.003506
      8          1           0       -2.114770    1.178916    0.003506
 ---------------------------------------------------------------------

 SCF Done:  E(UHF) =  -465.960923049     A.U. after    2 cycles

 The electronic state is 2-A.
 Alpha  occ. eigenvalues --  -69.51486 -20.57319 -20.57318  -7.65668  -6.18894
 Alpha  occ. eigenvalues --   -3.94928  -3.93975  -3.93928  -1.49353  -1.45380
 Alpha  occ. eigenvalues --   -0.80856  -0.74826  -0.71230  -0.64508  -0.58342
 Alpha  occ. eigenvalues --   -0.53682  -0.50986  -0.48203  -0.44883  -0.31114
 Alpha virt. eigenvalues --    0.02402   0.04606   0.05452   0.05616   0.07557
 Alpha virt. eigenvalues --    0.07707   0.08534   0.09506   0.10322   0.10439
 Alpha virt. eigenvalues --    0.10831   0.14592   0.16820   0.17259   0.19118

  Beta  occ. eigenvalues --  -69.50952 -20.57265 -20.57263  -7.65708  -6.18123
  Beta  occ. eigenvalues --   -3.93580  -3.93558  -3.92729  -1.49225  -1.45238
  Beta  occ. eigenvalues --   -0.79887  -0.74797  -0.67703  -0.63935  -0.57800
  Beta  occ. eigenvalues --   -0.53627  -0.50476  -0.47876  -0.44122
  Beta virt. eigenvalues --    0.02308   0.02816   0.04827   0.05466   0.06354
  Beta virt. eigenvalues --    0.07770   0.07773   0.09699   0.10338   0.10446
  Beta virt. eigenvalues --    0.10615   0.11481   0.16689   0.17611   0.19725

 Mulliken charges and spin densities:
               1          2
     1  Si   0.270097   1.080416
     2  B    1.208481  -0.025509
     3  H   -0.144340  -0.051162
     4  H   -0.144340  -0.051162
     5  O   -1.073188   0.024233
     6  O   -1.073187   0.024233
     7  H    0.478239  -0.000524
     8  H    0.478238  -0.000524
 Sum of Mulliken charges =  -0.00000   1.00000

 Dipole moment (field-independent basis, Debye):
    X=             -3.1424    Y=             -0.0000    Z=              0.1667  Tot=              3.1468
                          Isotropic Fermi Contact Couplings
        Atom                 a.u.       MegaHertz       Gauss      10(-4) cm-1
     1  Si(29)             0.40298    -358.13796    -127.79253    -119.46196
     2  B(11)             -0.00832     -11.93077      -4.25720      -3.97968
     3  H(1)              -0.00811     -36.24126     -12.93178     -12.08878
     4  H(1)              -0.00811     -36.24126     -12.93178     -12.08878
     5  O(17)              0.00368      -2.23246      -0.79660      -0.74467
     6  O(17)              0.00368      -2.23246      -0.79660      -0.74467
     7  H(1)              -0.00048      -2.16078      -0.77102      -0.72076
     8  H(1)              -0.00048      -2.16078      -0.77102      -0.72076

 Normal termination of Gaussian 16 at Wed Apr  9 00:13:37 2025.
