 Gaussian 16, Revision C.01,

 ----------------------------------------------------------------------
 #t hf aug-cc-pvdz symm=none int=(grid=ultrafine) guess=(read,tcheck) s
 table=(opt,rrhf)
 ----------------------------------------------------------------------
 -----
 title
 -----
 Symbolic Z-matrix:
 Charge =  0 Multiplicity = 1

 SCF Done:  E(RHF) =  -650.765294669     A.U. after   16 cycles
 Normal termination of Gaussian 16 at Wed Apr  9 00:04:39 2025.
 Gaussian 16:  ES64L-G16RevC.01  3-Jul-2019

 ----------------------------------------------------------------------
 #t hf aug-cc-pvdz iop(5/13=1,5/36=2,99/5=2) pseudo=read geom=check gue
 ss=(read,tcheck) scf=(maxcycle=1)
 ----------------------------------------------------------------------
 -----
 title
 -----
 Structure from the checkpoint file:  "BDE49_nonexpt_2190_mol1.chk"
 Charge =  0 Multiplicity = 1

                         Standard orientation:
 ---------------------------------------------------------------------
 Center     Atomic      Atomic             Coordinates (Angstroms)
 Number     Number       Type             X           Y           Z
 ---------------------------------------------------------------------
      1          6           0        2.602195   -0.837555    0.036277
      2          6           0        2.297989    0.521833    0.045791
      3          6           0        0.972046    0.965682    0.005457
      4          6           0        1.585337   -1.784694   -0.013417
      5          6           0        0.255963   -1.360193   -0.058581
      6          6           0       -0.048615   -0.005446   -0.049521
      7          1           0        3.639028   -1.151969    0.069248
      8          1           0        1.814009   -2.843378   -0.020322
      9          1           0       -0.544900   -2.090421   -0.109984
     10          8           0       -1.336518    0.485482   -0.109606
     11         14           0       -2.790413   -0.299365    0.054115
     12          1           0        3.094776    1.257310    0.093961
     13          7           0        0.630401    2.312194    0.074926
     14          1           0        1.322895    2.952567   -0.282778
     15          1           0       -0.305084    2.514679   -0.245929
     16          1           0       -3.801958    0.771650    0.002063
     17          1           0       -2.854896   -1.024575    1.342767
     18          1           0       -3.008244   -1.261725   -1.050308
 ---------------------------------------------------------------------

 SCF Done:  E(RHF) =  -651.167777356     A.U. after    2 cycles

 The electronic state is 1-A.
 Alpha  occ. eigenvalues --  -69.56891 -20.56225 -15.50461 -11.30231 -11.28076
 Alpha  occ. eigenvalues --  -11.24378 -11.23818 -11.23536 -11.23387  -6.23483
 Alpha  occ. eigenvalues --   -3.98988  -3.98840  -3.98813  -1.47514  -1.22042
 Alpha  occ. eigenvalues --   -1.13149  -1.01250  -0.99325  -0.86516  -0.83391
 Alpha  occ. eigenvalues --   -0.76587  -0.72800  -0.72388  -0.67028  -0.63526
 Alpha  occ. eigenvalues --   -0.62915  -0.61384  -0.60853  -0.56249  -0.54011
 Alpha  occ. eigenvalues --   -0.52700  -0.51219  -0.48334  -0.47417  -0.46396
 Alpha  occ. eigenvalues --   -0.33810  -0.30313
 Alpha virt. eigenvalues --    0.03295   0.03487   0.04002   0.04615   0.05262
 Alpha virt. eigenvalues --    0.05705   0.06741   0.07498   0.08806   0.09071
 Alpha virt. eigenvalues --    0.10036   0.10831   0.11325   0.12236   0.12448

 Mulliken charges:
               1
     1  C    0.041904
     2  C    1.386296
     3  C   -2.129265
     4  C    0.247951
     5  C    0.164983
     6  C    2.103172
     7  H   -0.229116
     8  H   -0.222171
     9  H   -0.359085
    10  O   -2.441760
    11  Si   1.187402
    12  H   -0.296992
    13  N    0.824182
    14  H    0.067693
    15  H    0.051724
    16  H   -0.173826
    17  H   -0.109480
    18  H   -0.113611
 Sum of Mulliken charges =  -0.00000

 Dipole moment (field-independent basis, Debye):
    X=             -0.3137    Y=              0.1635    Z=             -0.8578  Tot=              0.9279

 Test job not archived.
 1\1\GINC-SE345\SP\RHF\Aug-CC-pVDZ\C6H9N1O1Si1\OHZDE\09-Apr-2025\0\\#t
 hf aug-cc-pvdz iop(5/13=1,5/36=2,99/5=2) pseudo=read geom=check guess=
 (read,tcheck) scf=(maxcycle=1)\\title\\0,1\C,0,2.602195,-0.837555,0.03
 6277\C,0,2.297989,0.521833,0.045791\C,0,0.972046,0.965682,0.005457\C,0
 ,1.585337,-1.784694,-0.013417\C,0,0.255963,-1.360193,-0.058581\C,0,-0.
 048615,-0.005446,-0.049521\H,0,3.639028,-1.151969,0.069248\H,0,1.81400
 9,-2.843378,-0.020322\H,0,-0.5449,-2.090421,-0.109984\O,0,-1.336518,0.
 485482,-0.109606\Si,0,-2.790413,-0.299366,0.054115\H,0,3.094776,1.2573

 Normal termination of Gaussian 16 at Wed Apr  9 00:04:47 2025.
