 Gaussian 16, Revision C.01,

 ----------------------------------------------------------------------
 #t hf aug-cc-pvdz symm=none int=(grid=ultrafine) guess=(read,tcheck) s
 table=(opt,rrhf)
 ----------------------------------------------------------------------
 -----
 title
 -----
 Symbolic Z-matrix:
 Charge =  0 Multiplicity = 1

 SCF Done:  E(RHF) =  -1008.96684416     A.U. after   15 cycles
 Normal termination of Gaussian 16 at Tue Apr  8 23:28:24 2025.
 Gaussian 16:  ES64L-G16RevC.01  3-Jul-2019

 ----------------------------------------------------------------------
 #t hf aug-cc-pvdz iop(5/13=1,5/36=2,99/5=2) pseudo=read geom=check gue
 ss=(read,tcheck) scf=(maxcycle=1)
 ----------------------------------------------------------------------
 -----
 title
 -----
 Structure from the checkpoint file:  "BDE49_nonexpt_1192_mol1.chk"
 Charge =  0 Multiplicity = 1

                         Standard orientation:
 ---------------------------------------------------------------------
 Center     Atomic      Atomic             Coordinates (Angstroms)
 Number     Number       Type             X           Y           Z
 ---------------------------------------------------------------------
      1          8           0        0.954349    1.259716   -0.687870
      2         16           0       -0.639918    1.713503   -0.350445
      3          6           0       -1.413693    0.092117   -0.277325
      4          6           0        1.722718    0.744010    0.350288
      5          8           0        1.361504    0.703383    1.488206
      6          8           0       -0.790708   -0.929449   -0.400082
      7          6           0        3.011958    0.223530   -0.218449
      8          6           0        4.294526   -1.527918   -0.130067
      9          6           0        2.945051   -1.216682   -0.831305
     10          1           0        2.902759   -1.276657   -1.918836
     11          1           0        2.112965   -1.786578   -0.415719
     12          6           0       -2.895705    0.184985   -0.022654
     13          6           0       -3.820152   -0.704486   -0.910216
     14          6           0       -3.433679   -0.591614    1.222413
     15          1           0       -3.224346    1.228935   -0.014028
     16          6           0        4.081155   -0.286235    0.778267
     17          1           0        5.143509   -1.401808   -0.805754
     18          1           0        3.622618   -0.541674    1.734486
     19          1           0        4.936957    0.366193    0.957500
     20          6           0       -4.626159   -1.080840    0.360133
     21          1           0       -3.260031   -1.553706   -1.304458
     22          1           0       -4.925729   -2.123919    0.469812
     23          1           0       -5.507372   -0.447922    0.486583
     24          1           0       -3.647044    0.001062    2.112385
     25          1           0        3.404466    0.936456   -0.945547
     26          1           0       -2.756232   -1.406101    1.482911
     27          1           0       -4.344763   -0.204604   -1.725303
     28          1           0        4.383640   -2.496115    0.364548
 ---------------------------------------------------------------------

 SCF Done:  E(RHF) =  -1009.64852465     A.U. after    2 cycles

 The electronic state is 1-A.
 Alpha  occ. eigenvalues --  -94.02492 -20.61236 -20.55466 -20.54262 -11.39251
 Alpha  occ. eigenvalues --  -11.37682 -11.26569 -11.25253 -11.24893 -11.24882
 Alpha  occ. eigenvalues --  -11.24313 -11.23869 -11.23315 -11.23295  -8.30010
 Alpha  occ. eigenvalues --   -6.27836  -6.27577  -6.27352  -1.54233  -1.49428
 Alpha  occ. eigenvalues --   -1.45950  -1.15635  -1.14391  -1.06276  -0.96958
 Alpha  occ. eigenvalues --   -0.92901  -0.91682  -0.90599  -0.82902  -0.78795
 Alpha  occ. eigenvalues --   -0.75637  -0.74622  -0.71433  -0.70045  -0.68431
 Alpha  occ. eigenvalues --   -0.67272  -0.66570  -0.64501  -0.60695  -0.59536
 Alpha  occ. eigenvalues --   -0.58655  -0.58170  -0.56222  -0.55306  -0.54908
 Alpha  occ. eigenvalues --   -0.50724  -0.50310  -0.49800  -0.48903  -0.48010
 Alpha  occ. eigenvalues --   -0.47695  -0.46346  -0.46263  -0.45451  -0.43487
 Alpha  occ. eigenvalues --   -0.40479  -0.39221
 Alpha virt. eigenvalues --    0.03272   0.03689   0.03873   0.04001   0.04381
 Alpha virt. eigenvalues --    0.04644   0.04809   0.06219   0.06361   0.06703
 Alpha virt. eigenvalues --    0.07558   0.07574   0.08439   0.09102   0.09491

 Mulliken charges:
               1
     1  O   -1.443097
     2  S    0.936763
     3  C    0.817489
     4  C    2.277238
     5  O   -1.339329
     6  O   -1.463486
     7  C   -0.374642
     8  C    0.017820
     9  C   -0.054477
    10  H    0.004341
    11  H    0.036439
    12  C    0.354479
    13  C   -0.169662
    14  C   -0.188058
    15  H    0.064296
    16  C    0.049216
    17  H    0.046369
    18  H    0.060894
    19  H    0.053220
    20  C    0.074187
    21  H    0.049363
    22  H    0.024057
    23  H    0.039221
    24  H    0.017905
    25  H    0.021835
    26  H    0.041346
    27  H    0.021216
    28  H    0.025054
 Sum of Mulliken charges =  -0.00000

 Dipole moment (field-independent basis, Debye):
    X=             -1.3079    Y=             -0.0162    Z=             -1.0837  Tot=              1.6986

 Test job not archived.
 1\1\GINC-SE173\SP\RHF\Aug-CC-pVDZ\C10H14O3S1\OHZDE\08-Apr-2025\0\\#t h
 f aug-cc-pvdz iop(5/13=1,5/36=2,99/5=2) pseudo=read geom=check guess=(
 read,tcheck) scf=(maxcycle=1)\\title\\0,1\O,0,0.954349,1.259716,-0.687
 87\S,0,-0.639918,1.713503,-0.350445\C,0,-1.413693,0.092117,-0.277325\C
 ,0,1.722718,0.74401,0.350288\O,0,1.361504,0.703383,1.488206\O,0,-0.790
 708,-0.929449,-0.400082\C,0,3.011958,0.22353,-0.218449\C,0,4.294526,-1
 .527918,-0.130067\C,0,2.945051,-1.216682,-0.831305\H,0,2.902759,-1.276
 657,-1.918836\H,0,2.112965,-1.786578,-0.415719\C,0,-2.895705,0.184985,

 Normal termination of Gaussian 16 at Tue Apr  8 23:28:52 2025.
