 Gaussian 16, Revision C.01,

 ----------------------------------------------------------------------
 #t hf aug-cc-pvdz symm=none int=(grid=ultrafine) guess=(read,tcheck) s
 table=(opt,rrhf)
 ----------------------------------------------------------------------
 -----
 title
 -----
 Symbolic Z-matrix:
 Charge =  0 Multiplicity = 1

 SCF Done:  E(RHF) =  -512.560276911     A.U. after   13 cycles
 Normal termination of Gaussian 16 at Tue Apr  8 22:43:26 2025.
 Gaussian 16:  ES64L-G16RevC.01  3-Jul-2019

 ----------------------------------------------------------------------
 #t hf aug-cc-pvdz iop(5/13=1,5/36=2,99/5=2) pseudo=read geom=check gue
 ss=(read,tcheck) scf=(maxcycle=1)
 ----------------------------------------------------------------------
 -----
 title
 -----
 Structure from the checkpoint file:  "BDE49_expt_1494_mol1.chk"
 Charge =  0 Multiplicity = 1

                         Standard orientation:
 ---------------------------------------------------------------------
 Center     Atomic      Atomic             Coordinates (Angstroms)
 Number     Number       Type             X           Y           Z
 ---------------------------------------------------------------------
      1         16           0       -1.070603   -0.087631   -0.094905
      2          8           0        0.440623    0.628744    0.091575
      3          1           0       -1.225952   -0.569937    1.160036
      4          6           0        1.549725   -0.269539   -0.032497
      5          1           0        1.577308   -0.979869    0.801358
      6          1           0        2.440851    0.359801   -0.003825
      7          1           0        1.514098   -0.820629   -0.976703
 ---------------------------------------------------------------------

 SCF Done:  E(RHF) =  -512.737569793     A.U. after    2 cycles

 The electronic state is 1-A.
 Alpha  occ. eigenvalues --  -94.00491 -20.58358 -11.29630  -8.27932  -6.25802
 Alpha  occ. eigenvalues --   -6.25583  -6.25329  -1.47211  -1.01000  -0.90618
 Alpha  occ. eigenvalues --   -0.67035  -0.64399  -0.63146  -0.54859  -0.50162
 Alpha  occ. eigenvalues --   -0.44416  -0.37855
 Alpha virt. eigenvalues --    0.03635   0.04683   0.05766   0.05956   0.07959
 Alpha virt. eigenvalues --    0.10802   0.12612   0.14494   0.15194   0.15537
 Alpha virt. eigenvalues --    0.16739   0.19139   0.19727   0.21998   0.25617

 Mulliken charges:
               1
     1  S    0.276673
     2  O   -1.217541
     3  H    0.311796
     4  C    0.323858
     5  H    0.125269
     6  H    0.023427
     7  H    0.156518
 Sum of Mulliken charges =  -0.00000

 Dipole moment (field-independent basis, Debye):
    X=              0.9520    Y=             -1.4312    Z=              0.6766  Tot=              1.8473

 Test job not archived.
 1\1\GINC-SE454\SP\RHF\Aug-CC-pVDZ\C1H4O1S1\OHZDE\08-Apr-2025\0\\#t hf
 aug-cc-pvdz iop(5/13=1,5/36=2,99/5=2) pseudo=read geom=check guess=(re
 ad,tcheck) scf=(maxcycle=1)\\title\\0,1\S,0,-1.070603,-0.087631,-0.094
 905\O,0,0.440623,0.628744,0.091575\H,0,-1.225952,-0.569937,1.160036\C,
 0,1.549725,-0.269539,-0.032497\H,0,1.577308,-0.979869,0.801358\H,0,2.4
 40851,0.359801,-0.003825\H,0,1.514098,-0.820629,-0.976703\\Version=ES6
 4L-G16RevC.01\State=1-A\HF=-512.7375698\RMSD=6.152e-03\Dipole=0.374534
 8,-0.5630954,0.2661963\Quadrupole=1.6303406,-1.9745702,0.3442296,0.364

 Normal termination of Gaussian 16 at Tue Apr  8 22:43:28 2025.
