 Gaussian 16, Revision C.01,

 ----------------------------------------------------------------------
 #t hf aug-cc-pvdz symm=none int=(grid=ultrafine) guess=(read,tcheck) s
 table=opt
 ----------------------------------------------------------------------
 -----
 title
 -----
 Symbolic Z-matrix:
 Charge =  0 Multiplicity = 2

 SCF Done:  E(UHF) =  -142.882636413     A.U. after   17 cycles
 Normal termination of Gaussian 16 at Wed Apr  9 00:35:57 2025.
 Gaussian 16:  ES64L-G16RevC.01  3-Jul-2019

 ----------------------------------------------------------------------
 #t hf aug-cc-pvdz iop(5/13=1,5/36=2,99/5=2) pseudo=read geom=check gue
 ss=(read,tcheck) scf=(maxcycle=1)
 ----------------------------------------------------------------------
 -----
 title
 -----
 Structure from the checkpoint file:  "BDE49_nonexpt_468_mol2.chk"
 Charge =  0 Multiplicity = 2

                         Standard orientation:
 ---------------------------------------------------------------------
 Center     Atomic      Atomic             Coordinates (Angstroms)
 Number     Number       Type             X           Y           Z
 ---------------------------------------------------------------------
      1          1           0       -1.681171    1.961698    0.173307
      2          5           0       -0.551778    1.574572    0.165498
      3          6           0       -0.025096    0.187561   -0.263263
      4          6           0        1.440739   -0.133558    0.084622
      5          1           0        2.107021    0.683274   -0.200844
      6          1           0        1.778672   -1.044832   -0.419434
      7          1           0        1.554918   -0.290808    1.161389
      8          6           0       -0.967882   -0.993385    0.069429
      9          1           0       -0.080088    0.345817   -1.364453
     10          1           0       -0.988112   -1.179583    1.147314
     11          1           0       -0.626527   -1.914287   -0.414499
     12          1           0       -1.992388   -0.797847   -0.254997
 ---------------------------------------------------------------------

 SCF Done:  E(UHF) =  -143.039986932     A.U. after    2 cycles

 The electronic state is 2-A.
 Alpha  occ. eigenvalues --  -11.23114 -11.22635 -11.22483  -7.61227  -1.06422
 Alpha  occ. eigenvalues --   -0.93294  -0.83147  -0.66865  -0.61987  -0.58671
 Alpha  occ. eigenvalues --   -0.56840  -0.54354  -0.49465  -0.49236  -0.45863
 Alpha  occ. eigenvalues --   -0.32338
 Alpha virt. eigenvalues --    0.03143   0.03618   0.04256   0.04436   0.06187
 Alpha virt. eigenvalues --    0.06401   0.06567   0.07169   0.07594   0.09957
 Alpha virt. eigenvalues --    0.10361   0.11765   0.13890   0.14976   0.15407

  Beta  occ. eigenvalues --  -11.23017 -11.22573 -11.22493  -7.59476  -1.06000
  Beta  occ. eigenvalues --   -0.93029  -0.82198  -0.64266  -0.61828  -0.57742
  Beta  occ. eigenvalues --   -0.55404  -0.54188  -0.49056  -0.48764  -0.44967
  Beta virt. eigenvalues --    0.03457   0.03536   0.03788   0.04371   0.06291
  Beta virt. eigenvalues --    0.06577   0.06734   0.07171   0.07618   0.09656
  Beta virt. eigenvalues --    0.10582   0.11548   0.11993   0.14750   0.15132

 Mulliken charges and spin densities:
               1          2
     1  H    0.392970   0.017169
     2  B   -0.467271   1.010432
     3  C   -0.412902  -0.068011
     4  C   -0.295439   0.027524
     5  H    0.106532  -0.002572
     6  H    0.150608   0.000272
     7  H    0.177982  -0.000751
     8  C   -0.348571   0.030739
     9  H    0.270873  -0.016580
    10  H    0.173935  -0.002698
    11  H    0.161688   0.004974
    12  H    0.089596  -0.000498
 Sum of Mulliken charges =  -0.00000   1.00000

 Dipole moment (field-independent basis, Debye):
    X=             -0.1584    Y=             -0.9140    Z=             -0.3763  Tot=              1.0011
                          Isotropic Fermi Contact Couplings
        Atom                 a.u.       MegaHertz       Gauss      10(-4) cm-1
     1  H(1)               0.00670      29.94626      10.68557       9.98900
     2  B(11)              0.24245     347.76455     124.09104     116.00177
     3  C(13)              0.00551       6.19760       2.21146       2.06730
     4  C(13)              0.01864      20.95489       7.47723       6.98980
     5  H(1)              -0.00032      -1.42107      -0.50707      -0.47402
     6  H(1)              -0.00007      -0.29109      -0.10387      -0.09710
     7  H(1)              -0.00035      -1.54556      -0.55149      -0.51554
     8  C(13)              0.02335      26.25120       9.36708       8.75646

 Normal termination of Gaussian 16 at Wed Apr  9 00:36:00 2025.
