 Gaussian 16, Revision C.01,

 ----------------------------------------------------------------------
 #t hf aug-cc-pvdz symm=none int=(grid=ultrafine) guess=(read,tcheck) s
 table=(opt,rrhf)
 ----------------------------------------------------------------------
 -----
 title
 -----
 Symbolic Z-matrix:
 Charge =  0 Multiplicity = 1

 SCF Done:  E(RHF) =  -950.499424821     A.U. after   14 cycles
 Normal termination of Gaussian 16 at Wed Apr  9 00:18:34 2025.
 Gaussian 16:  ES64L-G16RevC.01  3-Jul-2019

 ----------------------------------------------------------------------
 #t hf aug-cc-pvdz iop(5/13=1,5/36=2,99/5=2) pseudo=read geom=check gue
 ss=(read,tcheck) scf=(maxcycle=1)
 ----------------------------------------------------------------------
 -----
 title
 -----
 Structure from the checkpoint file:  "BDE49_nonexpt_2580_mol1.chk"
 Charge =  0 Multiplicity = 1

                         Standard orientation:
 ---------------------------------------------------------------------
 Center     Atomic      Atomic             Coordinates (Angstroms)
 Number     Number       Type             X           Y           Z
 ---------------------------------------------------------------------
      1         17           0       -1.408728   -0.521515    0.000008
      2         16           0       -0.045935    1.028597   -0.000010
      3          6           0        1.513073    0.138075   -0.000017
      4          7           0        1.767166   -1.091067    0.000015
      5          1           0        0.921585   -1.667452    0.000038
      6          1           0        2.313152    0.884683   -0.000025
 ---------------------------------------------------------------------

 SCF Done:  E(RHF) =  -950.729738316     A.U. after    2 cycles

 The electronic state is 1-A.
 Alpha  occ. eigenvalues -- -105.60863 -94.03726 -15.52309 -11.34996 -10.65573
 Alpha  occ. eigenvalues --   -8.31537  -7.82511  -7.82069  -7.82019  -6.29340
 Alpha  occ. eigenvalues --   -6.29075  -6.28807  -1.25478  -1.14047  -0.99498
 Alpha  occ. eigenvalues --   -0.84280  -0.70856  -0.65554  -0.56622  -0.55585
 Alpha  occ. eigenvalues --   -0.50905  -0.50620  -0.46049  -0.39511
 Alpha virt. eigenvalues --    0.03096   0.03838   0.06292   0.07221   0.08877
 Alpha virt. eigenvalues --    0.10489   0.11377   0.11836   0.13574   0.14505
 Alpha virt. eigenvalues --    0.15571   0.15588   0.16091   0.17925   0.20124

 Mulliken charges:
               1
     1  Cl  -0.285079
     2  S    0.539187
     3  C   -1.117175
     4  N    0.669378
     5  H    0.149637
     6  H    0.044052
 Sum of Mulliken charges =  -0.00000

 Dipole moment (field-independent basis, Debye):
    X=             -0.4356    Y=              1.6859    Z=             -0.0000  Tot=              1.7412

 Test job not archived.
 1\1\GINC-SE458\SP\RHF\Aug-CC-pVDZ\C1H2Cl1N1S1\OHZDE\09-Apr-2025\0\\#t
 hf aug-cc-pvdz iop(5/13=1,5/36=2,99/5=2) pseudo=read geom=check guess=
 (read,tcheck) scf=(maxcycle=1)\\title\\0,1\Cl,0,-1.408728,-0.521515,0.
 000008\S,0,-0.045935,1.028597,-0.00001\C,0,1.513073,0.138075,-0.000017
 \N,0,1.767166,-1.091067,0.000015\H,0,0.921585,-1.667452,0.000038\H,0,2
 .313152,0.884683,-0.000025\\Version=ES64L-G16RevC.01\State=1-A\HF=-950
 .7297383\RMSD=1.319e-02\Dipole=-0.1713747,0.6632673,-0.0000075\Quadrup
 ole=-1.1407287,2.0097018,-0.8689731,4.6067535,-0.0000869,-0.0000664\PG

 Normal termination of Gaussian 16 at Wed Apr  9 00:18:36 2025.
