 Gaussian 16, Revision C.01,

 ----------------------------------------------------------------------
 #t hf aug-cc-pvdz symm=none int=(grid=ultrafine) guess=(read,tcheck) s
 table=(opt,rrhf)
 ----------------------------------------------------------------------
 -----
 title
 -----
 Symbolic Z-matrix:
 Charge =  0 Multiplicity = 1

 SCF Done:  E(RHF) =  -722.258888293     A.U. after   12 cycles
 Normal termination of Gaussian 16 at Wed Apr  9 00:31:15 2025.
 Gaussian 16:  ES64L-G16RevC.01  3-Jul-2019

 ----------------------------------------------------------------------
 #t hf aug-cc-pvdz iop(5/13=1,5/36=2,99/5=2) pseudo=read geom=check gue
 ss=(read,tcheck) scf=(maxcycle=1)
 ----------------------------------------------------------------------
 -----
 title
 -----
 Structure from the checkpoint file:  "BDE49_nonexpt_363_mol1.chk"
 Charge =  0 Multiplicity = 1

                         Standard orientation:
 ---------------------------------------------------------------------
 Center     Atomic      Atomic             Coordinates (Angstroms)
 Number     Number       Type             X           Y           Z
 ---------------------------------------------------------------------
      1          9           0        1.005358    1.330841   -0.000018
      2          9           0        2.175370   -0.601876    0.000032
      3          5           0        1.000842    0.014551   -0.000010
      4          6           0       -0.300325   -0.859722    0.000005
      5         17           0       -1.834890    0.091078   -0.000008
      6          1           0       -0.317845   -1.511706    0.876100
      7          1           0       -0.317846   -1.511730   -0.876073
 ---------------------------------------------------------------------

 SCF Done:  E(RHF) =  -722.581556773     A.U. after    2 cycles

 The electronic state is 1-A.
 Alpha  occ. eigenvalues -- -105.57097 -26.49464 -26.49230 -11.31049 -10.61858
 Alpha  occ. eigenvalues --   -7.78805  -7.78413  -7.78413  -7.73945  -1.64639
 Alpha  occ. eigenvalues --   -1.60651  -1.11137  -0.93634  -0.81609  -0.75946
 Alpha  occ. eigenvalues --   -0.72643  -0.71348  -0.64692  -0.64143  -0.63582
 Alpha  occ. eigenvalues --   -0.58902  -0.56045  -0.45849  -0.45412
 Alpha virt. eigenvalues --    0.03209   0.04087   0.05295   0.05414   0.07464
 Alpha virt. eigenvalues --    0.09449   0.10095   0.13766   0.13973   0.15012
 Alpha virt. eigenvalues --    0.16050   0.16635   0.17378   0.18513   0.19905

 Mulliken charges:
               1
     1  F   -0.659151
     2  F   -0.682588
     3  B    1.697483
     4  C   -0.550952
     5  Cl  -0.187884
     6  H    0.191543
     7  H    0.191549
 Sum of Mulliken charges =  -0.00000

 Dipole moment (field-independent basis, Debye):
    X=              0.5304    Y=             -1.8034    Z=             -0.0000  Tot=              1.8798

 Test job not archived.
 1\1\GINC-SE177\SP\RHF\Aug-CC-pVDZ\C1H2B1Cl1F2\OHZDE\09-Apr-2025\0\\#t
 hf aug-cc-pvdz iop(5/13=1,5/36=2,99/5=2) pseudo=read geom=check guess=
 (read,tcheck) scf=(maxcycle=1)\\title\\0,1\F,0,1.005358,1.330841,-0.00
 0018\F,0,2.17537,-0.601876,0.000032\B,0,1.000842,0.014551,-0.00001\C,0
 ,-0.300325,-0.859722,0.000005\Cl,0,-1.83489,0.091078,-0.000008\H,0,-0.
 317845,-1.511706,0.8761\H,0,-0.317846,-1.51173,-0.876073\\Version=ES64
 L-G16RevC.01\State=1-A\HF=-722.5815568\RMSD=4.712e-03\Dipole=0.208683,
 -0.7095233,-0.0000163\Quadrupole=-3.4964053,0.98939,2.5070153,0.195351

 Normal termination of Gaussian 16 at Wed Apr  9 00:31:18 2025.
