 Gaussian 16, Revision C.01,

 ----------------------------------------------------------------------
 #t hf aug-cc-pvdz symm=none int=(grid=ultrafine) guess=(read,tcheck) s
 table=(opt,rrhf)
 ----------------------------------------------------------------------
 -----
 title
 -----
 Symbolic Z-matrix:
 Charge =  0 Multiplicity = 1

 SCF Done:  E(RHF) =  -778.898052588     A.U. after   16 cycles
 Normal termination of Gaussian 16 at Tue Apr  8 23:36:11 2025.
 Gaussian 16:  ES64L-G16RevC.01  3-Jul-2019

 ----------------------------------------------------------------------
 #t hf aug-cc-pvdz iop(5/13=1,5/36=2,99/5=2) pseudo=read geom=check gue
 ss=(read,tcheck) scf=(maxcycle=1)
 ----------------------------------------------------------------------
 -----
 title
 -----
 Structure from the checkpoint file:  "BDE49_nonexpt_1472_mol1.chk"
 Charge =  0 Multiplicity = 1

                         Standard orientation:
 ---------------------------------------------------------------------
 Center     Atomic      Atomic             Coordinates (Angstroms)
 Number     Number       Type             X           Y           Z
 ---------------------------------------------------------------------
      1          6           0       -3.109236   -0.404185    0.818538
      2          6           0       -1.943167   -1.094401    0.492840
      3          6           0       -3.275957    0.911894    0.395456
      4          6           0       -2.275799    1.535684   -0.350641
      5          6           0       -1.108336    0.849955   -0.673365
      6          6           0       -0.928670   -0.476207   -0.250214
      7          1           0       -1.821838   -2.125126    0.810415
      8          1           0       -3.886240   -0.894643    1.394311
      9          1           0       -4.184127    1.450532    0.642840
     10          1           0       -2.405666    2.560310   -0.681351
     11          1           0       -0.321351    1.340225   -1.231806
     12         15           0        0.554697   -1.489084   -0.656680
     13          7           0        1.848902   -0.789182    0.288966
     14          6           0        2.437430    0.448935    0.109322
     15          8           0        2.079862    1.227929   -0.751844
     16          6           0        3.556253    0.777166    1.085564
     17          1           0        4.138163   -0.101709    1.372405
     18          1           0        3.123343    1.211399    1.991712
     19          1           0        4.210814    1.518105    0.629695
     20          1           0        2.236642   -1.376629    1.012262
     21          1           0        0.893489   -0.838398   -1.863293
 ---------------------------------------------------------------------

 SCF Done:  E(RHF) =  -779.389263743     A.U. after    2 cycles

 The electronic state is 1-A.
 Alpha  occ. eigenvalues --  -84.30209 -20.51673 -15.52615 -11.36683 -11.25277
 Alpha  occ. eigenvalues --  -11.25008 -11.24916 -11.24500 -11.24410 -11.24361
 Alpha  occ. eigenvalues --  -11.24220  -6.76887  -4.29990  -4.29438  -4.28995
 Alpha  occ. eigenvalues --   -1.46624  -1.22255  -1.15550  -1.02983  -1.01849
 Alpha  occ. eigenvalues --   -1.01055  -0.88922  -0.83623  -0.82598  -0.79412
 Alpha  occ. eigenvalues --   -0.71382  -0.69506  -0.65062  -0.64405  -0.63609
 Alpha  occ. eigenvalues --   -0.63020  -0.60044  -0.59002  -0.57331  -0.56307
 Alpha  occ. eigenvalues --   -0.53375  -0.51046  -0.50625  -0.48269  -0.43448
 Alpha  occ. eigenvalues --   -0.42747  -0.35624  -0.34624  -0.34577
 Alpha virt. eigenvalues --    0.03136   0.03623   0.04028   0.04782   0.04992
 Alpha virt. eigenvalues --    0.05111   0.06166   0.06638   0.06960   0.08246
 Alpha virt. eigenvalues --    0.08739   0.09571   0.09863   0.10513   0.11027

 Mulliken charges:
               1
     1  C    0.376425
     2  C   -0.707830
     3  C    0.108559
     4  C    0.534136
     5  C    0.274243
     6  C    0.449706
     7  H   -0.235596
     8  H   -0.216058
     9  H   -0.210752
    10  H   -0.220675
    11  H   -0.303932
    12  P    0.160550
    13  N    0.630697
    14  C    0.321187
    15  O   -1.315301
    16  C   -0.491160
    17  H    0.145085
    18  H    0.258567
    19  H    0.185145
    20  H   -0.079898
    21  H    0.336903
 Sum of Mulliken charges =  -0.00000

 Dipole moment (field-independent basis, Debye):
    X=              0.4165    Y=             -1.0037    Z=              2.4299  Tot=              2.6618

 Test job not archived.
 1\1\GINC-SE453\SP\RHF\Aug-CC-pVDZ\C8H10N1O1P1\OHZDE\08-Apr-2025\0\\#t
 hf aug-cc-pvdz iop(5/13=1,5/36=2,99/5=2) pseudo=read geom=check guess=
 (read,tcheck) scf=(maxcycle=1)\\title\\0,1\C,0,3.109236,0.404185,0.818
 538\C,0,1.943167,1.094401,0.49284\C,0,3.275957,-0.911894,0.395456\C,0,
 2.275799,-1.535684,-0.350641\C,0,1.108336,-0.849955,-0.673365\C,0,0.92
 867,0.476207,-0.250214\H,0,1.821838,2.125126,0.810415\H,0,3.88624,0.89
 4643,1.394311\H,0,4.184127,-1.450532,0.64284\H,0,2.405666,-2.56031,-0.
 681351\H,0,0.321351,-1.340225,-1.231806\P,0,-0.554697,1.489084,-0.6566

 Normal termination of Gaussian 16 at Tue Apr  8 23:36:25 2025.
