 Gaussian 16, Revision C.01,

 ----------------------------------------------------------------------
 #t hf aug-cc-pvdz symm=none int=(grid=ultrafine) guess=(read,tcheck) s
 table=(opt,rrhf)
 ----------------------------------------------------------------------
 -----
 title
 -----
 Symbolic Z-matrix:
 Charge =  0 Multiplicity = 1

 SCF Done:  E(RHF) =  -318.415838713     A.U. after   12 cycles
 Normal termination of Gaussian 16 at Wed Apr  9 00:30:43 2025.
 Gaussian 16:  ES64L-G16RevC.01  3-Jul-2019

 ----------------------------------------------------------------------
 #t hf aug-cc-pvdz iop(5/13=1,5/36=2,99/5=2) pseudo=read geom=check gue
 ss=(read,tcheck) scf=(maxcycle=1)
 ----------------------------------------------------------------------
 -----
 title
 -----
 Structure from the checkpoint file:  "BDE49_nonexpt_352_mol1.chk"
 Charge =  0 Multiplicity = 1

                         Standard orientation:
 ---------------------------------------------------------------------
 Center     Atomic      Atomic             Coordinates (Angstroms)
 Number     Number       Type             X           Y           Z
 ---------------------------------------------------------------------
      1          9           0        1.697319   -0.725428   -0.000006
      2          9           0        0.679012    1.322150   -0.000010
      3          7           0       -0.677731   -0.639338    0.000005
      4          5           0        0.564765   -0.011795   -0.000007
      5          6           0       -1.972282    0.027927    0.000014
      6          1           0       -0.702420   -1.647622    0.000012
      7          1           0       -1.814609    1.106042   -0.000009
      8          1           0       -2.557972   -0.231054    0.887920
      9          1           0       -2.558000   -0.231088   -0.887864
 ---------------------------------------------------------------------

 SCF Done:  E(RHF) =  -318.722341380     A.U. after    2 cycles

 The electronic state is 1-A.
 Alpha  occ. eigenvalues --  -26.46162 -26.45997 -15.50730 -11.27762  -7.70579
 Alpha  occ. eigenvalues --   -1.60984  -1.57240  -1.21101  -0.94796  -0.79973
 Alpha  occ. eigenvalues --   -0.75891  -0.72677  -0.68436  -0.66305  -0.62049
 Alpha  occ. eigenvalues --   -0.61784  -0.61345  -0.60534  -0.55927  -0.44921
 Alpha virt. eigenvalues --    0.03107   0.04917   0.05016   0.05984   0.06826
 Alpha virt. eigenvalues --    0.06837   0.07372   0.09341   0.13947   0.14827
 Alpha virt. eigenvalues --    0.14920   0.17057   0.18986   0.19366   0.22605

 Mulliken charges:
               1
     1  F   -0.757097
     2  F   -0.591846
     3  N    0.248223
     4  B    1.329265
     5  C   -0.514255
     6  H    0.008038
     7  H    0.034971
     8  H    0.121351
     9  H    0.121350
 Sum of Mulliken charges =  -0.00000

 Dipole moment (field-independent basis, Debye):
    X=             -2.5014    Y=             -1.0444    Z=              0.0000  Tot=              2.7107

 Test job not archived.
 1\1\GINC-SE404\SP\RHF\Aug-CC-pVDZ\C1H4B1F2N1\OHZDE\09-Apr-2025\0\\#t h
 f aug-cc-pvdz iop(5/13=1,5/36=2,99/5=2) pseudo=read geom=check guess=(
 read,tcheck) scf=(maxcycle=1)\\title\\0,1\F,0,1.697319,-0.725428,-0.00
 0006\F,0,0.679012,1.32215,-0.00001\N,0,-0.677731,-0.639338,0.000005\B,
 0,0.564765,-0.011795,-0.000007\C,0,-1.972282,0.027928,0.000014\H,0,-0.
 702421,-1.647622,0.000012\H,0,-1.814609,1.106043,-0.000009\H,0,-2.5579
 72,-0.231053,0.88792\H,0,-2.558,-0.231087,-0.887864\\Version=ES64L-G16
 RevC.01\State=1-A\HF=-318.7223414\RMSD=7.943e-03\Dipole=-0.9841352,-0.

 Normal termination of Gaussian 16 at Wed Apr  9 00:30:46 2025.
