 Gaussian 16, Revision C.01,

 ----------------------------------------------------------------------
 #t hf aug-cc-pvdz symm=none int=(grid=ultrafine) guess=(read,tcheck) s
 table=(opt,rrhf)
 ----------------------------------------------------------------------
 -----
 title
 -----
 Symbolic Z-matrix:
 Charge =  0 Multiplicity = 1

 SCF Done:  E(RHF) =  -2312.33851114     A.U. after   13 cycles
 Normal termination of Gaussian 16 at Wed Apr  9 00:48:19 2025.
 Gaussian 16:  ES64L-G16RevC.01  3-Jul-2019

 ----------------------------------------------------------------------
 #t hf aug-cc-pvdz iop(5/13=1,5/36=2,99/5=2) pseudo=read geom=check gue
 ss=(read,tcheck) scf=(maxcycle=1)
 ----------------------------------------------------------------------
 -----
 title
 -----
 Structure from the checkpoint file:  "BDE49_nonexpt_867_mol1.chk"
 Charge =  0 Multiplicity = 1

                         Standard orientation:
 ---------------------------------------------------------------------
 Center     Atomic      Atomic             Coordinates (Angstroms)
 Number     Number       Type             X           Y           Z
 ---------------------------------------------------------------------
      1         16           0        0.838481   -1.193684   -0.529593
      2          5           0        2.048853    0.112245   -0.063849
      3         16           0        3.677150   -0.498810    0.467529
      4         16           0        1.811967    1.896145   -0.099453
      5         16           0       -0.905291   -0.223370   -1.162289
      6          6           0       -1.892993   -0.208885    0.382426
      7         17           0       -3.459451    0.557281   -0.036028
      8          9           0       -1.305122    0.494955    1.363146
      9          9           0       -2.115866   -1.440949    0.858962
     10          1           0        0.532894    1.862593   -0.523365
     11          1           0        3.423444   -1.814825    0.342472
 ---------------------------------------------------------------------

 SCF Done:  E(RHF) =  -2312.89175326     A.U. after    2 cycles

 The electronic state is 1-A.
 Alpha  occ. eigenvalues -- -105.61185 -94.02940 -94.00595 -93.97459 -93.97102
 Alpha  occ. eigenvalues --  -26.52960 -26.52870 -11.53996 -10.66050  -8.30878
 Alpha  occ. eigenvalues --   -8.28712  -8.25739  -8.25434  -7.82993  -7.82569
 Alpha  occ. eigenvalues --   -7.82557  -7.69923  -6.28634  -6.28450  -6.28187
 Alpha  occ. eigenvalues --   -6.26512  -6.26255  -6.26110  -6.23569  -6.23434
 Alpha  occ. eigenvalues --   -6.23261  -6.23251  -6.23134  -6.22958  -1.70912
 Alpha  occ. eigenvalues --   -1.63271  -1.16720  -1.12026  -1.06806  -1.02487
 Alpha  occ. eigenvalues --   -0.98180  -0.90325  -0.80563  -0.77715  -0.76988
 Alpha  occ. eigenvalues --   -0.69104  -0.68691  -0.65215  -0.64870  -0.60943
 Alpha  occ. eigenvalues --   -0.55909  -0.55219  -0.53707  -0.51396  -0.51137
 Alpha  occ. eigenvalues --   -0.48063  -0.47684  -0.47031  -0.41960  -0.40473
 Alpha  occ. eigenvalues --   -0.39174
 Alpha virt. eigenvalues --    0.03745   0.04472   0.05285   0.05545   0.06860
 Alpha virt. eigenvalues --    0.07274   0.08047   0.08298   0.09247   0.09417
 Alpha virt. eigenvalues --    0.09896   0.10481   0.11191   0.11519   0.12998

 Mulliken charges:
               1
     1  S   -0.356169
     2  B    1.303884
     3  S   -0.717696
     4  S   -0.586328
     5  S    0.018979
     6  C    1.094431
     7  Cl  -0.025584
     8  F   -0.693765
     9  F   -0.626088
    10  H    0.323110
    11  H    0.265227
 Sum of Mulliken charges =   0.00000

 Dipole moment (field-independent basis, Debye):
    X=             -0.2141    Y=             -0.5221    Z=             -0.6703  Tot=              0.8762

 Test job not archived.
 1\1\GINC-SE435\SP\RHF\Aug-CC-pVDZ\C1H2B1Cl1F2S4\OHZDE\09-Apr-2025\0\\#
 t hf aug-cc-pvdz iop(5/13=1,5/36=2,99/5=2) pseudo=read geom=check gues
 s=(read,tcheck) scf=(maxcycle=1)\\title\\0,1\S,0,0.838481,-1.193684,-0
 .529593\B,0,2.048853,0.112245,-0.063849\S,0,3.67715,-0.49881,0.467529\
 S,0,1.811967,1.896145,-0.099453\S,0,-0.905291,-0.22337,-1.162289\C,0,-
 1.892993,-0.208885,0.382426\Cl,0,-3.459451,0.557281,-0.036028\F,0,-1.3
 05122,0.494955,1.363146\F,0,-2.115866,-1.440949,0.858962\H,0,0.532894,
 1.862593,-0.523365\H,0,3.423444,-1.814825,0.342472\\Version=ES64L-G16R

 Normal termination of Gaussian 16 at Wed Apr  9 00:48:26 2025.
