 Gaussian 16, Revision C.01,

 ----------------------------------------------------------------------
 #t hf aug-cc-pvdz symm=none int=(grid=ultrafine) guess=(read,tcheck) s
 table=(opt,rrhf)
 ----------------------------------------------------------------------
 -----
 title
 -----
 Symbolic Z-matrix:
 Charge =  0 Multiplicity = 1

 SCF Done:  E(RHF) =  -957.428626404     A.U. after   15 cycles
 Normal termination of Gaussian 16 at Wed Apr  9 00:16:27 2025.
 Gaussian 16:  ES64L-G16RevC.01  3-Jul-2019

 ----------------------------------------------------------------------
 #t hf aug-cc-pvdz iop(5/13=1,5/36=2,99/5=2) pseudo=read geom=check gue
 ss=(read,tcheck) scf=(maxcycle=1)
 ----------------------------------------------------------------------
 -----
 title
 -----
 Structure from the checkpoint file:  "BDE49_nonexpt_2497_mol1.chk"
 Charge =  0 Multiplicity = 1

                         Standard orientation:
 ---------------------------------------------------------------------
 Center     Atomic      Atomic             Coordinates (Angstroms)
 Number     Number       Type             X           Y           Z
 ---------------------------------------------------------------------
      1         14           0       -2.360048   -0.117168   -0.525610
      2         16           0       -1.056492   -0.994788    0.968884
      3          6           0        0.546882   -0.403092    0.390291
      4          6           0        1.227332   -1.081782   -0.625439
      5          6           0        2.486188   -0.646577   -1.032955
      6          6           0        1.143558    0.703835    1.001441
      7          6           0        2.405302    1.131033    0.592408
      8          6           0        3.077971    0.459665   -0.426302
      9          1           0        4.059532    0.793590   -0.742622
     10          1           0        3.006580   -1.177962   -1.821926
     11          1           0        0.771296   -1.948969   -1.087188
     12          1           0        0.620376    1.220946    1.796521
     13          1           0        2.861754    1.989236    1.072876
     14          6           0       -2.335657    1.756131   -0.523903
     15          1           0       -2.660544    2.151421    0.441494
     16          1           0       -3.008692    2.138998   -1.297803
     17          1           0       -1.331704    2.134527   -0.731301
     18          1           0       -3.698604   -0.636112   -0.160097
     19          1           0       -1.984910   -0.623991   -1.866813
 ---------------------------------------------------------------------

 SCF Done:  E(RHF) =  -957.806042516     A.U. after    2 cycles

 The electronic state is 1-A.
 Alpha  occ. eigenvalues --  -93.93824 -69.54996 -11.28062 -11.25261 -11.25248
 Alpha  occ. eigenvalues --  -11.25186 -11.25115 -11.25087 -11.22421  -8.22064
 Alpha  occ. eigenvalues --   -6.21813  -6.19862  -6.19726  -6.19538  -3.97212
 Alpha  occ. eigenvalues --   -3.97124  -3.97090  -1.16868  -1.06225  -1.02580
 Alpha  occ. eigenvalues --   -0.97187  -0.94761  -0.84505  -0.82004  -0.72392
 Alpha  occ. eigenvalues --   -0.69696  -0.65364  -0.64229  -0.60829  -0.58258
 Alpha  occ. eigenvalues --   -0.57609  -0.56805  -0.53040  -0.51655  -0.50240
 Alpha  occ. eigenvalues --   -0.48255  -0.47305  -0.44676  -0.37046  -0.35437
 Alpha  occ. eigenvalues --   -0.34127
 Alpha virt. eigenvalues --    0.03264   0.03507   0.03593   0.04411   0.04932
 Alpha virt. eigenvalues --    0.05050   0.06689   0.07112   0.07276   0.07902
 Alpha virt. eigenvalues --    0.08395   0.09122   0.09578   0.09998   0.11601

 Mulliken charges:
               1
     1  Si   1.566378
     2  S   -0.401212
     3  C    0.504096
     4  C   -0.246420
     5  C    0.399297
     6  C   -0.184865
     7  C    0.340446
     8  C    0.049245
     9  H   -0.206940
    10  H   -0.217460
    11  H   -0.245559
    12  H   -0.254390
    13  H   -0.219660
    14  C   -0.607334
    15  H    0.061222
    16  H    0.019652
    17  H    0.049671
    18  H   -0.232950
    19  H   -0.173218
 Sum of Mulliken charges =  -0.00000

 Dipole moment (field-independent basis, Debye):
    X=              0.7583    Y=              1.6299    Z=             -1.2455  Tot=              2.1870

 Test job not archived.
 1\1\GINC-SE187\SP\RHF\Aug-CC-pVDZ\C7H10S1Si1\OHZDE\09-Apr-2025\0\\#t h
 f aug-cc-pvdz iop(5/13=1,5/36=2,99/5=2) pseudo=read geom=check guess=(
 read,tcheck) scf=(maxcycle=1)\\title\\0,1\Si,0,2.360048,-0.117168,0.52
 561\S,0,1.056492,-0.994788,-0.968884\C,0,-0.546882,-0.403092,-0.390291
 \C,0,-1.227332,-1.081782,0.625439\C,0,-2.486188,-0.646577,1.032955\C,0
 ,-1.143558,0.703835,-1.001441\C,0,-2.405302,1.131033,-0.592408\C,0,-3.
 077971,0.459665,0.426302\H,0,-4.059532,0.79359,0.742622\H,0,-3.00658,-
 1.177962,1.821926\H,0,-0.771296,-1.948969,1.087188\H,0,-0.620376,1.220

 Normal termination of Gaussian 16 at Wed Apr  9 00:16:39 2025.
