 Gaussian 16, Revision C.01,

 ----------------------------------------------------------------------
 #t hf aug-cc-pvdz symm=none int=(grid=ultrafine) guess=(read,tcheck) s
 table=(opt,rrhf)
 ----------------------------------------------------------------------
 -----
 title
 -----
 Symbolic Z-matrix:
 Charge =  0 Multiplicity = 1

 SCF Done:  E(RHF) =  -1390.23262466     A.U. after   13 cycles
 Normal termination of Gaussian 16 at Tue Apr  8 23:38:08 2025.
 Gaussian 16:  ES64L-G16RevC.01  3-Jul-2019

 ----------------------------------------------------------------------
 #t hf aug-cc-pvdz iop(5/13=1,5/36=2,99/5=2) pseudo=read geom=check gue
 ss=(read,tcheck) scf=(maxcycle=1)
 ----------------------------------------------------------------------
 -----
 title
 -----
 Structure from the checkpoint file:  "BDE49_nonexpt_1568_mol1.chk"
 Charge =  0 Multiplicity = 1

                         Standard orientation:
 ---------------------------------------------------------------------
 Center     Atomic      Atomic             Coordinates (Angstroms)
 Number     Number       Type             X           Y           Z
 ---------------------------------------------------------------------
      1         15           0        0.099447   -0.117175    0.873523
      2          7           0       -0.687986    1.338121    0.535641
      3         17           0        1.832184   -0.126284   -0.344723
      4         17           0       -1.114679   -1.381892   -0.276281
      5          8           0       -0.844696    1.792942   -0.799233
      6          1           0       -1.762631    1.572190   -1.001998
      7          1           0       -0.353184    2.114042    1.100602
 ---------------------------------------------------------------------

 SCF Done:  E(RHF) =  -1390.56153222     A.U. after    2 cycles

 The electronic state is 1-A.
 Alpha  occ. eigenvalues -- -105.58137-105.57052 -84.41407 -20.61917 -15.59259
 Alpha  occ. eigenvalues --  -10.63059 -10.61956  -7.79962  -7.79582  -7.79569
 Alpha  occ. eigenvalues --   -7.78850  -7.78487  -7.78470  -6.87350  -4.39632
 Alpha  occ. eigenvalues --   -4.38877  -4.38525  -1.51966  -1.18034  -1.08426
 Alpha  occ. eigenvalues --   -1.04540  -0.83834  -0.74376  -0.70978  -0.64829
 Alpha  occ. eigenvalues --   -0.57723  -0.54200  -0.51194  -0.50160  -0.49008
 Alpha  occ. eigenvalues --   -0.46610  -0.45842  -0.38920
 Alpha virt. eigenvalues --    0.03435   0.04759   0.07159   0.07418   0.07976
 Alpha virt. eigenvalues --    0.10890   0.12413   0.12583   0.13890   0.14617
 Alpha virt. eigenvalues --    0.15012   0.16317   0.16585   0.17844   0.18647

 Mulliken charges:
               1
     1  P    1.058220
     2  N    0.425253
     3  Cl  -0.448126
     4  Cl  -0.444000
     5  O   -1.020039
     6  H    0.316704
     7  H    0.111988
 Sum of Mulliken charges =   0.00000

 Dipole moment (field-independent basis, Debye):
    X=             -1.3623    Y=              1.5033    Z=              1.5556  Tot=              2.5565

 Test job not archived.
 1\1\GINC-SE398\SP\RHF\Aug-CC-pVDZ\Cl2H2N1O1P1\OHZDE\08-Apr-2025\0\\#t
 hf aug-cc-pvdz iop(5/13=1,5/36=2,99/5=2) pseudo=read geom=check guess=
 (read,tcheck) scf=(maxcycle=1)\\title\\0,1\P,0,0.099447,-0.117175,0.87
 3523\N,0,-0.687987,1.338121,0.535641\Cl,0,1.832184,-0.126283,-0.344723
 \Cl,0,-1.114678,-1.381892,-0.276281\O,0,-0.844697,1.792942,-0.799233\H
 ,0,-1.762632,1.572189,-1.001998\H,0,-0.353185,2.114042,1.100602\\Versi
 on=ES64L-G16RevC.01\State=1-A\HF=-1390.5615322\RMSD=1.042e-02\Dipole=-
 0.535963,0.5914605,0.6120027\Quadrupole=-0.4828216,0.1742897,0.3085319

 Normal termination of Gaussian 16 at Tue Apr  8 23:38:10 2025.
