 Gaussian 16, Revision C.01,

 ----------------------------------------------------------------------
 #t hf aug-cc-pvdz symm=none int=(grid=ultrafine) guess=(read,tcheck) s
 table=(opt,rrhf)
 ----------------------------------------------------------------------
 -----
 title
 -----
 Symbolic Z-matrix:
 Charge =  0 Multiplicity = 1

 SCF Done:  E(RHF) =  -713.573501652     A.U. after   14 cycles
 Normal termination of Gaussian 16 at Wed Apr  9 00:32:46 2025.
 Gaussian 16:  ES64L-G16RevC.01  3-Jul-2019

 ----------------------------------------------------------------------
 #t hf aug-cc-pvdz iop(5/13=1,5/36=2,99/5=2) pseudo=read geom=check gue
 ss=(read,tcheck) scf=(maxcycle=1)
 ----------------------------------------------------------------------
 -----
 title
 -----
 Structure from the checkpoint file:  "BDE49_nonexpt_388_mol1.chk"
 Charge =  0 Multiplicity = 1

                         Standard orientation:
 ---------------------------------------------------------------------
 Center     Atomic      Atomic             Coordinates (Angstroms)
 Number     Number       Type             X           Y           Z
 ---------------------------------------------------------------------
      1          9           0        2.272680   -0.274794    0.000010
      2          9           0        0.832887    1.499822   -0.000012
      3          5           0        1.046548    0.206697   -0.000001
      4          6           0       -1.656621    0.003316   -0.000001
      5          7           0       -2.622773    0.638447    0.000010
      6         16           0       -0.305232   -1.034235   -0.000003
 ---------------------------------------------------------------------

 SCF Done:  E(RHF) =  -713.919189292     A.U. after    2 cycles

 The electronic state is 1-A.
 Alpha  occ. eigenvalues --  -94.03913 -26.52552 -26.52469 -15.54554 -11.32582
 Alpha  occ. eigenvalues --   -8.32134  -7.79826  -6.29963  -6.29737  -6.29557
 Alpha  occ. eigenvalues --   -1.67810  -1.64169  -1.26281  -1.12459  -0.85286
 Alpha  occ. eigenvalues --   -0.79975  -0.77654  -0.74110  -0.69635  -0.67811
 Alpha  occ. eigenvalues --   -0.66925  -0.62285  -0.58518  -0.57451  -0.50392
 Alpha  occ. eigenvalues --   -0.44767
 Alpha virt. eigenvalues --    0.04044   0.04405   0.04889   0.05065   0.09051
 Alpha virt. eigenvalues --    0.09520   0.10260   0.10543   0.12157   0.13175
 Alpha virt. eigenvalues --    0.13457   0.14749   0.16289   0.17514   0.18406

 Mulliken charges:
               1
     1  F   -0.628784
     2  F   -0.463113
     3  B    1.691786
     4  C   -1.490650
     5  N    0.690534
     6  S    0.200227
 Sum of Mulliken charges =  -0.00000

 Dipole moment (field-independent basis, Debye):
    X=              3.0808    Y=             -1.9813    Z=             -0.0000  Tot=              3.6629

 Test job not archived.
 1\1\GINC-SE096\SP\RHF\Aug-CC-pVDZ\C1B1F2N1S1\OHZDE\09-Apr-2025\0\\#t h
 f aug-cc-pvdz iop(5/13=1,5/36=2,99/5=2) pseudo=read geom=check guess=(
 read,tcheck) scf=(maxcycle=1)\\title\\0,1\F,0,2.27268,-0.274794,0.0000
 1\F,0,0.832887,1.499822,-0.000012\B,0,1.046548,0.206697,-0.000001\C,0,
 -1.656621,0.003316,-0.000001\N,0,-2.622773,0.638447,0.00001\S,0,-0.305
 232,-1.034235,-0.000003\\Version=ES64L-G16RevC.01\State=1-A\HF=-713.91
 91893\RMSD=1.029e-02\Dipole=1.2120987,-0.7794874,-0.0000091\Quadrupole
 =-5.6583157,1.9414084,3.7169073,3.0182669,0.0000308,0.0000103\PG=C01 [

 Normal termination of Gaussian 16 at Wed Apr  9 00:32:53 2025.
