 Gaussian 16, Revision C.01,

 ----------------------------------------------------------------------
 #t hf aug-cc-pvdz symm=none int=(grid=ultrafine) guess=(read,tcheck) s
 table=(opt,rrhf)
 ----------------------------------------------------------------------
 -----
 title
 -----
 Symbolic Z-matrix:
 Charge =  0 Multiplicity = 1

 SCF Done:  E(RHF) =  -1085.35381962     A.U. after   14 cycles
 Normal termination of Gaussian 16 at Tue Apr  8 23:00:46 2025.
 Gaussian 16:  ES64L-G16RevC.01  3-Jul-2019

 ----------------------------------------------------------------------
 #t hf aug-cc-pvdz iop(5/13=1,5/36=2,99/5=2) pseudo=read geom=check gue
 ss=(read,tcheck) scf=(maxcycle=1)
 ----------------------------------------------------------------------
 -----
 title
 -----
 Structure from the checkpoint file:  "BDE49_expt_1981_mol1.chk"
 Charge =  0 Multiplicity = 1

                         Standard orientation:
 ---------------------------------------------------------------------
 Center     Atomic      Atomic             Coordinates (Angstroms)
 Number     Number       Type             X           Y           Z
 ---------------------------------------------------------------------
      1          6           0       -1.352521   -0.190098   -0.731355
      2         17           0        1.181649    1.327526   -0.040254
      3         16           0        0.229854   -0.577556    0.060629
      4          6           0       -2.241095    0.730722    0.090685
      5          1           0       -1.787957   -1.184903   -0.866222
      6          1           0       -1.086398    0.210049   -1.709982
      7          1           0       -2.439794    0.306724    1.075088
      8          1           0       -3.193131    0.858965   -0.430165
      9          1           0       -1.787402    1.714295    0.216749
     10          8           0        0.981499   -1.450636   -0.795576
     11          8           0        0.029837   -0.858854    1.454676
 ---------------------------------------------------------------------

 SCF Done:  E(RHF) =  -1085.72620115     A.U. after    2 cycles

 The electronic state is 1-A.
 Alpha  occ. eigenvalues -- -105.59307 -94.24604 -20.57906 -20.57851 -11.32266
 Alpha  occ. eigenvalues --  -11.27168 -10.64147  -8.49676  -7.81057  -7.80654
 Alpha  occ. eigenvalues --   -7.80635  -6.47732  -6.47582  -6.47388  -1.59861
 Alpha  occ. eigenvalues --   -1.47999  -1.13463  -1.07740  -0.95552  -0.84361
 Alpha  occ. eigenvalues --   -0.72431  -0.71752  -0.68667  -0.66391  -0.61409
 Alpha  occ. eigenvalues --   -0.58152  -0.55901  -0.54146  -0.52553  -0.50820
 Alpha  occ. eigenvalues --   -0.49342  -0.47212  -0.46837
 Alpha virt. eigenvalues --    0.02632   0.04006   0.04316   0.04946   0.06435
 Alpha virt. eigenvalues --    0.07452   0.09886   0.10436   0.11344   0.11911
 Alpha virt. eigenvalues --    0.14055   0.14248   0.15221   0.15555   0.16600

 Mulliken charges:
               1
     1  C   -0.937886
     2  Cl  -0.228742
     3  S    3.317914
     4  C   -0.307092
     5  H    0.278742
     6  H    0.230323
     7  H    0.218961
     8  H    0.162707
     9  H    0.184861
    10  O   -1.466053
    11  O   -1.453735
 Sum of Mulliken charges =  -0.00000

 Dipole moment (field-independent basis, Debye):
    X=             -3.9813    Y=              1.4988    Z=             -1.6817  Tot=              4.5744

 Test job not archived.
 1\1\GINC-SE051\SP\RHF\Aug-CC-pVDZ\C2H5Cl1O2S1\OHZDE\08-Apr-2025\0\\#t
 hf aug-cc-pvdz iop(5/13=1,5/36=2,99/5=2) pseudo=read geom=check guess=
 (read,tcheck) scf=(maxcycle=1)\\title\\0,1\C,0,-1.352521,-0.190099,-0.
 731355\Cl,0,1.181648,1.327527,-0.040254\S,0,0.229854,-0.577556,0.06062
 9\C,0,-2.241095,0.730721,0.090685\H,0,-1.787956,-1.184904,-0.866222\H,
 0,-1.086398,0.210049,-1.709982\H,0,-2.439794,0.306723,1.075088\H,0,-3.
 193131,0.858964,-0.430165\H,0,-1.787403,1.714294,0.216749\O,0,0.9815,-
 1.450636,-0.795576\O,0,0.029837,-0.858854,1.454676\\Version=ES64L-G16R

 Normal termination of Gaussian 16 at Tue Apr  8 23:00:51 2025.
