 Gaussian 16, Revision C.01,

 ----------------------------------------------------------------------
 #t hf aug-cc-pvdz symm=none int=(grid=ultrafine) guess=(read,tcheck) s
 table=(opt,rrhf)
 ----------------------------------------------------------------------
 -----
 title
 -----
 Symbolic Z-matrix:
 Charge =  0 Multiplicity = 1

 SCF Done:  E(RHF) =  -896.885561328     A.U. after   14 cycles
 Normal termination of Gaussian 16 at Tue Apr  8 22:55:59 2025.
 Gaussian 16:  ES64L-G16RevC.01  3-Jul-2019

 ----------------------------------------------------------------------
 #t hf aug-cc-pvdz iop(5/13=1,5/36=2,99/5=2) pseudo=read geom=check gue
 ss=(read,tcheck) scf=(maxcycle=1)
 ----------------------------------------------------------------------
 -----
 title
 -----
 Structure from the checkpoint file:  "BDE49_expt_1870_mol1.chk"
 Charge =  0 Multiplicity = 1

                         Standard orientation:
 ---------------------------------------------------------------------
 Center     Atomic      Atomic             Coordinates (Angstroms)
 Number     Number       Type             X           Y           Z
 ---------------------------------------------------------------------
      1          8           0        0.886297    0.071439    0.738338
      2          8           0        0.000000    0.919442   -0.000001
      3          8           0       -0.886296    0.071434   -0.738336
      4          6           0        2.061715   -0.077851    0.001492
      5          9           0        2.838763   -0.834225    0.764733
      6          9           0        2.651219    1.092363   -0.226878
      7          9           0        1.847601   -0.678379   -1.165361
      8          6           0       -2.061715   -0.077851   -0.001492
      9          9           0       -2.838761   -0.834231   -0.764730
     10          9           0       -2.651220    1.092365    0.226869
     11          9           0       -1.847604   -0.678371    1.165365
 ---------------------------------------------------------------------

 SCF Done:  E(RHF) =  -897.706683741     A.U. after    2 cycles

 The electronic state is 1-A.
 Alpha  occ. eigenvalues --  -26.54765 -26.54765 -26.54312 -26.54312 -26.54290
 Alpha  occ. eigenvalues --  -26.54290 -20.76537 -20.70866 -20.70852 -11.60820
 Alpha  occ. eigenvalues --  -11.60818  -1.79031  -1.77376  -1.71952  -1.66270
 Alpha  occ. eigenvalues --   -1.66212  -1.65691  -1.65627  -1.55139  -1.30998
 Alpha  occ. eigenvalues --   -0.99131  -0.97420  -0.88703  -0.87493  -0.87093
 Alpha  occ. eigenvalues --   -0.86347  -0.85957  -0.84041  -0.75619  -0.74813
 Alpha  occ. eigenvalues --   -0.72635  -0.72629  -0.70849  -0.69726  -0.69567
 Alpha  occ. eigenvalues --   -0.67637  -0.67341  -0.66747  -0.66548  -0.65655
 Alpha  occ. eigenvalues --   -0.65630  -0.65063  -0.58468  -0.56639  -0.55055
 Alpha virt. eigenvalues --    0.07837   0.08164   0.08328   0.08556   0.10022
 Alpha virt. eigenvalues --    0.10568   0.10687   0.13194   0.15871   0.18880
 Alpha virt. eigenvalues --    0.19675   0.20091   0.21097   0.21935   0.23843

 Mulliken charges:
               1
     1  O   -0.835385
     2  O   -0.261316
     3  O   -0.835385
     4  C    2.944650
     5  F   -0.650160
     6  F   -0.663300
     7  F   -0.665147
     8  C    2.944650
     9  F   -0.650160
    10  F   -0.663300
    11  F   -0.665146
 Sum of Mulliken charges =  -0.00000

 Dipole moment (field-independent basis, Debye):
    X=              0.0000    Y=             -0.0053    Z=              0.0000  Tot=              0.0053

 Test job not archived.
 1\1\GINC-SE362\SP\RHF\Aug-CC-pVDZ\C2F6O3\OHZDE\08-Apr-2025\0\\#t hf au
 g-cc-pvdz iop(5/13=1,5/36=2,99/5=2) pseudo=read geom=check guess=(read
 ,tcheck) scf=(maxcycle=1)\\title\\0,1\O,0,0.886297,0.071439,0.738338\O
 ,0,0.,0.919442,-0.000001\O,0,-0.886296,0.071434,-0.738336\C,0,2.061715
 ,-0.077851,0.001492\F,0,2.838763,-0.834225,0.764733\F,0,2.651219,1.092
 363,-0.226878\F,0,1.847601,-0.678379,-1.165361\C,0,-2.061715,-0.077851
 ,-0.001492\F,0,-2.838761,-0.834231,-0.76473\F,0,-2.65122,1.092365,0.22
 6869\F,0,-1.847604,-0.678371,1.165365\\Version=ES64L-G16RevC.01\State=

 Normal termination of Gaussian 16 at Tue Apr  8 22:56:04 2025.
