 Gaussian 16, Revision C.01,

 ----------------------------------------------------------------------
 #t hf aug-cc-pvdz symm=none int=(grid=ultrafine) guess=(read,tcheck) s
 table=(opt,rrhf)
 ----------------------------------------------------------------------
 -----
 title
 -----
 Symbolic Z-matrix:
 Charge =  0 Multiplicity = 1

 SCF Done:  E(RHF) =  -874.306838945     A.U. after   13 cycles
 Normal termination of Gaussian 16 at Wed Apr  9 00:26:00 2025.
 Gaussian 16:  ES64L-G16RevC.01  3-Jul-2019

 ----------------------------------------------------------------------
 #t hf aug-cc-pvdz iop(5/13=1,5/36=2,99/5=2) pseudo=read geom=check gue
 ss=(read,tcheck) scf=(maxcycle=1)
 ----------------------------------------------------------------------
 -----
 title
 -----
 Structure from the checkpoint file:  "BDE49_nonexpt_2740_mol1.chk"
 Charge =  0 Multiplicity = 1

                         Standard orientation:
 ---------------------------------------------------------------------
 Center     Atomic      Atomic             Coordinates (Angstroms)
 Number     Number       Type             X           Y           Z
 ---------------------------------------------------------------------
      1         16           0       -1.589808   -0.529521    0.149576
      2         16           0       -0.181380    0.963806   -0.239113
      3          6           0        1.367429    0.304813    0.505572
      4          6           0        1.987409   -0.871362   -0.236260
      5          1           0        1.163538    0.065703    1.550396
      6          1           0        2.028845    1.177600    0.488565
      7          1           0        1.320498   -1.736479   -0.226046
      8          1           0        2.924437   -1.169647    0.244385
      9          1           0        2.201588   -0.614320   -1.276092
     10          1           0       -1.428917   -1.272125   -0.964489
 ---------------------------------------------------------------------

 SCF Done:  E(RHF) =  -874.518232570     A.U. after    2 cycles

 The electronic state is 1-A.
 Alpha  occ. eigenvalues --  -93.97841 -93.97351 -11.27895 -11.24084  -8.25779
 Alpha  occ. eigenvalues --   -8.25259  -6.23601  -6.23431  -6.23190  -6.23068
 Alpha  occ. eigenvalues --   -6.22845  -6.22624  -1.11182  -1.02979  -0.92162
 Alpha  occ. eigenvalues --   -0.81436  -0.64647  -0.61200  -0.56980  -0.55820
 Alpha  occ. eigenvalues --   -0.52168  -0.49810  -0.46019  -0.37952  -0.36821
 Alpha virt. eigenvalues --    0.03607   0.03905   0.04567   0.05131   0.06878
 Alpha virt. eigenvalues --    0.07783   0.08271   0.09647   0.12392   0.12889
 Alpha virt. eigenvalues --    0.14033   0.14637   0.14781   0.15639   0.16486

 Mulliken charges:
               1
     1  S   -0.380049
     2  S    0.141541
     3  C   -0.757404
     4  C   -0.363852
     5  H    0.197547
     6  H    0.263973
     7  H    0.177717
     8  H    0.139782
     9  H    0.181560
    10  H    0.399185
 Sum of Mulliken charges =  -0.00000

 Dipole moment (field-independent basis, Debye):
    X=              1.8746    Y=             -1.1148    Z=             -0.1112  Tot=              2.1839

 Test job not archived.
 1\1\GINC-SE044\SP\RHF\Aug-CC-pVDZ\C2H6S2\OHZDE\09-Apr-2025\0\\#t hf au
 g-cc-pvdz iop(5/13=1,5/36=2,99/5=2) pseudo=read geom=check guess=(read
 ,tcheck) scf=(maxcycle=1)\\title\\0,1\S,0,-1.589808,-0.529521,0.149576
 \S,0,-0.18138,0.963806,-0.239113\C,0,1.367429,0.304813,0.505572\C,0,1.
 987409,-0.871362,-0.23626\H,0,1.163538,0.065703,1.550396\H,0,2.028845,
 1.1776,0.488565\H,0,1.320499,-1.736479,-0.226046\H,0,2.924437,-1.16964
 6,0.244385\H,0,2.201588,-0.61432,-1.276092\H,0,-1.428917,-1.272125,-0.
 964489\\Version=ES64L-G16RevC.01\State=1-A\HF=-874.5182326\RMSD=5.975e

 Normal termination of Gaussian 16 at Wed Apr  9 00:26:04 2025.
