 Gaussian 16, Revision C.01,

 ----------------------------------------------------------------------
 #t hf aug-cc-pvdz symm=none int=(grid=ultrafine) guess=(read,tcheck) s
 table=opt
 ----------------------------------------------------------------------
 -----
 title
 -----
 Symbolic Z-matrix:
 Charge =  0 Multiplicity = 2

 SCF Done:  E(UHF) =  -440.471863611     A.U. after   14 cycles

 1\1\GINC-SE220\Stability\UHF\Aug-CC-pVDZ\H3O2Si1\OHZDE\08-Apr-2025\0\\
 #t hf aug-cc-pvdz symm=none int=(grid=ultrafine) guess=(read,tcheck) s
 table=opt\\title\\0,2\Si,0,-0.001116,0.490808,-0.142004\O,0,1.375505,-
 0.387241,0.133887\H,0,1.583634,-1.112588,-0.461112\O,0,-1.37798,-0.414
 93,-0.041306\H,0,-1.595445,-0.867848,0.780029\H,0,0.047231,1.526491,0.
 928494\\Version=ES64L-G16RevC.01\HF=-440.4718636\S2=0.753542\S2-1=0.\S
 2A=0.750006\RMSD=7.141e-09\Dipole=-0.0092172,-0.4387579,0.0868839\Quad
 rupole=-1.802579,1.3882444,0.4143346,-0.7008039,-3.4811972,-0.0980543\

 Normal termination of Gaussian 16 at Tue Apr  8 23:49:52 2025.
 Gaussian 16:  ES64L-G16RevC.01  3-Jul-2019

 ----------------------------------------------------------------------
 #t hf aug-cc-pvdz iop(5/13=1,5/36=2,99/5=2) pseudo=read geom=check gue
 ss=(read,tcheck) scf=(maxcycle=1)
 ----------------------------------------------------------------------
 -----
 title
 -----
 Structure from the checkpoint file:  "BDE49_nonexpt_1862_mol2.chk"
 Charge =  0 Multiplicity = 2

                         Standard orientation:
 ---------------------------------------------------------------------
 Center     Atomic      Atomic             Coordinates (Angstroms)
 Number     Number       Type             X           Y           Z
 ---------------------------------------------------------------------
      1         14           0       -0.001116    0.490808   -0.142004
      2          8           0        1.375505   -0.387241    0.133887
      3          1           0        1.583634   -1.112588   -0.461112
      4          8           0       -1.377980   -0.414930   -0.041306
      5          1           0       -1.595445   -0.867848    0.780029
      6          1           0        0.047232    1.526491    0.928494
 ---------------------------------------------------------------------

 SCF Done:  E(UHF) =  -440.649539446     A.U. after    2 cycles

 The electronic state is 2-A.
 Alpha  occ. eigenvalues --  -69.59243 -20.55913 -20.55613  -6.25540  -4.01319
 Alpha  occ. eigenvalues --   -4.00724  -4.00527  -1.45516  -1.43309  -0.78846
 Alpha  occ. eigenvalues --   -0.71798  -0.60159  -0.58693  -0.56924  -0.50402
 Alpha  occ. eigenvalues --   -0.49582  -0.34525
 Alpha virt. eigenvalues --    0.03437   0.04773   0.05487   0.06324   0.07727
 Alpha virt. eigenvalues --    0.08673   0.13123   0.16613   0.18066   0.19314
 Alpha virt. eigenvalues --    0.20890   0.21820   0.22063   0.23631   0.25278

  Beta  occ. eigenvalues --  -69.58686 -20.55515 -20.55438  -6.24630  -4.00370
  Beta  occ. eigenvalues --   -4.00204  -3.99383  -1.44669  -1.42522  -0.76538
  Beta  occ. eigenvalues --   -0.70799  -0.58982  -0.57453  -0.53800  -0.49632
  Beta  occ. eigenvalues --   -0.48363
  Beta virt. eigenvalues --    0.02809   0.04314   0.05186   0.06015   0.07190
  Beta virt. eigenvalues --    0.08160   0.09514   0.14821   0.17918   0.19302
  Beta virt. eigenvalues --    0.20147   0.21413   0.22583   0.22976   0.24446

 Mulliken charges and spin densities:
               1          2
     1  Si   1.895561   0.883898
     2  O   -1.260878   0.045373
     3  H    0.410418  -0.011421
     4  O   -1.220046  -0.043906
     5  H    0.382421   0.015602
     6  H   -0.207477   0.110453
 Sum of Mulliken charges =  -0.00000   1.00000

 Dipole moment (field-independent basis, Debye):
    X=             -0.0143    Y=             -1.1445    Z=              0.2703  Tot=              1.1761
                          Isotropic Fermi Contact Couplings
        Atom                 a.u.       MegaHertz       Gauss      10(-4) cm-1
     1  Si(29)             0.83849    -745.18703    -265.90126    -248.56764
     2  O(17)              0.03497     -21.19899      -7.56433      -7.07122
     3  H(1)              -0.00133      -5.95323      -2.12426      -1.98579
     4  O(17)              0.09997     -60.59970     -21.62348     -20.21388
     5  H(1)               0.00968      43.26145      15.43676      14.43047
     6  H(1)               0.02914     130.26988      46.48353      43.45335
 --------------------------------------------------------
       Center         ----  Spin Dipole Couplings  ----

 Normal termination of Gaussian 16 at Tue Apr  8 23:49:54 2025.
