 Gaussian 16, Revision C.01,

 ----------------------------------------------------------------------
 #t hf aug-cc-pvdz symm=none int=(grid=ultrafine) guess=(read,tcheck) s
 table=(opt,rrhf)
 ----------------------------------------------------------------------
 -----
 title
 -----
 Symbolic Z-matrix:
 Charge =  0 Multiplicity = 1

 SCF Done:  E(RHF) =  -336.814029347     A.U. after   10 cycles
 Normal termination of Gaussian 16 at Tue Apr  8 22:36:21 2025.
 Gaussian 16:  ES64L-G16RevC.01  3-Jul-2019

 ----------------------------------------------------------------------
 #t hf aug-cc-pvdz iop(5/13=1,5/36=2,99/5=2) pseudo=read geom=check gue
 ss=(read,tcheck) scf=(maxcycle=1)
 ----------------------------------------------------------------------
 -----
 title
 -----
 Structure from the checkpoint file:  "BDE49_expt_111_mol1.chk"
 Charge =  0 Multiplicity = 1

                         Standard orientation:
 ---------------------------------------------------------------------
 Center     Atomic      Atomic             Coordinates (Angstroms)
 Number     Number       Type             X           Y           Z
 ---------------------------------------------------------------------
      1          6           0       -0.000012   -0.000003    0.339711
      2          1           0        0.000006   -0.000001    1.429999
      3          9           0        0.748719   -1.010052   -0.128455
      4          9           0        0.500404    1.153414   -0.128458
      5          9           0       -1.249115   -0.143359   -0.128449
 ---------------------------------------------------------------------

 SCF Done:  E(RHF) =  -337.123459695     A.U. after    2 cycles

 The electronic state is 1-A.
 Alpha  occ. eigenvalues --  -26.51251 -26.51251 -26.51248 -11.52520  -1.71995
 Alpha  occ. eigenvalues --   -1.61949  -1.61948  -0.97889  -0.84117  -0.81266
 Alpha  occ. eigenvalues --   -0.81265  -0.68925  -0.68925  -0.64347  -0.64346
 Alpha  occ. eigenvalues --   -0.62596  -0.58591
 Alpha virt. eigenvalues --    0.03501   0.08811   0.08811   0.09109   0.16045
 Alpha virt. eigenvalues --    0.23889   0.23889   0.24900   0.24900   0.25639
 Alpha virt. eigenvalues --    0.30890   0.30891   0.31836   0.33728   0.35240

 Mulliken charges:
               1
     1  C    1.841476
     2  H    0.030830
     3  F   -0.624102
     4  F   -0.624100
     5  F   -0.624104
 Sum of Mulliken charges =   0.00000

 Dipole moment (field-independent basis, Debye):
    X=             -0.0001    Y=             -0.0000    Z=              1.7169  Tot=              1.7169

 Test job not archived.
 1\1\GINC-SE095\SP\RHF\Aug-CC-pVDZ\C1H1F3\OHZDE\08-Apr-2025\0\\#t hf au
 g-cc-pvdz iop(5/13=1,5/36=2,99/5=2) pseudo=read geom=check guess=(read
 ,tcheck) scf=(maxcycle=1)\\title\\0,1\C,0,-0.000012,-0.000003,0.339711
 \H,0,0.000006,-0.000001,1.429999\F,0,0.745052,-1.01276,-0.128455\F,0,0
 .504582,1.151592,-0.128458\F,0,-1.249627,-0.13883,-0.128449\\Version=E
 S64L-G16RevC.01\State=1-A\HF=-337.1234597\RMSD=3.838e-03\Dipole=-0.000
 0204,-0.0000029,0.6754966\Quadrupole=-0.9511605,-0.9511142,1.9022746,0
 .0000052,0.0000174,0.0000023\PG=C01 [X(C1H1F3)]\\@

 Normal termination of Gaussian 16 at Tue Apr  8 22:36:22 2025.
