 Gaussian 16, Revision C.01,

 ----------------------------------------------------------------------
 #t hf aug-cc-pvdz symm=none int=(grid=ultrafine) guess=(read,tcheck) s
 table=(opt,rrhf)
 ----------------------------------------------------------------------
 -----
 title
 -----
 Symbolic Z-matrix:
 Charge =  0 Multiplicity = 1

 SCF Done:  E(RHF) =  -321.605225037     A.U. after   14 cycles
 Normal termination of Gaussian 16 at Tue Apr  8 22:40:35 2025.
 Gaussian 16:  ES64L-G16RevC.01  3-Jul-2019

 ----------------------------------------------------------------------
 #t hf aug-cc-pvdz iop(5/13=1,5/36=2,99/5=2) pseudo=read geom=check gue
 ss=(read,tcheck) scf=(maxcycle=1)
 ----------------------------------------------------------------------
 -----
 title
 -----
 Structure from the checkpoint file:  "BDE49_expt_1348_mol1.chk"
 Charge =  0 Multiplicity = 1

                         Standard orientation:
 ---------------------------------------------------------------------
 Center     Atomic      Atomic             Coordinates (Angstroms)
 Number     Number       Type             X           Y           Z
 ---------------------------------------------------------------------
      1          6           0       -1.064289   -1.187857    0.000005
      2          6           0       -1.823053   -0.022991    0.000001
      3          6           0       -1.141946    1.193844    0.000001
      4          6           0        0.244622    1.193993   -0.000002
      5          6           0        0.904188   -0.045216   -0.000011
      6          7           0        0.272012   -1.209308   -0.000003
      7          1           0       -1.548455   -2.160508    0.000003
      8          1           0       -2.904622   -0.067292    0.000001
      9          1           0       -1.684315    2.132659    0.000003
     10          1           0        0.804023    2.123773    0.000003
     11          8           0        2.259440   -0.137775    0.000004
     12          1           0        2.636641    0.748085    0.000013
 ---------------------------------------------------------------------

 SCF Done:  E(RHF) =  -321.931141392     A.U. after    2 cycles

 The electronic state is 1-A.
 Alpha  occ. eigenvalues --  -20.58831 -15.50018 -11.35017 -11.28879 -11.27553
 Alpha  occ. eigenvalues --  -11.25302 -11.24345  -1.50861  -1.26078  -1.09958
 Alpha  occ. eigenvalues --   -1.03456  -0.89845  -0.86843  -0.76431  -0.71185
 Alpha  occ. eigenvalues --   -0.69621  -0.64191  -0.61853  -0.61119  -0.57403
 Alpha  occ. eigenvalues --   -0.55355  -0.51919  -0.46062  -0.41195  -0.34195
 Alpha virt. eigenvalues --    0.02860   0.03478   0.03985   0.05376   0.07016
 Alpha virt. eigenvalues --    0.07821   0.10593   0.10619   0.11380   0.12046
 Alpha virt. eigenvalues --    0.12803   0.13049   0.13367   0.13711   0.14127

 Mulliken charges:
               1
     1  C   -0.570468
     2  C    0.692413
     3  C    0.050088
     4  C    0.597335
     5  C    0.164597
     6  N    1.115902
     7  H   -0.179308
     8  H   -0.191457
     9  H   -0.161272
    10  H   -0.265469
    11  O   -1.589280
    12  H    0.336919
 Sum of Mulliken charges =   0.00000

 Dipole moment (field-independent basis, Debye):
    X=             -1.4021    Y=              3.6247    Z=              0.0000  Tot=              3.8865

 Test job not archived.
 1\1\GINC-SE423\SP\RHF\Aug-CC-pVDZ\C5H5N1O1\OHZDE\08-Apr-2025\0\\#t hf
 aug-cc-pvdz iop(5/13=1,5/36=2,99/5=2) pseudo=read geom=check guess=(re
 ad,tcheck) scf=(maxcycle=1)\\title\\0,1\C,0,1.064289,-1.187857,-0.0000
 05\C,0,1.823053,-0.022991,-0.000001\C,0,1.141946,1.193844,-0.000001\C,
 0,-0.244622,1.193993,0.000002\C,0,-0.904188,-0.045216,0.000011\N,0,-0.
 272012,-1.209308,0.000003\H,0,1.548455,-2.160508,-0.000003\H,0,2.90462
 2,-0.067292,-0.000001\H,0,1.684315,2.132659,-0.000003\H,0,-0.804023,2.
 123773,-0.000003\O,0,-2.25944,-0.137775,-0.000004\H,0,-2.636641,0.7480

 Normal termination of Gaussian 16 at Tue Apr  8 22:40:40 2025.
