 Gaussian 16, Revision C.01,

 ----------------------------------------------------------------------
 #t hf aug-cc-pvdz symm=none int=(grid=ultrafine) guess=(read,tcheck) s
 table=(opt,rrhf)
 ----------------------------------------------------------------------
 -----
 title
 -----
 Symbolic Z-matrix:
 Charge =  0 Multiplicity = 1

 SCF Done:  E(RHF) =  -689.650557835     A.U. after   14 cycles

 1\1\GINC-SE093\Stability\RHF\Aug-CC-pVDZ\C6H5Cl1\OHZDE\08-Apr-2025\0\\
 #t hf aug-cc-pvdz symm=none int=(grid=ultrafine) guess=(read,tcheck) s
 table=(opt,rrhf)\\title\\0,1\C,0,0.,0.,0.502102\C,0,0.,1.213394,-0.178
 253\C,0,0.,1.205213,-1.571406\C,0,0.,0.,-2.270494\C,0,0.,-1.205213,-1.
 571406\C,0,0.,-1.213394,-0.178253\Cl,0,0.,0.,2.260462\H,0,0.,2.147001,
 -2.108081\H,0,0.,0.,-3.354091\H,0,0.,2.143994,0.374329\H,0,0.,-2.14700
 1,-2.108081\H,0,0.,-2.143994,0.374329\\Version=ES64L-G16RevC.01\HF=-68
 9.6505578\RMSD=6.093e-09\Dipole=0.,0.,-0.8073978\Quadrupole=-4.0708239

 Normal termination of Gaussian 16 at Tue Apr  8 22:48:41 2025.
 Gaussian 16:  ES64L-G16RevC.01  3-Jul-2019

 ----------------------------------------------------------------------
 #t hf aug-cc-pvdz iop(5/13=1,5/36=2,99/5=2) pseudo=read geom=check gue
 ss=(read,tcheck) scf=(maxcycle=1)
 ----------------------------------------------------------------------
 -----
 title
 -----
 Structure from the checkpoint file:  "BDE49_expt_1671_mol1.chk"
 Charge =  0 Multiplicity = 1

                         Standard orientation:
 ---------------------------------------------------------------------
 Center     Atomic      Atomic             Coordinates (Angstroms)
 Number     Number       Type             X           Y           Z
 ---------------------------------------------------------------------
      1          6           0        0.000000   -0.000000    0.502102
      2          6           0        0.000000    1.213394   -0.178253
      3          6           0        0.000000    1.205213   -1.571406
      4          6           0        0.000000    0.000000   -2.270494
      5          6           0       -0.000000   -1.205213   -1.571406
      6          6           0       -0.000000   -1.213394   -0.178253
      7         17           0        0.000000   -0.000000    2.260462
      8          1           0        0.000000    2.147001   -2.108081
      9          1           0        0.000000    0.000000   -3.354091
     10          1           0        0.000000    2.143994    0.374329
     11          1           0       -0.000000   -2.147001   -2.108081
     12          1           0       -0.000000   -2.143994    0.374329
 ---------------------------------------------------------------------

 SCF Done:  E(RHF) =  -689.964147143     A.U. after    2 cycles

 The electronic state is 1-A1.
 Alpha  occ. eigenvalues -- -105.57221 -11.31332 -11.26025 -11.26009 -11.25946
 Alpha  occ. eigenvalues --  -11.25905 -11.25532 -10.62017  -7.78981  -7.78586
 Alpha  occ. eigenvalues --   -7.78568  -1.18552  -1.09710  -1.03603  -0.98995
 Alpha  occ. eigenvalues --   -0.85701  -0.82955  -0.72529  -0.66697  -0.65658
 Alpha  occ. eigenvalues --   -0.61823  -0.60265  -0.55409  -0.52987  -0.52424
 Alpha  occ. eigenvalues --   -0.47928  -0.46553  -0.36249  -0.34839
 Alpha virt. eigenvalues --    0.03270   0.03609   0.04232   0.05537   0.06149
 Alpha virt. eigenvalues --    0.08877   0.09094   0.09855   0.11582   0.11644
 Alpha virt. eigenvalues --    0.13146   0.13534   0.14187   0.14325   0.14431

 Mulliken charges:
               1
     1  C    0.181694
     2  C    0.020583
     3  C    0.583739
     4  C   -0.144091
     5  C    0.583739
     6  C    0.020583
     7  Cl  -0.339215
     8  H   -0.206197
     9  H   -0.200344
    10  H   -0.147148
    11  H   -0.206197
    12  H   -0.147148
 Sum of Mulliken charges =   0.00000

 Dipole moment (field-independent basis, Debye):
    X=             -0.0000    Y=             -0.0000    Z=             -2.0537  Tot=              2.0537

 Test job not archived.
 1\1\GINC-SE093\SP\RHF\Aug-CC-pVDZ\C6H5Cl1\OHZDE\08-Apr-2025\0\\#t hf a
 ug-cc-pvdz iop(5/13=1,5/36=2,99/5=2) pseudo=read geom=check guess=(rea
 d,tcheck) scf=(maxcycle=1)\\title\\0,1\C,0,0.,0.,0.502102\C,0,0.,1.213
 394,-0.178253\C,0,0.,1.205213,-1.571406\C,0,0.,0.,-2.270494\C,0,0.,-1.
 205213,-1.571406\C,0,0.,-1.213394,-0.178253\Cl,0,0.,0.,2.260462\H,0,0.
 ,2.147001,-2.108081\H,0,0.,0.,-3.354091\H,0,0.,2.143994,0.374329\H,0,0
 .,-2.147001,-2.108081\H,0,0.,-2.143994,0.374329\\Version=ES64L-G16RevC
 .01\State=1-A1\HF=-689.9641471\RMSD=3.920e-02\Dipole=0.,0.,-0.8079926\

 Normal termination of Gaussian 16 at Tue Apr  8 22:48:46 2025.
