 Gaussian 16, Revision C.01,

 ----------------------------------------------------------------------
 #t hf aug-cc-pvdz symm=none int=(grid=ultrafine) guess=(read,tcheck) s
 table=(opt,rrhf)
 ----------------------------------------------------------------------
 -----
 title
 -----
 Symbolic Z-matrix:
 Charge =  0 Multiplicity = 1

 SCF Done:  E(RHF) =  -514.614760785     A.U. after   12 cycles
 Normal termination of Gaussian 16 at Tue Apr  8 23:37:23 2025.
 Gaussian 16:  ES64L-G16RevC.01  3-Jul-2019

 ----------------------------------------------------------------------
 #t hf aug-cc-pvdz iop(5/13=1,5/36=2,99/5=2) pseudo=read geom=check gue
 ss=(read,tcheck) scf=(maxcycle=1)
 ----------------------------------------------------------------------
 -----
 title
 -----
 Structure from the checkpoint file:  "BDE49_nonexpt_1541_mol1.chk"
 Charge =  0 Multiplicity = 1

                         Standard orientation:
 ---------------------------------------------------------------------
 Center     Atomic      Atomic             Coordinates (Angstroms)
 Number     Number       Type             X           Y           Z
 ---------------------------------------------------------------------
      1          7           0        0.687507    0.065901   -0.191286
      2          6           0        1.004993    1.431204    0.206789
      3          1           0        1.405314    1.487277    1.232560
      4          1           0        0.118954    2.064497    0.153626
      5          1           0        1.754808    1.854408   -0.470964
      6         15           0       -0.763294   -0.694953    0.321051
      7          6           0        1.870019   -0.785146   -0.297201
      8          1           0        2.551460   -0.381319   -1.054524
      9          1           0        1.577076   -1.790319   -0.603000
     10          1           0        2.428968   -0.863109    0.649473
     11          6           0       -2.074787    0.367748   -0.445482
     12          1           0       -1.952072    1.437021   -0.262088
     13          1           0       -3.038448    0.056283   -0.031132
     14          1           0       -2.092048    0.190230   -1.522525
     15          1           0       -0.918495   -0.174817    1.647167
 ---------------------------------------------------------------------

 SCF Done:  E(RHF) =  -514.851567332     A.U. after    2 cycles

 The electronic state is 1-A.
 Alpha  occ. eigenvalues --  -84.28104 -15.48814 -11.25961 -11.25692 -11.23109
 Alpha  occ. eigenvalues --   -6.74806  -4.27767  -4.27023  -4.26703  -1.20799
 Alpha  occ. eigenvalues --   -0.98376  -0.96148  -0.88423  -0.76297  -0.64710
 Alpha  occ. eigenvalues --   -0.63673  -0.63072  -0.57977  -0.56159  -0.55254
 Alpha  occ. eigenvalues --   -0.52861  -0.50909  -0.47438  -0.38417  -0.32745
 Alpha virt. eigenvalues --    0.03846   0.04476   0.04943   0.04962   0.05831
 Alpha virt. eigenvalues --    0.06126   0.06421   0.07033   0.07730   0.09779
 Alpha virt. eigenvalues --    0.11315   0.11705   0.12848   0.13829   0.15210

 Mulliken charges:
               1
     1  N    0.227740
     2  C   -0.496951
     3  H    0.202688
     4  H   -0.042008
     5  H    0.136832
     6  P    0.244308
     7  C   -0.468106
     8  H    0.118450
     9  H    0.052965
    10  H    0.195537
    11  C   -0.815204
    12  H    0.076852
    13  H    0.108547
    14  H    0.139347
    15  H    0.319003
 Sum of Mulliken charges =  -0.00000

 Dipole moment (field-independent basis, Debye):
    X=              0.3110    Y=              0.9893    Z=              0.1521  Tot=              1.0481

 Test job not archived.
 1\1\GINC-SE364\SP\RHF\Aug-CC-pVDZ\C3H10N1P1\OHZDE\08-Apr-2025\0\\#t hf
  aug-cc-pvdz iop(5/13=1,5/36=2,99/5=2) pseudo=read geom=check guess=(r
 ead,tcheck) scf=(maxcycle=1)\\title\\0,1\N,0,0.687507,0.065901,-0.1912
 86\C,0,1.004993,1.431204,0.206789\H,0,1.405314,1.487277,1.23256\H,0,0.
 118954,2.064497,0.153626\H,0,1.754808,1.854408,-0.470964\P,0,-0.763294
 ,-0.694953,0.321051\C,0,1.870019,-0.785146,-0.297201\H,0,2.55146,-0.38
 1319,-1.054524\H,0,1.577076,-1.790319,-0.603\H,0,2.428968,-0.863109,0.
 649473\C,0,-2.074787,0.367748,-0.445482\H,0,-1.952072,1.437021,-0.2620

 Normal termination of Gaussian 16 at Tue Apr  8 23:37:27 2025.
