 Gaussian 16, Revision C.01,

 ----------------------------------------------------------------------
 #t hf aug-cc-pvdz symm=none int=(grid=ultrafine) guess=(read,tcheck) s
 table=(opt,rrhf)
 ----------------------------------------------------------------------
 -----
 title
 -----
 Symbolic Z-matrix:
 Charge =  0 Multiplicity = 1

 SCF Done:  E(RHF) =  -1111.03995793     A.U. after   13 cycles
 Normal termination of Gaussian 16 at Wed Apr  9 00:04:00 2025.
 Gaussian 16:  ES64L-G16RevC.01  3-Jul-2019

 ----------------------------------------------------------------------
 #t hf aug-cc-pvdz iop(5/13=1,5/36=2,99/5=2) pseudo=read geom=check gue
 ss=(read,tcheck) scf=(maxcycle=1)
 ----------------------------------------------------------------------
 -----
 title
 -----
 Structure from the checkpoint file:  "BDE49_nonexpt_219_mol1.chk"
 Charge =  0 Multiplicity = 1

                         Standard orientation:
 ---------------------------------------------------------------------
 Center     Atomic      Atomic             Coordinates (Angstroms)
 Number     Number       Type             X           Y           Z
 ---------------------------------------------------------------------
      1         17           0        0.744737    1.677417    0.000001
      2          5           0        0.416332   -0.059423    0.000000
      3          6           0       -2.088249   -0.355340    0.000001
      4          8           0       -3.244649   -0.254884    0.000001
      5          7           0       -0.898886   -0.552389    0.000002
      6         17           0        1.766864   -1.187126   -0.000003
 ---------------------------------------------------------------------

 SCF Done:  E(RHF) =  -1111.37264031     A.U. after    2 cycles

 The electronic state is 1-A.
 Alpha  occ. eigenvalues -- -105.58937-105.58748 -20.63806 -15.55294 -11.45900
 Alpha  occ. eigenvalues --  -10.63958 -10.63769  -7.80850  -7.80669  -7.80549
 Alpha  occ. eigenvalues --   -7.80514  -7.80369  -7.80327  -7.76468  -1.58593
 Alpha  occ. eigenvalues --   -1.31077  -1.12182  -1.07265  -0.92185  -0.76824
 Alpha  occ. eigenvalues --   -0.70527  -0.69789  -0.66713  -0.60918  -0.56254
 Alpha  occ. eigenvalues --   -0.51956  -0.50422  -0.49653  -0.49045  -0.47148
 Alpha virt. eigenvalues --    0.03813   0.05368   0.05474   0.05829   0.05852
 Alpha virt. eigenvalues --    0.09470   0.09937   0.10027   0.11827   0.13141
 Alpha virt. eigenvalues --    0.14622   0.14922   0.15736   0.18288   0.18650

 Mulliken charges:
               1
     1  Cl  -0.272839
     2  B    0.447764
     3  C    0.041188
     4  O   -0.748336
     5  N    0.844220
     6  Cl  -0.311997
 Sum of Mulliken charges =  -0.00000

 Dipole moment (field-independent basis, Debye):
    X=             -0.2694    Y=              0.1030    Z=             -0.0000  Tot=              0.2884

 Test job not archived.
 1\1\GINC-SE249\SP\RHF\Aug-CC-pVDZ\C1B1Cl2N1O1\OHZDE\09-Apr-2025\0\\#t
 hf aug-cc-pvdz iop(5/13=1,5/36=2,99/5=2) pseudo=read geom=check guess=
 (read,tcheck) scf=(maxcycle=1)\\title\\0,1\Cl,0,0.744737,1.677417,0.00
 0001\B,0,0.416332,-0.059423,0.\C,0,-2.088249,-0.35534,0.000001\O,0,-3.
 244649,-0.254884,0.000001\N,0,-0.898886,-0.552389,0.000002\Cl,0,1.7668
 64,-1.187126,-0.000003\\Version=ES64L-G16RevC.01\State=1-A\HF=-1111.37
 26403\RMSD=1.148e-02\Dipole=-0.105999,0.0405168,-0.0000007\Quadrupole=
 -2.3443281,0.2782913,2.0660368,-0.0674793,0.000004,0.0000001\PG=C01 [X

 Normal termination of Gaussian 16 at Wed Apr  9 00:04:03 2025.
