 Gaussian 16, Revision C.01,

 ----------------------------------------------------------------------
 #t hf aug-cc-pvdz symm=none int=(grid=ultrafine) guess=(read,tcheck) s
 table=opt
 ----------------------------------------------------------------------
 -----
 title
 -----
 Symbolic Z-matrix:
 Charge =  0 Multiplicity = 2

 SCF Done:  E(UHF) =  -523.731469711     A.U. after   16 cycles
 Normal termination of Gaussian 16 at Wed Apr  9 00:35:17 2025.
 Gaussian 16:  ES64L-G16RevC.01  3-Jul-2019

 ----------------------------------------------------------------------
 #t hf aug-cc-pvdz iop(5/13=1,5/36=2,99/5=2) pseudo=read geom=check gue
 ss=(read,tcheck) scf=(maxcycle=1)
 ----------------------------------------------------------------------
 -----
 title
 -----
 Structure from the checkpoint file:  "BDE49_nonexpt_462_mol2.chk"
 Charge =  0 Multiplicity = 2

                         Standard orientation:
 ---------------------------------------------------------------------
 Center     Atomic      Atomic             Coordinates (Angstroms)
 Number     Number       Type             X           Y           Z
 ---------------------------------------------------------------------
      1          1           0        2.965740   -0.376883    0.000034
      2          5           0        1.791163   -0.556959    0.000020
      3          6           0        0.687270    0.503869    0.000009
      4         17           0       -1.035141   -0.127326   -0.000012
      5          1           0        0.776125    1.151501   -0.879152
      6          1           0        0.776104    1.151497    0.879176
 ---------------------------------------------------------------------

 SCF Done:  E(UHF) =  -523.873222483     A.U. after    2 cycles

 The electronic state is 2-A.
 Alpha  occ. eigenvalues -- -105.55643 -11.29972 -10.60400  -7.77395  -7.76950
 Alpha  occ. eigenvalues --   -7.76949  -7.64334  -1.09337  -0.92835  -0.69998
 Alpha  occ. eigenvalues --   -0.63036  -0.59345  -0.54000  -0.44707  -0.44237
 Alpha  occ. eigenvalues --   -0.35446
 Alpha virt. eigenvalues --    0.02775   0.03348   0.04719   0.05399   0.05607
 Alpha virt. eigenvalues --    0.08711   0.10067   0.10219   0.13073   0.15064
 Alpha virt. eigenvalues --    0.15667   0.16523   0.17457   0.17881   0.19107

  Beta  occ. eigenvalues -- -105.55590 -11.30044 -10.60340  -7.77216  -7.76915
  Beta  occ. eigenvalues --   -7.76905  -7.62456  -1.08906  -0.91921  -0.65754
  Beta  occ. eigenvalues --   -0.62994  -0.58385  -0.52758  -0.44603  -0.43891
  Beta virt. eigenvalues --    0.03305   0.03485   0.03826   0.05076   0.06470
  Beta virt. eigenvalues --    0.08663   0.08897   0.10451   0.11268   0.14419
  Beta virt. eigenvalues --    0.15438   0.16069   0.16663   0.18117   0.18379

 Mulliken charges and spin densities:
               1          2
     1  H    0.265884  -0.005114
     2  B   -0.046178   1.015826
     3  C   -0.444154  -0.038849
     4  Cl  -0.169531   0.021733
     5  H    0.196989   0.003202
     6  H    0.196991   0.003202
 Sum of Mulliken charges =  -0.00000   1.00000

 Dipole moment (field-independent basis, Debye):
    X=              2.1133    Y=              1.5059    Z=              0.0000  Tot=              2.5950
                          Isotropic Fermi Contact Couplings
        Atom                 a.u.       MegaHertz       Gauss      10(-4) cm-1
     1  H(1)               0.00222       9.93302       3.54435       3.31330
     2  B(11)              0.26012     373.10635     133.13362     124.45488
     3  C(13)             -0.01726     -19.40871      -6.92551      -6.47405
     4  Cl(35)             0.04646      20.37021       7.26860       6.79477
     5  H(1)               0.00237      10.61209       3.78666       3.53981
     6  H(1)               0.00237      10.61205       3.78664       3.53980
 --------------------------------------------------------
       Center         ----  Spin Dipole Couplings  ----

 Normal termination of Gaussian 16 at Wed Apr  9 00:35:18 2025.
