 Gaussian 16, Revision C.01,

 ----------------------------------------------------------------------
 #t hf aug-cc-pvdz symm=none int=(grid=ultrafine) guess=(read,tcheck) s
 table=(opt,rrhf)
 ----------------------------------------------------------------------
 -----
 title
 -----
 Symbolic Z-matrix:
 Charge =  0 Multiplicity = 1

 SCF Done:  E(RHF) =  -423.184141365     A.U. after   12 cycles
 Normal termination of Gaussian 16 at Wed Apr  9 00:01:28 2025.
 Gaussian 16:  ES64L-G16RevC.01  3-Jul-2019

 ----------------------------------------------------------------------
 #t hf aug-cc-pvdz iop(5/13=1,5/36=2,99/5=2) pseudo=read geom=check gue
 ss=(read,tcheck) scf=(maxcycle=1)
 ----------------------------------------------------------------------
 -----
 title
 -----
 Structure from the checkpoint file:  "BDE49_nonexpt_2129_mol1.chk"
 Charge =  0 Multiplicity = 1

                         Standard orientation:
 ---------------------------------------------------------------------
 Center     Atomic      Atomic             Coordinates (Angstroms)
 Number     Number       Type             X           Y           Z
 ---------------------------------------------------------------------
      1          7           0        1.728165    0.000010   -0.438952
      2         14           0        0.277656   -0.000012    0.480657
      3          1           0        2.297501   -0.832353   -0.492092
      4          1           0        2.297484    0.832385   -0.492077
      5          6           0       -1.227457   -0.782098   -0.247804
      6          6           0       -1.227454    0.782111   -0.247769
      7          1           0       -1.162693    1.251151   -1.224741
      8          1           0       -1.958328    1.258814    0.398619
      9          1           0       -1.958333   -1.258826    0.398565
     10          1           0       -1.162698   -1.251095   -1.224796
     11          1           0        0.392188   -0.000046    1.953423
 ---------------------------------------------------------------------

 SCF Done:  E(RHF) =  -423.361330290     A.U. after    2 cycles

 The electronic state is 1-A.
 Alpha  occ. eigenvalues --  -69.52994 -15.48406 -11.21377 -11.21342  -6.19981
 Alpha  occ. eigenvalues --   -3.95455  -3.95319  -3.95317  -1.14560  -1.03026
 Alpha  occ. eigenvalues --   -0.80346  -0.71902  -0.69466  -0.62782  -0.59914
 Alpha  occ. eigenvalues --   -0.54431  -0.50524  -0.46583  -0.40586  -0.35161
 Alpha virt. eigenvalues --    0.03108   0.04529   0.04628   0.05294   0.06521
 Alpha virt. eigenvalues --    0.06763   0.06883   0.08352   0.09369   0.10446
 Alpha virt. eigenvalues --    0.11618   0.13867   0.14994   0.15705   0.16430

 Mulliken charges:
               1
     1  N   -0.092314
     2  Si   0.807906
     3  H    0.025968
     4  H    0.025971
     5  C   -0.134053
     6  C   -0.134052
     7  H   -0.070367
     8  H   -0.100118
     9  H   -0.100114
    10  H   -0.070369
    11  H   -0.158458
 Sum of Mulliken charges =   0.00000

 Dipole moment (field-independent basis, Debye):
    X=              1.3614    Y=              0.0000    Z=              0.2950  Tot=              1.3930

 Test job not archived.
 1\1\GINC-SE106\SP\RHF\Aug-CC-pVDZ\C2H7N1Si1\OHZDE\09-Apr-2025\0\\#t hf
  aug-cc-pvdz iop(5/13=1,5/36=2,99/5=2) pseudo=read geom=check guess=(r
 ead,tcheck) scf=(maxcycle=1)\\title\\0,1\N,0,1.728165,0.00001,-0.43895
 2\Si,0,0.277656,-0.000012,0.480657\H,0,2.297501,-0.832353,-0.492092\H,
 0,2.297484,0.832385,-0.492077\C,0,-1.227457,-0.782098,-0.247804\C,0,-1
 .227454,0.782111,-0.247769\H,0,-1.162693,1.251151,-1.224741\H,0,-1.958
 328,1.258814,0.398619\H,0,-1.958333,-1.258826,0.398565\H,0,-1.162698,-
 1.251095,-1.224796\H,0,0.392188,-0.000046,1.953423\\Version=ES64L-G16R

 Normal termination of Gaussian 16 at Wed Apr  9 00:01:31 2025.
