 Gaussian 16, Revision C.01,

 ----------------------------------------------------------------------
 #t hf aug-cc-pvdz symm=none int=(grid=ultrafine) guess=(read,tcheck) s
 table=opt
 ----------------------------------------------------------------------
 -----
 title
 -----
 Symbolic Z-matrix:
 Charge =  0 Multiplicity = 2

 SCF Done:  E(UHF) =  -759.592295035     A.U. after   24 cycles
 Normal termination of Gaussian 16 at Tue Apr  8 23:20:55 2025.
 Gaussian 16:  ES64L-G16RevC.01  3-Jul-2019

 ----------------------------------------------------------------------
 #t hf aug-cc-pvdz iop(5/13=1,5/36=2,99/5=2) pseudo=read geom=check gue
 ss=(read,tcheck) scf=(maxcycle=1)
 ----------------------------------------------------------------------
 -----
 title
 -----
 Structure from the checkpoint file:  "BDE49_expt_820_mol2.chk"
 Charge =  0 Multiplicity = 2

                         Standard orientation:
 ---------------------------------------------------------------------
 Center     Atomic      Atomic             Coordinates (Angstroms)
 Number     Number       Type             X           Y           Z
 ---------------------------------------------------------------------
      1         15           0        0.355821    1.683462   -0.666764
      2          6           0        1.681623    1.415170    0.629361
      3          6           0        1.873948   -0.010968    1.186126
      4          1           0        1.460914    2.086705    1.467453
      5          1           0        2.622660    1.765795    0.192257
      6          6           0        2.507650   -1.019055    0.201991
      7          6           0        1.624611   -1.451088   -0.879590
      8          7           0        0.921707   -1.813806   -1.718865
      9          6           0       -1.176123    1.518102    0.400738
     10          6           0       -2.379923    0.900900   -0.329727
     11          1           0       -1.441059    2.532753    0.723142
     12          1           0       -0.960568    0.951615    1.311274
     13          6           0       -2.225395   -0.606058   -0.635856
     14          1           0       -2.551455    1.415600   -1.280180
     15          1           0       -3.279787    1.046852    0.275606
     16          6           0       -1.984270   -1.393514    0.571426
     17          1           0       -1.391563   -0.787850   -1.321331
     18          1           0       -3.128764   -0.984098   -1.123001
     19          7           0       -1.765085   -1.973786    1.543949
     20          1           0        2.810160   -1.916702    0.749761
     21          1           0        3.415423   -0.597913   -0.242674
     22          1           0        0.931152   -0.419437    1.558663
     23          1           0        2.546492    0.046974    2.048093
 ---------------------------------------------------------------------

 SCF Done:  E(UHF) =  -760.063761947     A.U. after    2 cycles

 The electronic state is 2-A.
 Alpha  occ. eigenvalues --  -84.27646 -15.51511 -15.50716 -11.29574 -11.28557
 Alpha  occ. eigenvalues --  -11.28152 -11.27835 -11.27026 -11.26426 -11.25842
 Alpha  occ. eigenvalues --  -11.25212  -6.74817  -4.27796  -4.27155  -4.26431
 Alpha  occ. eigenvalues --   -1.23917  -1.23021  -1.11356  -1.10342  -1.01843
 Alpha  occ. eigenvalues --   -0.98260  -0.89088  -0.84904  -0.75639  -0.71922
 Alpha  occ. eigenvalues --   -0.69417  -0.66971  -0.66116  -0.64115  -0.62590
 Alpha  occ. eigenvalues --   -0.61516  -0.59671  -0.57955  -0.56480  -0.55818
 Alpha  occ. eigenvalues --   -0.54399  -0.53796  -0.52893  -0.49888  -0.49335
 Alpha  occ. eigenvalues --   -0.48539  -0.48276  -0.44338  -0.36750  -0.31190
 Alpha virt. eigenvalues --    0.02661   0.03156   0.03397   0.03916   0.04709
 Alpha virt. eigenvalues --    0.05233   0.05984   0.06717   0.07068   0.08083
 Alpha virt. eigenvalues --    0.08966   0.09228   0.09894   0.10158   0.11104

  Beta  occ. eigenvalues --  -84.26943 -15.51316 -15.50717 -11.29562 -11.28670
  Beta  occ. eigenvalues --  -11.28147 -11.27834 -11.26922 -11.26388 -11.25991
  Beta  occ. eigenvalues --  -11.25348  -6.73922  -4.26608  -4.26025  -4.24408
  Beta  occ. eigenvalues --   -1.23612  -1.23018  -1.11027  -1.10239  -1.01058
  Beta  occ. eigenvalues --   -0.98203  -0.87789  -0.84861  -0.72545  -0.71796
  Beta  occ. eigenvalues --   -0.68229  -0.66679  -0.65810  -0.63911  -0.62380
  Beta  occ. eigenvalues --   -0.61327  -0.59589  -0.57826  -0.55889  -0.55264
  Beta  occ. eigenvalues --   -0.53852  -0.53532  -0.52788  -0.49239  -0.49026
  Beta  occ. eigenvalues --   -0.48443  -0.48118  -0.44068  -0.34850
  Beta virt. eigenvalues --    0.02638   0.03044   0.03346   0.03841   0.04712
  Beta virt. eigenvalues --    0.05074   0.05967   0.06213   0.06973   0.07213
  Beta virt. eigenvalues --    0.08252   0.09138   0.09271   0.10099   0.10319

 Mulliken charges and spin densities:
               1          2
     1  P    0.970491   1.308859
     2  C   -0.573285  -0.126111
     3  C   -0.209498  -0.002493
     4  H    0.116969   0.000258
     5  H    0.082040  -0.008625
     6  C   -0.183201   0.001094
     7  C   -1.557379  -0.057948
     8  N    0.990466   0.045924
     9  C   -0.571403  -0.162999
    10  C   -0.385328   0.048595
    11  H    0.136422  -0.009562
    12  H    0.150595  -0.004390
    13  C    0.032322  -0.008080
    14  H    0.169235  -0.005044
    15  H    0.155446   0.000560
    16  C   -1.725062  -0.002684
    17  H    0.386018  -0.010760
    18  H    0.203906   0.000307
    19  N    0.999939   0.000869
    20  H    0.231206  -0.002667
    21  H    0.237758   0.001243
    22  H    0.201181  -0.004002
    23  H    0.141163  -0.002344
 Sum of Mulliken charges =  -0.00000   1.00000

 Dipole moment (field-independent basis, Debye):
    X=              1.9273    Y=              3.9741    Z=              0.7550  Tot=              4.4809
                          Isotropic Fermi Contact Couplings
        Atom                 a.u.       MegaHertz       Gauss      10(-4) cm-1
     1  P(31)              0.23154     419.33419     149.62887     139.87483
     2  C(13)             -0.02755     -30.97677     -11.05328     -10.33274
     3  C(13)              0.02499      28.08882      10.02279       9.36942
     4  H(1)               0.00856      38.27338      13.65689      12.76662
     5  H(1)               0.00074       3.31198       1.18180       1.10476
     6  C(13)              0.00134       1.50139       0.53573       0.50081
     7  C(13)             -0.01008     -11.32729      -4.04186      -3.77838
     8  N(14)              0.01929       6.23198       2.22372       2.07876

 Normal termination of Gaussian 16 at Tue Apr  8 23:21:15 2025.
