 Gaussian 16, Revision C.01,

 ----------------------------------------------------------------------
 #t hf aug-cc-pvdz symm=none int=(grid=ultrafine) guess=(read,tcheck) s
 table=(opt,rrhf)
 ----------------------------------------------------------------------
 -----
 title
 -----
 Symbolic Z-matrix:
 Charge =  0 Multiplicity = 1

 SCF Done:  E(RHF) =  -504.531537791     A.U. after   14 cycles
 Normal termination of Gaussian 16 at Tue Apr  8 23:09:49 2025.
 Gaussian 16:  ES64L-G16RevC.01  3-Jul-2019

 ----------------------------------------------------------------------
 #t hf aug-cc-pvdz iop(5/13=1,5/36=2,99/5=2) pseudo=read geom=check gue
 ss=(read,tcheck) scf=(maxcycle=1)
 ----------------------------------------------------------------------
 -----
 title
 -----
 Structure from the checkpoint file:  "BDE49_expt_655_mol1.chk"
 Charge =  0 Multiplicity = 1

                         Standard orientation:
 ---------------------------------------------------------------------
 Center     Atomic      Atomic             Coordinates (Angstroms)
 Number     Number       Type             X           Y           Z
 ---------------------------------------------------------------------
      1          6           0        0.587565   -0.480327    0.000017
      2          7           0        1.519177    0.379603   -0.000018
      3          8           0        2.766523   -0.215393    0.000004
      4          1           0        3.368555    0.537055   -0.000026
      5          6           0       -0.837383   -0.010648    0.000002
      6          9           0       -0.960593    1.319589   -0.000063
      7          9           0       -1.485892   -0.491498   -1.085603
      8          9           0       -1.485881   -0.491392    1.085660
      9          1           0        0.755220   -1.555569    0.000059
 ---------------------------------------------------------------------

 SCF Done:  E(RHF) =  -505.003443388     A.U. after    2 cycles

 The electronic state is 1-A.
 Alpha  occ. eigenvalues --  -26.51439 -26.51364 -26.51361 -20.62482 -15.61587
 Alpha  occ. eigenvalues --  -11.53709 -11.32375  -1.72178  -1.62283  -1.61831
 Alpha  occ. eigenvalues --   -1.54835  -1.23146  -1.01030  -0.88744  -0.82559
 Alpha  occ. eigenvalues --   -0.81704  -0.79074  -0.75962  -0.70021  -0.69355
 Alpha  occ. eigenvalues --   -0.68357  -0.64762  -0.64221  -0.63679  -0.62650
 Alpha  occ. eigenvalues --   -0.59215  -0.51700  -0.45443
 Alpha virt. eigenvalues --    0.03424   0.04825   0.07051   0.08228   0.09771
 Alpha virt. eigenvalues --    0.10987   0.11464   0.13241   0.13320   0.16068
 Alpha virt. eigenvalues --    0.17158   0.17777   0.19914   0.20915   0.24226

 Mulliken charges:
               1
     1  C   -1.090828
     2  N    1.340344
     3  O   -1.083207
     4  H    0.314959
     5  C    2.713508
     6  F   -0.768332
     7  F   -0.720386
     8  F   -0.720386
     9  H    0.014328
 Sum of Mulliken charges =  -0.00000

 Dipole moment (field-independent basis, Debye):
    X=              1.9247    Y=             -0.8276    Z=              0.0000  Tot=              2.0950

 Test job not archived.
 1\1\GINC-SE342\SP\RHF\Aug-CC-pVDZ\C2H2F3N1O1\OHZDE\08-Apr-2025\0\\#t h
 f aug-cc-pvdz iop(5/13=1,5/36=2,99/5=2) pseudo=read geom=check guess=(
 read,tcheck) scf=(maxcycle=1)\\title\\0,1\C,0,0.587565,-0.480327,0.000
 017\N,0,1.519177,0.379603,-0.000018\O,0,2.766523,-0.215393,0.000004\H,
 0,3.368555,0.537055,-0.000026\C,0,-0.837383,-0.010648,0.000002\F,0,-0.
 960593,1.319589,-0.000063\F,0,-1.485892,-0.491498,-1.085603\F,0,-1.485
 881,-0.491392,1.08566\H,0,0.75522,-1.555569,0.000059\\Version=ES64L-G1
 6RevC.01\State=1-A\HF=-505.0034434\RMSD=1.304e-02\Dipole=0.7572171,-0.

 Normal termination of Gaussian 16 at Tue Apr  8 23:09:52 2025.
