 Gaussian 16, Revision C.01,

 ----------------------------------------------------------------------
 #t hf aug-cc-pvdz symm=none int=(grid=ultrafine) guess=(read,tcheck) s
 table=(opt,rrhf)
 ----------------------------------------------------------------------
 -----
 title
 -----
 Symbolic Z-matrix:
 Charge =  0 Multiplicity = 1

 SCF Done:  E(RHF) =  -1407.07940377     A.U. after   11 cycles
 Normal termination of Gaussian 16 at Tue Apr  8 23:47:52 2025.
 Gaussian 16:  ES64L-G16RevC.01  3-Jul-2019

 ----------------------------------------------------------------------
 #t hf aug-cc-pvdz iop(5/13=1,5/36=2,99/5=2) pseudo=read geom=check gue
 ss=(read,tcheck) scf=(maxcycle=1)
 ----------------------------------------------------------------------
 -----
 title
 -----
 Structure from the checkpoint file:  "BDE49_nonexpt_1807_mol1.chk"
 Charge =  0 Multiplicity = 1

                         Standard orientation:
 ---------------------------------------------------------------------
 Center     Atomic      Atomic             Coordinates (Angstroms)
 Number     Number       Type             X           Y           Z
 ---------------------------------------------------------------------
      1         14           0       -0.000017    0.328815    0.000000
      2          9           0       -0.000017    1.260569    1.275184
      3          9           0       -0.000017    1.260569   -1.275184
      4         17           0       -1.680155   -0.802806    0.000000
      5         17           0        1.680187   -0.802703    0.000000
 ---------------------------------------------------------------------

 SCF Done:  E(RHF) =  -1407.44308453     A.U. after    2 cycles

 The electronic state is 1-A'.
 Alpha  occ. eigenvalues -- -105.60228-105.60228 -69.73032 -26.50160 -26.50159
 Alpha  occ. eigenvalues --  -10.65334 -10.65326  -7.82220  -7.82216  -7.81864
 Alpha  occ. eigenvalues --   -7.81863  -7.81861  -7.81860  -6.38438  -4.13811
 Alpha  occ. eigenvalues --   -4.13748  -4.13692  -1.63153  -1.60747  -1.11937
 Alpha  occ. eigenvalues --   -1.08773  -0.81607  -0.74107  -0.71510  -0.71236
 Alpha  occ. eigenvalues --   -0.67475  -0.65536  -0.63495  -0.57701  -0.53860
 Alpha  occ. eigenvalues --   -0.52756  -0.51288  -0.50136
 Alpha virt. eigenvalues --    0.05056   0.05771   0.06283   0.06286   0.11905
 Alpha virt. eigenvalues --    0.12217   0.14318   0.14319   0.15299   0.16924
 Alpha virt. eigenvalues --    0.17767   0.17942   0.20531   0.21932   0.22809

 Mulliken charges:
               1
     1  Si   2.580690
     2  F   -0.848519
     3  F   -0.848519
     4  Cl  -0.441823
     5  Cl  -0.441829
 Sum of Mulliken charges =  -0.00000

 Dipole moment (field-independent basis, Debye):
    X=             -0.0001    Y=             -0.5706    Z=             -0.0000  Tot=              0.5706

 Test job not archived.
 1\1\GINC-SE059\SP\RHF\Aug-CC-pVDZ\Cl2F2Si1\OHZDE\08-Apr-2025\0\\#t hf
 aug-cc-pvdz iop(5/13=1,5/36=2,99/5=2) pseudo=read geom=check guess=(re
 ad,tcheck) scf=(maxcycle=1)\\title\\0,1\Si,0,-0.000017,0.328815,0.\F,0
 ,-0.000017,1.260569,1.275184\F,0,-0.000017,1.260569,-1.275184\Cl,0,-1.
 680155,-0.802806,0.\Cl,0,1.680187,-0.802703,0.\\Version=ES64L-G16RevC.
 01\State=1-A'\HF=-1407.4430845\RMSD=3.050e-03\Dipole=-0.0000496,-0.224
 5003,0.\Quadrupole=1.1916595,-0.2642536,-0.9274059,0.0000384,0.,0.\PG=
 CS [SG(Cl2Si1),X(F2)]\\@

 Normal termination of Gaussian 16 at Tue Apr  8 23:47:54 2025.
