 Gaussian 16, Revision C.01,

 ----------------------------------------------------------------------
 #t hf aug-cc-pvdz symm=none int=(grid=ultrafine) guess=(read,tcheck) s
 table=opt
 ----------------------------------------------------------------------
 -----
 title
 -----
 Symbolic Z-matrix:
 Charge =  0 Multiplicity = 2

 SCF Done:  E(UHF) =  -271.733437159     A.U. after   16 cycles
 Normal termination of Gaussian 16 at Wed Apr  9 00:20:35 2025.
 Gaussian 16:  ES64L-G16RevC.01  3-Jul-2019

 ----------------------------------------------------------------------
 #t hf aug-cc-pvdz iop(5/13=1,5/36=2,99/5=2) pseudo=read geom=check gue
 ss=(read,tcheck) scf=(maxcycle=1)
 ----------------------------------------------------------------------
 -----
 title
 -----
 Structure from the checkpoint file:  "BDE49_nonexpt_260_mol2.chk"
 Charge =  0 Multiplicity = 2

                         Standard orientation:
 ---------------------------------------------------------------------
 Center     Atomic      Atomic             Coordinates (Angstroms)
 Number     Number       Type             X           Y           Z
 ---------------------------------------------------------------------
      1          8           0        1.231580   -0.879453   -0.067233
      2          7           0       -1.193642   -0.821946    0.006445
      3          6           0        0.046917    1.259757   -0.322770
      4          6           0       -1.259878    0.636347    0.177890
      5          6           0        1.263343    0.530724    0.244242
      6          5           0        0.026080   -1.497354   -0.127841
      7          1           0        2.189461    0.925327   -0.177435
      8          1           0        1.309959    0.641571    1.333685
      9          1           0        0.090697    2.317118   -0.043653
     10          1           0        0.079012    1.205163   -1.415757
     11          1           0       -2.072345   -1.312645   -0.003570
     12          1           0       -2.104014    1.040614   -0.389737
     13          1           0       -1.422612    0.897903    1.232253
 ---------------------------------------------------------------------

 SCF Done:  E(UHF) =  -272.011436233     A.U. after    2 cycles

 The electronic state is 2-A.
 Alpha  occ. eigenvalues --  -20.53879 -15.48770 -11.29437 -11.27562 -11.24334
 Alpha  occ. eigenvalues --   -7.62154  -1.45532  -1.19560  -1.05097  -0.92509
 Alpha  occ. eigenvalues --   -0.84158  -0.75220  -0.69457  -0.65460  -0.63818
 Alpha  occ. eigenvalues --   -0.61643  -0.60004  -0.54990  -0.53311  -0.47410
 Alpha  occ. eigenvalues --   -0.46657  -0.41509  -0.33461
 Alpha virt. eigenvalues --    0.03230   0.03934   0.04167   0.04702   0.06203
 Alpha virt. eigenvalues --    0.06371   0.06506   0.06680   0.07169   0.09612
 Alpha virt. eigenvalues --    0.12538   0.13415   0.13991   0.14540   0.14849

  Beta  occ. eigenvalues --  -20.53795 -15.48752 -11.29291 -11.27437 -11.24355
  Beta  occ. eigenvalues --   -7.60107  -1.45128  -1.19213  -1.04736  -0.91972
  Beta  occ. eigenvalues --   -0.83195  -0.74699  -0.68621  -0.64631  -0.62785
  Beta  occ. eigenvalues --   -0.61707  -0.59679  -0.54842  -0.52710  -0.46979
  Beta  occ. eigenvalues --   -0.46369  -0.42215
  Beta virt. eigenvalues --    0.03211   0.03823   0.04188   0.04484   0.05998
  Beta virt. eigenvalues --    0.06380   0.06463   0.06633   0.07300   0.09647
  Beta virt. eigenvalues --    0.10270   0.13396   0.13851   0.14536   0.14919

 Mulliken charges and spin densities:
               1          2
     1  O   -1.026093  -0.112711
     2  N    0.531856  -0.025285
     3  C   -0.453364  -0.015406
     4  C   -0.448349   0.000984
     5  C    0.731040   0.056283
     6  B   -0.043004   1.105313
     7  H    0.030704  -0.000633
     8  H    0.148931  -0.005294
     9  H    0.176422   0.001632
    10  H    0.138630  -0.003735
    11  H    0.045439   0.003988
    12  H    0.080080  -0.001592
    13  H    0.087708  -0.003545
 Sum of Mulliken charges =  -0.00000   1.00000

 Dipole moment (field-independent basis, Debye):
    X=             -1.5437    Y=              2.7501    Z=              0.4350  Tot=              3.1836
                          Isotropic Fermi Contact Couplings
        Atom                 a.u.       MegaHertz       Gauss      10(-4) cm-1
     1  O(17)              0.11642     -70.57442     -25.18271     -23.54109
     2  N(14)              0.07262      23.46462       8.37276       7.82695
     3  C(13)             -0.00437      -4.90881      -1.75159      -1.63740
     4  C(13)              0.01965      22.08703       7.88120       7.36744
     5  C(13)              0.02665      29.96280      10.69147       9.99451
     6  B(11)              0.40809     585.34690     208.86633     195.25071
     7  H(1)              -0.00072      -3.23265      -1.15349      -1.07830
     8  H(1)              -0.00100      -4.47665      -1.59738      -1.49325

 Normal termination of Gaussian 16 at Wed Apr  9 00:20:39 2025.
