 Gaussian 16, Revision C.01,

 ----------------------------------------------------------------------
 #t hf aug-cc-pvdz symm=none int=(grid=ultrafine) guess=(read,tcheck) s
 table=opt
 ----------------------------------------------------------------------
 -----
 title
 -----
 Symbolic Z-matrix:
 Charge =  0 Multiplicity = 2

 SCF Done:  E(UHF) =  -329.674262362     A.U. after   13 cycles

 1\1\GINC-SE038\Stability\UHF\Aug-CC-pVDZ\C1H5Si1\OHZDE\08-Apr-2025\0\\
 #t hf aug-cc-pvdz symm=none int=(grid=ultrafine) guess=(read,tcheck) s
 table=opt\\title\\0,2\Si,0,0.676508,0.,-0.100354\C,0,-1.204458,0.,0.02
 9217\H,0,1.266532,1.212994,0.525528\H,0,1.266532,-1.212994,0.525528\H,
 0,-1.630007,0.88483,-0.450305\H,0,-1.517407,-0.000001,1.079205\H,0,-1.
 630007,-0.884829,-0.450306\\Version=ES64L-G16RevC.01\HF=-329.6742624\S
 2=0.754064\S2-1=0.\S2A=0.750007\RMSD=6.290e-09\Dipole=-0.3181422,-0.00
 00001,0.0283826\Quadrupole=-0.1671389,0.157236,0.009903,0.0000004,0.10

 Normal termination of Gaussian 16 at Tue Apr  8 22:44:38 2025.
 Gaussian 16:  ES64L-G16RevC.01  3-Jul-2019

 ----------------------------------------------------------------------
 #t hf aug-cc-pvdz iop(5/13=1,5/36=2,99/5=2) pseudo=read geom=check gue
 ss=(read,tcheck) scf=(maxcycle=1)
 ----------------------------------------------------------------------
 -----
 title
 -----
 Structure from the checkpoint file:  "BDE49_expt_1537_mol2.chk"
 Charge =  0 Multiplicity = 2

                         Standard orientation:
 ---------------------------------------------------------------------
 Center     Atomic      Atomic             Coordinates (Angstroms)
 Number     Number       Type             X           Y           Z
 ---------------------------------------------------------------------
      1         14           0        0.676508    0.000000   -0.100354
      2          6           0       -1.204458    0.000000    0.029217
      3          1           0        1.266532    1.212994    0.525528
      4          1           0        1.266532   -1.212994    0.525528
      5          1           0       -1.630007    0.884830   -0.450305
      6          1           0       -1.517407   -0.000001    1.079205
      7          1           0       -1.630007   -0.884829   -0.450306
 ---------------------------------------------------------------------

 SCF Done:  E(UHF) =  -329.751082114     A.U. after    2 cycles

 The electronic state is 2-A.
 Alpha  occ. eigenvalues --  -69.53288 -11.22703  -6.20413  -3.96379  -3.95468
 Alpha  occ. eigenvalues --   -3.95465  -0.95956  -0.71537  -0.57483  -0.57292
 Alpha  occ. eigenvalues --   -0.48049  -0.47153  -0.32776
 Alpha virt. eigenvalues --    0.03616   0.04596   0.05051   0.05191   0.07810
 Alpha virt. eigenvalues --    0.08528   0.08865   0.09629   0.14253   0.15787
 Alpha virt. eigenvalues --    0.16214   0.16279   0.16606   0.19331   0.19532

  Beta  occ. eigenvalues --  -69.52731 -11.22666  -6.19570  -3.95085  -3.95083
  Beta  occ. eigenvalues --   -3.94226  -0.95338  -0.67215  -0.57262  -0.56256
  Beta  occ. eigenvalues --   -0.47224  -0.46354
  Beta virt. eigenvalues --    0.02848   0.03907   0.04830   0.05107   0.06382
  Beta virt. eigenvalues --    0.07973   0.08562   0.10014   0.10505   0.15286
  Beta virt. eigenvalues --    0.16250   0.16263   0.16859   0.17005   0.21165

 Mulliken charges and spin densities:
               1          2
     1  Si   0.868481   0.978940
     2  C   -0.666820  -0.002576
     3  H   -0.199758   0.006222
     4  H   -0.199758   0.006223
     5  H    0.064496   0.000053
     6  H    0.068862   0.011085
     7  H    0.064496   0.000053
 Sum of Mulliken charges =   0.00000   1.00000

 Dipole moment (field-independent basis, Debye):
    X=             -0.8125    Y=             -0.0000    Z=              0.1139  Tot=              0.8204
                          Isotropic Fermi Contact Couplings
        Atom                 a.u.       MegaHertz       Gauss      10(-4) cm-1
     1  Si(29)             0.57141    -507.82352    -181.20406    -169.39169
     2  C(13)              0.00832       9.35845       3.33933       3.12164
     3  H(1)               0.00299      13.37554       4.77272       4.46160
     4  H(1)               0.00299      13.37554       4.77273       4.46160
     5  H(1)               0.00046       2.06213       0.73582       0.68785
     6  H(1)               0.01030      46.03837      16.42764      15.35675
     7  H(1)               0.00046       2.06216       0.73583       0.68786
 --------------------------------------------------------

 Normal termination of Gaussian 16 at Tue Apr  8 22:44:40 2025.
