 Gaussian 16, Revision C.01,

 ----------------------------------------------------------------------
 #t hf aug-cc-pvdz symm=none int=(grid=ultrafine) guess=(read,tcheck) s
 table=opt
 ----------------------------------------------------------------------
 -----
 title
 -----
 Symbolic Z-matrix:
 Charge =  0 Multiplicity = 2

 SCF Done:  E(UHF) =  -1247.64480227     A.U. after   15 cycles
 Normal termination of Gaussian 16 at Tue Apr  8 23:40:54 2025.
 Gaussian 16:  ES64L-G16RevC.01  3-Jul-2019

 ----------------------------------------------------------------------
 #t hf aug-cc-pvdz iop(5/13=1,5/36=2,99/5=2) pseudo=read geom=check gue
 ss=(read,tcheck) scf=(maxcycle=1)
 ----------------------------------------------------------------------
 -----
 title
 -----
 Structure from the checkpoint file:  "BDE49_nonexpt_1641_mol2.chk"
 Charge =  0 Multiplicity = 2

                         Standard orientation:
 ---------------------------------------------------------------------
 Center     Atomic      Atomic             Coordinates (Angstroms)
 Number     Number       Type             X           Y           Z
 ---------------------------------------------------------------------
      1         14           0        0.000000    0.328694   -0.511970
      2          6           0        0.000000    2.040338    0.255832
      3          1           0        0.890314    2.589670   -0.057898
      4          1           0       -0.000001    1.952141    1.346258
      5          1           0       -0.890312    2.589671   -0.057899
      6         17           0       -1.696474   -0.705154    0.129474
      7         17           0        1.696474   -0.705154    0.129474
 ---------------------------------------------------------------------

 SCF Done:  E(UHF) =  -1247.87187104     A.U. after    2 cycles

 The electronic state is 2-A.
 Alpha  occ. eigenvalues -- -105.56946-105.56945 -69.63192 -11.25368 -10.61938
 Alpha  occ. eigenvalues --  -10.61927  -7.78902  -7.78896  -7.78524  -7.78523
 Alpha  occ. eigenvalues --   -7.78469  -7.78466  -6.29511  -4.05149  -4.04519
 Alpha  occ. eigenvalues --   -4.04374  -1.08606  -1.04881  -0.98252  -0.70958
 Alpha  occ. eigenvalues --   -0.60584  -0.60308  -0.55382  -0.54802  -0.52051
 Alpha  occ. eigenvalues --   -0.48653  -0.47712  -0.46921  -0.36173
 Alpha virt. eigenvalues --    0.03367   0.04831   0.04938   0.05555   0.07517
 Alpha virt. eigenvalues --    0.07641   0.09436   0.12143   0.12912   0.14425
 Alpha virt. eigenvalues --    0.14453   0.15114   0.15793   0.16448   0.17543

  Beta  occ. eigenvalues -- -105.56842-105.56842 -69.62603 -11.25085 -10.61824
  Beta  occ. eigenvalues --  -10.61814  -7.78658  -7.78653  -7.78412  -7.78409
  Beta  occ. eigenvalues --   -7.78305  -7.78303  -6.28555  -4.04139  -4.04022
  Beta  occ. eigenvalues --   -4.03131  -1.07522  -1.04058  -0.97280  -0.67283
  Beta  occ. eigenvalues --   -0.60222  -0.59255  -0.54261  -0.53651  -0.49975
  Beta  occ. eigenvalues --   -0.47699  -0.46757  -0.46692
  Beta virt. eigenvalues --    0.00800   0.04188   0.04932   0.05080   0.06084
  Beta virt. eigenvalues --    0.07759   0.07808   0.10256   0.12867   0.13098
  Beta virt. eigenvalues --    0.14713   0.15642   0.16486   0.16810   0.17003

 Mulliken charges and spin densities:
               1          2
     1  Si   1.479070   0.822491
     2  C   -0.659626   0.103732
     3  H    0.071588  -0.001102
     4  H    0.116400  -0.001052
     5  H    0.071585  -0.001102
     6  Cl  -0.539509   0.038516
     7  Cl  -0.539509   0.038516
 Sum of Mulliken charges =   0.00000   1.00000

 Dipole moment (field-independent basis, Debye):
    X=              0.0000    Y=              2.3809    Z=             -0.3970  Tot=              2.4138
                          Isotropic Fermi Contact Couplings
        Atom                 a.u.       MegaHertz       Gauss      10(-4) cm-1
     1  Si(29)             0.90097    -800.71757    -285.71594    -267.09063
     2  C(13)              0.05448      61.24156      21.85251      20.42799
     3  H(1)              -0.00173      -7.74152      -2.76237      -2.58229
     4  H(1)               0.00645      28.83923      10.29055       9.61973
     5  H(1)              -0.00173      -7.74151      -2.76236      -2.58229
     6  Cl(35)             0.06556      28.74607      10.25731       9.58866
     7  Cl(35)             0.06556      28.74608      10.25731       9.58866
 --------------------------------------------------------

 Normal termination of Gaussian 16 at Tue Apr  8 23:40:56 2025.
