 Gaussian 16, Revision C.01,

 ----------------------------------------------------------------------
 #t hf aug-cc-pvdz symm=none int=(grid=ultrafine) guess=(read,tcheck) s
 table=(opt,rrhf)
 ----------------------------------------------------------------------
 -----
 title
 -----
 Symbolic Z-matrix:
 Charge =  0 Multiplicity = 1

 SCF Done:  E(RHF) =  -644.895374987     A.U. after   14 cycles
 Normal termination of Gaussian 16 at Tue Apr  8 22:38:55 2025.
 Gaussian 16:  ES64L-G16RevC.01  3-Jul-2019

 ----------------------------------------------------------------------
 #t hf aug-cc-pvdz iop(5/13=1,5/36=2,99/5=2) pseudo=read geom=check gue
 ss=(read,tcheck) scf=(maxcycle=1)
 ----------------------------------------------------------------------
 -----
 title
 -----
 Structure from the checkpoint file:  "BDE49_expt_1261_mol1.chk"
 Charge =  0 Multiplicity = 1

                         Standard orientation:
 ---------------------------------------------------------------------
 Center     Atomic      Atomic             Coordinates (Angstroms)
 Number     Number       Type             X           Y           Z
 ---------------------------------------------------------------------
      1          6           0       -0.000002    0.555466   -0.000001
      2          7           0        1.238341   -0.366125    0.172739
      3          7           0       -1.238341   -0.366129   -0.172739
      4          8           0        1.133931   -1.159385    1.083470
      5          8           0        2.160531   -0.181648   -0.582160
      6          8           0       -2.160532   -0.181650    0.582157
      7          8           0       -1.133922   -1.159396   -1.083462
      8          9           0       -0.130131    1.291646    1.079070
      9          9           0        0.130125    1.291644   -1.079073
 ---------------------------------------------------------------------

 SCF Done:  E(RHF) =  -645.490532721     A.U. after    2 cycles

 The electronic state is 1-A.
 Alpha  occ. eigenvalues --  -26.59436 -26.59434 -20.66236 -20.66236 -20.65574
 Alpha  occ. eigenvalues --  -20.65571 -15.85974 -15.85952 -11.60896  -1.79151
 Alpha  occ. eigenvalues --   -1.73878  -1.73643  -1.70950  -1.58817  -1.58522
 Alpha  occ. eigenvalues --   -1.19810  -1.08400  -0.95180  -0.90023  -0.90023
 Alpha  occ. eigenvalues --   -0.88477  -0.81849  -0.81073  -0.80206  -0.78881
 Alpha  occ. eigenvalues --   -0.76137  -0.75074  -0.74374  -0.71301  -0.57296
 Alpha  occ. eigenvalues --   -0.55859  -0.55474  -0.53575  -0.51143  -0.50402
 Alpha virt. eigenvalues --   -0.00007   0.00924   0.06580   0.08418   0.09153
 Alpha virt. eigenvalues --    0.09175   0.13351   0.13406   0.14401   0.15512
 Alpha virt. eigenvalues --    0.17195   0.19960   0.20927   0.21400   0.22233

 Mulliken charges:
               1
     1  C    1.700783
     2  N    2.569645
     3  N    2.569645
     4  O   -1.410294
     5  O   -1.267922
     6  O   -1.267923
     7  O   -1.410294
     8  F   -0.741820
     9  F   -0.741821
 Sum of Mulliken charges =  -0.00000

 Dipole moment (field-independent basis, Debye):
    X=             -0.0000    Y=              1.8951    Z=             -0.0000  Tot=              1.8951

 Test job not archived.
 1\1\GINC-SE229\SP\RHF\Aug-CC-pVDZ\C1F2N2O4\OHZDE\08-Apr-2025\0\\#t hf
 aug-cc-pvdz iop(5/13=1,5/36=2,99/5=2) pseudo=read geom=check guess=(re
 ad,tcheck) scf=(maxcycle=1)\\title\\0,1\C,0,0.000002,0.555466,0.000001
 \N,0,-1.238341,-0.366125,-0.172739\N,0,1.238341,-0.366129,0.172739\O,0
 ,-1.133931,-1.159385,-1.08347\O,0,-2.160531,-0.181648,0.58216\O,0,2.16
 0532,-0.18165,-0.582157\O,0,1.133922,-1.159396,1.083462\F,0,0.130131,1
 .291646,-1.07907\F,0,-0.130125,1.291644,1.079073\\Version=ES64L-G16Rev
 C.01\State=1-A\HF=-645.4905327\RMSD=2.062e-02\Dipole=0.0000069,0.74559

 Normal termination of Gaussian 16 at Tue Apr  8 22:39:01 2025.
