 Gaussian 16, Revision C.01,

 ----------------------------------------------------------------------
 #t hf aug-cc-pvdz symm=none int=(grid=ultrafine) guess=(read,tcheck) s
 table=(opt,rrhf)
 ----------------------------------------------------------------------
 -----
 title
 -----
 Symbolic Z-matrix:
 Charge =  0 Multiplicity = 1

 SCF Done:  E(RHF) =  -737.506233407     A.U. after   11 cycles
 Normal termination of Gaussian 16 at Wed Apr  9 00:09:19 2025.
 Gaussian 16:  ES64L-G16RevC.01  3-Jul-2019

 ----------------------------------------------------------------------
 #t hf aug-cc-pvdz iop(5/13=1,5/36=2,99/5=2) pseudo=read geom=check gue
 ss=(read,tcheck) scf=(maxcycle=1)
 ----------------------------------------------------------------------
 -----
 title
 -----
 Structure from the checkpoint file:  "BDE49_nonexpt_2302_mol1.chk"
 Charge =  0 Multiplicity = 1

                         Standard orientation:
 ---------------------------------------------------------------------
 Center     Atomic      Atomic             Coordinates (Angstroms)
 Number     Number       Type             X           Y           Z
 ---------------------------------------------------------------------
      1         14           0       -1.014743   -1.006244   -0.521684
      2         14           0        1.054298   -0.899652    0.622947
      3          6           0        2.374536    0.159544   -0.234761
      4          1           0        1.563869   -2.291733    0.748764
      5          1           0        0.839840   -0.386255    2.003734
      6          6           0       -2.014168    0.606531   -0.553955
      7          1           0       -1.835058   -2.067969    0.122591
      8          1           0       -0.754323   -1.441712   -1.921293
      9          6           0       -2.444236    1.130774    0.826628
     10          1           0       -1.430750    1.368821   -1.082278
     11          1           0       -2.898638    0.424578   -1.175652
     12          1           0       -1.581801    1.363321    1.457486
     13          1           0       -3.050545    0.394356    1.361907
     14          1           0       -3.040522    2.043609    0.737248
     15          6           0        2.058230    1.662066   -0.322360
     16          1           0        2.542564   -0.249669   -1.237442
     17          1           0        3.313455    0.008872    0.310605
     18          1           0        1.154886    1.852154   -0.909176
     19          1           0        2.875171    2.213860   -0.796622
     20          1           0        1.901917    2.096832    0.669143
 ---------------------------------------------------------------------

 SCF Done:  E(RHF) =  -737.756266154     A.U. after    2 cycles

 The electronic state is 1-A.
 Alpha  occ. eigenvalues --  -69.51419 -69.51411 -11.23399 -11.23183 -11.22425
 Alpha  occ. eigenvalues --  -11.22414  -6.18578  -6.18565  -3.93931  -3.93918
 Alpha  occ. eigenvalues --   -3.93914  -3.93894  -3.93890  -3.93847  -1.02845
 Alpha  occ. eigenvalues --   -1.02433  -0.85626  -0.85124  -0.73871  -0.66657
 Alpha  occ. eigenvalues --   -0.61772  -0.60873  -0.58433  -0.58023  -0.53095
 Alpha  occ. eigenvalues --   -0.52633  -0.50552  -0.50448  -0.47390  -0.46865
 Alpha  occ. eigenvalues --   -0.44009  -0.43128  -0.38671
 Alpha virt. eigenvalues --    0.03525   0.03560   0.03868   0.04113   0.05637
 Alpha virt. eigenvalues --    0.05780   0.05951   0.06406   0.06876   0.08205
 Alpha virt. eigenvalues --    0.08319   0.09136   0.09333   0.09769   0.10236

 Mulliken charges:
               1
     1  Si   0.649876
     2  Si   0.670552
     3  C   -0.555115
     4  H   -0.209098
     5  H   -0.046235
     6  C   -0.514560
     7  H   -0.096985
     8  H   -0.179864
     9  C   -0.400534
    10  H    0.130577
    11  H    0.013499
    12  H    0.120462
    13  H    0.149748
    14  H    0.103406
    15  C   -0.363400
    16  H    0.107643
    17  H    0.046460
    18  H    0.119528
    19  H    0.101978
    20  H    0.152063
 Sum of Mulliken charges =  -0.00000

 Dipole moment (field-independent basis, Debye):
    X=              0.1486    Y=              1.0958    Z=             -0.3553  Tot=              1.1615

 Test job not archived.
 1\1\GINC-SE336\SP\RHF\Aug-CC-pVDZ\C4H14Si2\OHZDE\09-Apr-2025\0\\#t hf
 aug-cc-pvdz iop(5/13=1,5/36=2,99/5=2) pseudo=read geom=check guess=(re
 ad,tcheck) scf=(maxcycle=1)\\title\\0,1\Si,0,-1.014743,-1.006244,-0.52
 1684\Si,0,1.054298,-0.899652,0.622947\C,0,2.374536,0.159544,-0.234761\
 H,0,1.563869,-2.291733,0.748764\H,0,0.83984,-0.386255,2.003734\C,0,-2.
 014168,0.606531,-0.553955\H,0,-1.835058,-2.067969,0.122591\H,0,-0.7543
 23,-1.441712,-1.921293\C,0,-2.444236,1.130774,0.826628\H,0,-1.43075,1.
 368821,-1.082278\H,0,-2.898638,0.424579,-1.175652\H,0,-1.581801,1.3633

 Normal termination of Gaussian 16 at Wed Apr  9 00:09:28 2025.
