 Gaussian 16, Revision C.01,

 ----------------------------------------------------------------------
 #t hf aug-cc-pvdz symm=none int=(grid=ultrafine) guess=(read,tcheck) s
 table=(opt,rrhf)
 ----------------------------------------------------------------------
 -----
 title
 -----
 Symbolic Z-matrix:
 Charge =  0 Multiplicity = 1

 SCF Done:  E(RHF) =  -613.307452940     A.U. after   12 cycles
 Normal termination of Gaussian 16 at Wed Apr  9 00:02:34 2025.
 Gaussian 16:  ES64L-G16RevC.01  3-Jul-2019

 ----------------------------------------------------------------------
 #t hf aug-cc-pvdz iop(5/13=1,5/36=2,99/5=2) pseudo=read geom=check gue
 ss=(read,tcheck) scf=(maxcycle=1)
 ----------------------------------------------------------------------
 -----
 title
 -----
 Structure from the checkpoint file:  "BDE49_nonexpt_2153_mol1.chk"
 Charge =  0 Multiplicity = 1

                         Standard orientation:
 ---------------------------------------------------------------------
 Center     Atomic      Atomic             Coordinates (Angstroms)
 Number     Number       Type             X           Y           Z
 ---------------------------------------------------------------------
      1          6           0        2.662473    0.623171   -0.138574
      2          6           0        2.010383   -0.695958    0.290295
      3          1           0        2.899447    0.610492   -1.207852
      4          1           0        3.596230    0.795776    0.404073
      5          1           0        2.000875    1.472086    0.047481
      6          6           0        0.705317   -1.022502   -0.464901
      7          1           0        1.810743   -0.667403    1.367679
      8          1           0        2.726586   -1.511324    0.137285
      9         14           0       -0.801097   -0.003545   -0.029872
     10          1           0        0.421696   -2.066813   -0.277297
     11          1           0        0.870759   -0.965735   -1.548257
     12          8           0       -1.930873   -0.523872   -1.121582
     13          7           0       -1.314439   -0.176563    1.590903
     14          1           0       -1.247537   -1.042797    2.100771
     15          1           0       -1.359636    0.629221    2.194900
     16          1           0       -2.843926   -0.306168   -0.915565
     17          8           0       -0.593288    1.636846   -0.142879
     18          1           0       -0.534553    2.006178   -1.026559
 ---------------------------------------------------------------------

 SCF Done:  E(RHF) =  -613.681079375     A.U. after    2 cycles

 The electronic state is 1-A.
 Alpha  occ. eigenvalues --  -69.56843 -20.53776 -20.53438 -15.47087 -11.22836
 Alpha  occ. eigenvalues --  -11.21620 -11.20875  -6.23059  -3.98569  -3.98483
 Alpha  occ. eigenvalues --   -3.98343  -1.43664  -1.41326  -1.13632  -1.05058
 Alpha  occ. eigenvalues --   -0.92597  -0.80846  -0.75459  -0.70714  -0.67922
 Alpha  occ. eigenvalues --   -0.63829  -0.62321  -0.60498  -0.57479  -0.55337
 Alpha  occ. eigenvalues --   -0.54530  -0.51759  -0.51125  -0.48709  -0.47828
 Alpha  occ. eigenvalues --   -0.47723  -0.45183  -0.42062
 Alpha virt. eigenvalues --    0.03151   0.04025   0.04269   0.04518   0.05860
 Alpha virt. eigenvalues --    0.06444   0.06722   0.06818   0.07191   0.08834
 Alpha virt. eigenvalues --    0.09375   0.09797   0.10526   0.11572   0.12704

 Mulliken charges:
               1
     1  C   -0.306494
     2  C   -0.422323
     3  H    0.148904
     4  H    0.127748
     5  H    0.100160
     6  C   -0.520808
     7  H    0.152505
     8  H    0.102863
     9  Si   3.011672
    10  H    0.094282
    11  H   -0.039153
    12  O   -1.628502
    13  N    0.036614
    14  H   -0.039337
    15  H   -0.003170
    16  H    0.405342
    17  O   -1.586079
    18  H    0.365775
 Sum of Mulliken charges =   0.00000

 Dipole moment (field-independent basis, Debye):
    X=             -0.1159    Y=             -0.0643    Z=              0.4629  Tot=              0.4815

 Test job not archived.
 1\1\GINC-SE329\SP\RHF\Aug-CC-pVDZ\C3H11N1O2Si1\OHZDE\09-Apr-2025\0\\#t
  hf aug-cc-pvdz iop(5/13=1,5/36=2,99/5=2) pseudo=read geom=check guess
 =(read,tcheck) scf=(maxcycle=1)\\title\\0,1\C,0,2.662473,0.623171,-0.1
 38574\C,0,2.010383,-0.695958,0.290295\H,0,2.899447,0.610492,-1.207852\
 H,0,3.59623,0.795776,0.404073\H,0,2.000875,1.472086,0.047481\C,0,0.705
 317,-1.022502,-0.464901\H,0,1.810743,-0.667403,1.367679\H,0,2.726586,-
 1.511324,0.137285\Si,0,-0.801097,-0.003545,-0.029872\H,0,0.421696,-2.0
 66813,-0.277297\H,0,0.870759,-0.965735,-1.548257\O,0,-1.930873,-0.5238

 Normal termination of Gaussian 16 at Wed Apr  9 00:02:42 2025.
