 Gaussian 16, Revision C.01,

 ----------------------------------------------------------------------
 #t hf aug-cc-pvdz symm=none int=(grid=ultrafine) guess=(read,tcheck) s
 table=opt
 ----------------------------------------------------------------------
 -----
 title
 -----
 Symbolic Z-matrix:
 Charge =  0 Multiplicity = 2

 SCF Done:  E(UHF) =  -509.678039999     A.U. after   18 cycles
 Normal termination of Gaussian 16 at Tue Apr  8 23:35:06 2025.
 Gaussian 16:  ES64L-G16RevC.01  3-Jul-2019

 ----------------------------------------------------------------------
 #t hf aug-cc-pvdz iop(5/13=1,5/36=2,99/5=2) pseudo=read geom=check gue
 ss=(read,tcheck) scf=(maxcycle=1)
 ----------------------------------------------------------------------
 -----
 title
 -----
 Structure from the checkpoint file:  "BDE49_nonexpt_1493_mol2.chk"
 Charge =  0 Multiplicity = 2

                         Standard orientation:
 ---------------------------------------------------------------------
 Center     Atomic      Atomic             Coordinates (Angstroms)
 Number     Number       Type             X           Y           Z
 ---------------------------------------------------------------------
      1          6           0        0.482679   -0.149804   -0.000009
      2          8           0        0.967453   -1.266010   -0.000032
      3          7           0        1.230151    0.991714   -0.000011
      4          1           0        2.235981    0.900578   -0.000019
      5          1           0        0.820376    1.908650    0.000026
      6         15           0       -1.388863   -0.009380    0.000022
      7          1           0       -1.470164    1.416382    0.000061
 ---------------------------------------------------------------------

 SCF Done:  E(UHF) =  -509.882955550     A.U. after    2 cycles

 The electronic state is 2-A.
 Alpha  occ. eigenvalues --  -84.30691 -20.53112 -15.54207 -11.37458  -6.77898
 Alpha  occ. eigenvalues --   -4.30182  -4.29962  -4.29247  -1.47832  -1.23324
 Alpha  occ. eigenvalues --   -0.93324  -0.82847  -0.75823  -0.67419  -0.60830
 Alpha  occ. eigenvalues --   -0.58401  -0.46210  -0.44124  -0.39838  -0.35822
 Alpha virt. eigenvalues --    0.02590   0.04940   0.05871   0.08562   0.09530
 Alpha virt. eigenvalues --    0.10042   0.12007   0.12622   0.13426   0.15798
 Alpha virt. eigenvalues --    0.15926   0.16545   0.17589   0.18444   0.19229

  Beta  occ. eigenvalues --  -84.30012 -20.52616 -15.54205 -11.37791  -6.77038
  Beta  occ. eigenvalues --   -4.29424  -4.28836  -4.26865  -1.46870  -1.23242
  Beta  occ. eigenvalues --   -0.89956  -0.81435  -0.74549  -0.66679  -0.59766
  Beta  occ. eigenvalues --   -0.57983  -0.43781  -0.42571  -0.38768
  Beta virt. eigenvalues --    0.01387   0.02642   0.05005   0.05930   0.08695
  Beta virt. eigenvalues --    0.10147   0.11564   0.12326   0.12855   0.13563
  Beta virt. eigenvalues --    0.16339   0.17042   0.17635   0.18741   0.19784

 Mulliken charges and spin densities:
               1          2
     1  C   -0.120052  -0.183769
     2  O   -1.079890   0.122074
     3  N    0.497469   0.001142
     4  H    0.059038   0.001315
     5  H    0.061241  -0.000146
     6  P    0.494418   1.229248
     7  H    0.087776  -0.169864
 Sum of Mulliken charges =  -0.00000   1.00000

 Dipole moment (field-independent basis, Debye):
    X=             -0.4728    Y=              3.8157    Z=              0.0001  Tot=              3.8449
                          Isotropic Fermi Contact Couplings
        Atom                 a.u.       MegaHertz       Gauss      10(-4) cm-1
     1  C(13)             -0.05161     -58.01994     -20.70296     -19.35337
     2  O(17)              0.03685     -22.33622      -7.97012      -7.45056
     3  N(14)             -0.00354      -1.14449      -0.40838      -0.38176
     4  H(1)              -0.00031      -1.40427      -0.50108      -0.46841
     5  H(1)               0.00012       0.52376       0.18689       0.17471
     6  P(31)              0.19039     344.81312     123.03790     115.01728
     7  H(1)              -0.01417     -63.31975     -22.59406     -21.12119
 --------------------------------------------------------

 Normal termination of Gaussian 16 at Tue Apr  8 23:35:08 2025.
