 Gaussian 16, Revision C.01,

 ----------------------------------------------------------------------
 #t hf aug-cc-pvdz symm=none int=(grid=ultrafine) guess=(read,tcheck) s
 table=(opt,rrhf)
 ----------------------------------------------------------------------
 -----
 title
 -----
 Symbolic Z-matrix:
 Charge =  0 Multiplicity = 1

 SCF Done:  E(RHF) =  -399.664624171     A.U. after   16 cycles
 Normal termination of Gaussian 16 at Tue Apr  8 23:08:55 2025.
 Gaussian 16:  ES64L-G16RevC.01  3-Jul-2019

 ----------------------------------------------------------------------
 #t hf aug-cc-pvdz iop(5/13=1,5/36=2,99/5=2) pseudo=read geom=check gue
 ss=(read,tcheck) scf=(maxcycle=1)
 ----------------------------------------------------------------------
 -----
 title
 -----
 Structure from the checkpoint file:  "BDE49_expt_470_mol1.chk"
 Charge =  0 Multiplicity = 1

                         Standard orientation:
 ---------------------------------------------------------------------
 Center     Atomic      Atomic             Coordinates (Angstroms)
 Number     Number       Type             X           Y           Z
 ---------------------------------------------------------------------
      1          6           0       -2.280819   -0.655172    0.006996
      2          6           0       -1.847498    0.671186   -0.000634
      3          6           0       -0.487922    0.985566   -0.010106
      4          6           0       -1.356318   -1.690183    0.003978
      5          6           0        0.012144   -1.397701   -0.001130
      6          6           0        0.444782   -0.077457   -0.006941
      7          1           0       -3.343260   -0.869919    0.013220
      8          1           0       -2.571202    1.480280   -0.007380
      9          7           0       -0.022320    2.297033   -0.078897
     10          1           0       -0.637653    2.990393    0.319309
     11          1           0        0.938226    2.405751    0.211915
     12          1           0        0.730334   -2.207103    0.002438
     13          8           0        1.759052    0.325092    0.000956
     14          1           0       -1.682739   -2.723236    0.007555
     15          6           0        2.768279   -0.671495    0.004769
     16          1           0        3.718035   -0.138388    0.007306
     17          1           0        2.710677   -1.302435   -0.889254
     18          1           0        2.705510   -1.303769    0.897930
 ---------------------------------------------------------------------

 SCF Done:  E(RHF) =  -400.078007424     A.U. after    2 cycles

 The electronic state is 1-A.
 Alpha  occ. eigenvalues --  -20.57145 -15.50003 -11.29623 -11.29486 -11.27602
 Alpha  occ. eigenvalues --  -11.23775 -11.23292 -11.23086 -11.22977  -1.49372
 Alpha  occ. eigenvalues --   -1.21646  -1.12690  -1.01466  -0.99744  -0.94420
 Alpha  occ. eigenvalues --   -0.83774  -0.81890  -0.73468  -0.72125  -0.69227
 Alpha  occ. eigenvalues --   -0.65720  -0.64352  -0.63252  -0.61254  -0.58690
 Alpha  occ. eigenvalues --   -0.55830  -0.54213  -0.51236  -0.49512  -0.48835
 Alpha  occ. eigenvalues --   -0.46018  -0.33308  -0.29627
 Alpha virt. eigenvalues --    0.03379   0.03615   0.03956   0.04737   0.05330
 Alpha virt. eigenvalues --    0.05487   0.07376   0.08163   0.09222   0.10930
 Alpha virt. eigenvalues --    0.11385   0.12521   0.12889   0.13142   0.13755

 Mulliken charges:
               1
     1  C   -0.037215
     2  C    1.188783
     3  C   -2.330297
     4  C    0.365090
     5  C   -0.015895
     6  C    2.764864
     7  H   -0.230389
     8  H   -0.300757
     9  N    0.820557
    10  H    0.061470
    11  H    0.056466
    12  H   -0.446418
    13  O   -2.035627
    14  H   -0.231586
    15  C    0.086999
    16  H   -0.049696
    17  H    0.166394
    18  H    0.167259
 Sum of Mulliken charges =   0.00000

 Dipole moment (field-independent basis, Debye):
    X=              1.0847    Y=             -0.3463    Z=              1.0142  Tot=              1.5248

 Test job not archived.
 1\1\GINC-SE247\SP\RHF\Aug-CC-pVDZ\C7H9N1O1\OHZDE\08-Apr-2025\0\\#t hf
 aug-cc-pvdz iop(5/13=1,5/36=2,99/5=2) pseudo=read geom=check guess=(re
 ad,tcheck) scf=(maxcycle=1)\\title\\0,1\C,0,-2.280819,-0.655172,0.0069
 96\C,0,-1.847498,0.671186,-0.000634\C,0,-0.487922,0.985566,-0.010106\C
 ,0,-1.356318,-1.690183,0.003978\C,0,0.012144,-1.397701,-0.00113\C,0,0.
 444782,-0.077457,-0.006941\H,0,-3.34326,-0.869918,0.01322\H,0,-2.57120
 2,1.48028,-0.00738\N,0,-0.02232,2.297033,-0.078897\H,0,-0.637653,2.990
 393,0.319309\H,0,0.938226,2.405751,0.211915\H,0,0.730333,-2.207103,0.0

 Normal termination of Gaussian 16 at Tue Apr  8 23:09:04 2025.
