 Gaussian 16, Revision C.01,

 ----------------------------------------------------------------------
 #t hf aug-cc-pvdz symm=none int=(grid=ultrafine) guess=(read,tcheck) s
 table=(opt,rrhf)
 ----------------------------------------------------------------------
 -----
 title
 -----
 Symbolic Z-matrix:
 Charge =  0 Multiplicity = 1

 SCF Done:  E(RHF) =  -522.311553441     A.U. after   12 cycles
 Normal termination of Gaussian 16 at Wed Apr  9 00:08:58 2025.
 Gaussian 16:  ES64L-G16RevC.01  3-Jul-2019

 ----------------------------------------------------------------------
 #t hf aug-cc-pvdz iop(5/13=1,5/36=2,99/5=2) pseudo=read geom=check gue
 ss=(read,tcheck) scf=(maxcycle=1)
 ----------------------------------------------------------------------
 -----
 title
 -----
 Structure from the checkpoint file:  "BDE49_nonexpt_2293_mol1.chk"
 Charge =  0 Multiplicity = 1

                         Standard orientation:
 ---------------------------------------------------------------------
 Center     Atomic      Atomic             Coordinates (Angstroms)
 Number     Number       Type             X           Y           Z
 ---------------------------------------------------------------------
      1          6           0        1.087739    1.348406    0.681001
      2          6           0        0.812591   -0.000643    0.006109
      3          1           0        1.033138    2.154488   -0.054065
      4          1           0        0.355920    1.550618    1.467261
      5          8           0       -0.477459    0.060390   -0.644554
      6         14           0       -2.015206    0.005303   -0.064724
      7          6           0        0.837562   -1.143092    1.028673
      8          1           0        0.589033   -2.092875    0.549242
      9          1           0        0.122938   -0.968185    1.838657
     10          1           0        1.830459   -1.234067    1.476916
     11          6           0        1.817643   -0.260193   -1.118556
     12          1           0        1.756953    0.534619   -1.864914
     13          1           0        1.594686   -1.208736   -1.612035
     14          1           0        2.838501   -0.298736   -0.729085
     15          1           0        2.083024    1.358919    1.133776
     16          1           0       -2.885922    0.330217   -1.211898
     17          1           0       -2.246317    0.985933    1.026720
     18          1           0       -2.373068   -1.336422    0.458630
 ---------------------------------------------------------------------

 SCF Done:  E(RHF) =  -522.596238702     A.U. after    2 cycles

 The electronic state is 1-A.
 Alpha  occ. eigenvalues --  -69.55109 -20.52778 -11.30322 -11.23090 -11.22693
 Alpha  occ. eigenvalues --  -11.22318  -6.21679  -3.97187  -3.97043  -3.97022
 Alpha  occ. eigenvalues --   -1.43181  -1.07679  -0.94742  -0.94364  -0.80345
 Alpha  occ. eigenvalues --   -0.70957  -0.64483  -0.63317  -0.62928  -0.57166
 Alpha  occ. eigenvalues --   -0.56989  -0.53671  -0.52748  -0.52155  -0.51975
 Alpha  occ. eigenvalues --   -0.48974  -0.48673  -0.43892  -0.42274
 Alpha virt. eigenvalues --    0.03695   0.03943   0.04125   0.04159   0.05860
 Alpha virt. eigenvalues --    0.06435   0.06513   0.06838   0.06902   0.08841
 Alpha virt. eigenvalues --    0.09529   0.09713   0.10457   0.11033   0.11639

 Mulliken charges:
               1
     1  C    0.107851
     2  C   -0.957755
     3  H    0.210547
     4  H    0.165968
     5  O   -1.937110
     6  Si   1.210917
     7  C    0.106311
     8  H    0.227522
     9  H    0.142354
    10  H    0.221832
    11  C    0.067279
    12  H    0.191709
    13  H    0.195532
    14  H    0.234535
    15  H    0.228337
    16  H   -0.116268
    17  H   -0.166574
    18  H   -0.132988
 Sum of Mulliken charges =  -0.00000

 Dipole moment (field-independent basis, Debye):
    X=              1.0829    Y=             -0.1139    Z=              0.8936  Tot=              1.4087

 Test job not archived.
 1\1\GINC-SE345\SP\RHF\Aug-CC-pVDZ\C4H12O1Si1\OHZDE\09-Apr-2025\0\\#t h
 f aug-cc-pvdz iop(5/13=1,5/36=2,99/5=2) pseudo=read geom=check guess=(
 read,tcheck) scf=(maxcycle=1)\\title\\0,1\C,0,1.087739,1.348406,0.6810
 01\C,0,0.812591,-0.000643,0.006109\H,0,1.033138,2.154488,-0.054065\H,0
 ,0.35592,1.550618,1.467261\O,0,-0.477459,0.06039,-0.644554\Si,0,-2.015
 206,0.005303,-0.064724\C,0,0.837562,-1.143092,1.028673\H,0,0.589033,-2
 .092875,0.549242\H,0,0.122938,-0.968185,1.838657\H,0,1.830459,-1.23406
 7,1.476916\C,0,1.817643,-0.260193,-1.118556\H,0,1.756953,0.534619,-1.8

 Normal termination of Gaussian 16 at Wed Apr  9 00:09:04 2025.
