 Gaussian 16, Revision C.01,

 ----------------------------------------------------------------------
 #t hf aug-cc-pvdz symm=none int=(grid=ultrafine) guess=(read,tcheck) s
 table=(opt,rrhf)
 ----------------------------------------------------------------------
 -----
 title
 -----
 Symbolic Z-matrix:
 Charge =  0 Multiplicity = 1

 SCF Done:  E(RHF) =  -669.906901506     A.U. after   15 cycles
 Normal termination of Gaussian 16 at Wed Apr  9 00:46:09 2025.
 Gaussian 16:  ES64L-G16RevC.01  3-Jul-2019

 ----------------------------------------------------------------------
 #t hf aug-cc-pvdz iop(5/13=1,5/36=2,99/5=2) pseudo=read geom=check gue
 ss=(read,tcheck) scf=(maxcycle=1)
 ----------------------------------------------------------------------
 -----
 title
 -----
 Structure from the checkpoint file:  "BDE49_nonexpt_813_mol1.chk"
 Charge =  0 Multiplicity = 1

                         Standard orientation:
 ---------------------------------------------------------------------
 Center     Atomic      Atomic             Coordinates (Angstroms)
 Number     Number       Type             X           Y           Z
 ---------------------------------------------------------------------
      1         14           0       -0.117246   -1.067004    0.000175
      2          7           0       -1.576514    0.148350    0.000249
      3          5           0        1.560818    0.085946    0.000085
      4          8           0       -1.329092    1.365435   -0.000460
      5          8           0       -2.707108   -0.305349   -0.000316
      6          8           0        1.481586    1.433502    0.000313
      7          8           0        2.752615   -0.564519   -0.000203
      8          1           0        3.505943    0.040759   -0.000226
      9          1           0        0.556870    1.740463    0.000547
     10          1           0       -0.386994   -1.871953   -1.207183
     11          1           0       -0.386875   -1.871938    1.207568
 ---------------------------------------------------------------------

 SCF Done:  E(RHF) =  -670.304594944     A.U. after    2 cycles

 The electronic state is 1-A.
 Alpha  occ. eigenvalues --  -69.59067 -20.60638 -20.59782 -20.58471 -20.57361
 Alpha  occ. eigenvalues --  -15.76375  -7.67396  -6.26100  -4.01502  -4.01336
 Alpha  occ. eigenvalues --   -4.01288  -1.66495  -1.50775  -1.50107  -1.46311
 Alpha  occ. eigenvalues --   -1.00429  -0.84035  -0.80152  -0.75555  -0.74595
 Alpha  occ. eigenvalues --   -0.73253  -0.69845  -0.63925  -0.59381  -0.58741
 Alpha  occ. eigenvalues --   -0.53300  -0.51219  -0.50310  -0.48301  -0.45853
 Alpha  occ. eigenvalues --   -0.45823
 Alpha virt. eigenvalues --    0.03141   0.03890   0.04070   0.04525   0.04750
 Alpha virt. eigenvalues --    0.06333   0.07183   0.07596   0.08504   0.08518
 Alpha virt. eigenvalues --    0.09853   0.10933   0.11732   0.12112   0.14592

 Mulliken charges:
               1
     1  Si   0.618220
     2  N    1.799725
     3  B    1.452214
     4  O   -1.181104
     5  O   -1.223432
     6  O   -1.352628
     7  O   -1.165788
     8  H    0.545101
     9  H    0.718957
    10  H   -0.105668
    11  H   -0.105598
 Sum of Mulliken charges =  -0.00000

 Dipole moment (field-independent basis, Debye):
    X=              2.9910    Y=             -1.5155    Z=              0.0013  Tot=              3.3530

 Test job not archived.
 1\1\GINC-SE044\SP\RHF\Aug-CC-pVDZ\B1H4N1O4Si1\OHZDE\09-Apr-2025\0\\#t
 hf aug-cc-pvdz iop(5/13=1,5/36=2,99/5=2) pseudo=read geom=check guess=
 (read,tcheck) scf=(maxcycle=1)\\title\\0,1\Si,0,0.117246,-1.067004,-0.
 000175\N,0,1.576514,0.14835,-0.000249\B,0,-1.560818,0.085946,-0.000085
 \O,0,1.329092,1.365435,0.00046\O,0,2.707108,-0.305349,0.000316\O,0,-1.
 481586,1.433502,-0.000313\O,0,-2.752615,-0.564519,0.000203\H,0,-3.5059
 43,0.040759,0.000226\H,0,-0.55687,1.740463,-0.000547\H,0,0.386994,-1.8
 71953,1.207183\H,0,0.386875,-1.871938,-1.207568\\Version=ES64L-G16RevC

 Normal termination of Gaussian 16 at Wed Apr  9 00:46:14 2025.
