 Gaussian 16, Revision C.01,

 ----------------------------------------------------------------------
 #t hf aug-cc-pvdz symm=none int=(grid=ultrafine) guess=(read,tcheck) s
 table=(opt,rrhf)
 ----------------------------------------------------------------------
 -----
 title
 -----
 Symbolic Z-matrix:
 Charge =  0 Multiplicity = 1

 SCF Done:  E(RHF) =  -769.639390618     A.U. after   14 cycles
 Normal termination of Gaussian 16 at Wed Apr  9 00:26:00 2025.
 Gaussian 16:  ES64L-G16RevC.01  3-Jul-2019

 ----------------------------------------------------------------------
 #t hf aug-cc-pvdz iop(5/13=1,5/36=2,99/5=2) pseudo=read geom=check gue
 ss=(read,tcheck) scf=(maxcycle=1)
 ----------------------------------------------------------------------
 -----
 title
 -----
 Structure from the checkpoint file:  "BDE49_nonexpt_2705_mol1.chk"
 Charge =  0 Multiplicity = 1

                         Standard orientation:
 ---------------------------------------------------------------------
 Center     Atomic      Atomic             Coordinates (Angstroms)
 Number     Number       Type             X           Y           Z
 ---------------------------------------------------------------------
      1          6           0       -0.431483    0.989759    0.163995
      2          6           0       -1.794677    1.487843   -0.335823
      3          6           0       -2.943174    0.602054    0.164740
      4          6           0       -2.710392   -0.869810   -0.201834
      5          6           0       -1.345823   -1.367749    0.296353
      6          6           0        1.148686   -1.017268    0.319583
      7          6           0       -0.188363   -0.483392   -0.209309
      8         16           0        2.657795   -0.313763   -0.380014
      9          9           0        2.690128    1.160165    0.427451
     10          1           0       -0.385219    1.089176    1.257168
     11          1           0        0.371837    1.613428   -0.234044
     12          1           0       -1.795608    1.495144   -1.433474
     13          1           0       -1.948797    2.524315   -0.019843
     14          1           0       -3.897331    0.947109   -0.246103
     15          1           0       -3.021585    0.694317    1.255786
     16          1           0       -2.757794   -0.982480   -1.292518
     17          1           0       -3.507948   -1.496416    0.209972
     18          1           0       -1.187934   -2.405974   -0.017458
     19          1           0       -1.340421   -1.369050    1.394786
     20          1           0        1.265334   -2.081014    0.068237
     21          1           0        1.220686   -0.942626    1.409202
     22          1           0       -0.159739   -0.555822   -1.304787
 ---------------------------------------------------------------------

 SCF Done:  E(RHF) =  -770.086935664     A.U. after    2 cycles

 The electronic state is 1-A.
 Alpha  occ. eigenvalues --  -94.02566 -26.45839 -11.28167 -11.24494 -11.23508
 Alpha  occ. eigenvalues --  -11.23112 -11.22755 -11.22669 -11.22537  -8.29841
 Alpha  occ. eigenvalues --   -6.27656  -6.27332  -6.27066  -1.55656  -1.13803
 Alpha  occ. eigenvalues --   -1.07556  -1.00836  -0.99700  -0.88490  -0.84141
 Alpha  occ. eigenvalues --   -0.80975  -0.76533  -0.66928  -0.65900  -0.64950
 Alpha  occ. eigenvalues --   -0.63690  -0.61965  -0.61200  -0.60001  -0.57525
 Alpha  occ. eigenvalues --   -0.55286  -0.53865  -0.52480  -0.49727  -0.49254
 Alpha  occ. eigenvalues --   -0.48140  -0.46356  -0.44772  -0.43617  -0.37056
 Alpha virt. eigenvalues --    0.03019   0.03187   0.03447   0.04397   0.05457
 Alpha virt. eigenvalues --    0.05672   0.05945   0.06359   0.06663   0.08378
 Alpha virt. eigenvalues --    0.08990   0.09280   0.09448   0.09923   0.10914

 Mulliken charges:
               1
     1  C   -0.197139
     2  C   -0.305025
     3  C   -0.226911
     4  C   -0.266391
     5  C   -0.071657
     6  C   -0.469595
     7  C   -0.731422
     8  S    1.005144
     9  F   -0.697288
    10  H    0.155965
    11  H    0.143768
    12  H    0.165128
    13  H    0.118147
    14  H    0.104812
    15  H    0.154597
    16  H    0.157457
    17  H    0.108976
    18  H    0.061102
    19  H    0.180645
    20  H    0.271362
    21  H    0.210325
    22  H    0.128001
 Sum of Mulliken charges =  -0.00000

 Dipole moment (field-independent basis, Debye):
    X=             -2.1045    Y=             -1.7071    Z=              0.0276  Tot=              2.7099

 Test job not archived.
 1\1\GINC-SE247\SP\RHF\Aug-CC-pVDZ\C7H13F1S1\OHZDE\09-Apr-2025\0\\#t hf
  aug-cc-pvdz iop(5/13=1,5/36=2,99/5=2) pseudo=read geom=check guess=(r
 ead,tcheck) scf=(maxcycle=1)\\title\\0,1\C,0,-0.431483,0.989759,0.1639
 95\C,0,-1.794677,1.487843,-0.335823\C,0,-2.943174,0.602054,0.16474\C,0
 ,-2.710392,-0.86981,-0.201834\C,0,-1.345823,-1.367749,0.296353\C,0,1.1
 48686,-1.017268,0.319583\C,0,-0.188363,-0.483392,-0.209309\S,0,2.65779
 5,-0.313763,-0.380014\F,0,2.690128,1.160165,0.427451\H,0,-0.385219,1.0
 89176,1.257168\H,0,0.371837,1.613428,-0.234044\H,0,-1.795608,1.495144,

 Normal termination of Gaussian 16 at Wed Apr  9 00:26:14 2025.
