 Gaussian 16, Revision C.01,

 ----------------------------------------------------------------------
 #t hf aug-cc-pvdz symm=none int=(grid=ultrafine) guess=(read,tcheck) s
 table=(opt,rrhf)
 ----------------------------------------------------------------------
 -----
 title
 -----
 Symbolic Z-matrix:
 Charge =  0 Multiplicity = 1

 SCF Done:  E(RHF) =  -1092.53877686     A.U. after   16 cycles
 Normal termination of Gaussian 16 at Tue Apr  8 23:46:44 2025.
 Gaussian 16:  ES64L-G16RevC.01  3-Jul-2019

 ----------------------------------------------------------------------
 #t hf aug-cc-pvdz iop(5/13=1,5/36=2,99/5=2) pseudo=read geom=check gue
 ss=(read,tcheck) scf=(maxcycle=1)
 ----------------------------------------------------------------------
 -----
 title
 -----
 Structure from the checkpoint file:  "BDE49_nonexpt_1747_mol1.chk"
 Charge =  0 Multiplicity = 1

                         Standard orientation:
 ---------------------------------------------------------------------
 Center     Atomic      Atomic             Coordinates (Angstroms)
 Number     Number       Type             X           Y           Z
 ---------------------------------------------------------------------
      1          6           0        3.301726   -1.022059    0.000000
      2          6           0        2.092525   -1.713350    0.000001
      3          6           0        0.890016   -1.011756    0.000000
      4          6           0        3.314128    0.375671   -0.000002
      5          6           0        2.118989    1.078299   -0.000003
      6          6           0        0.895528    0.388548   -0.000002
      7          1           0        4.237293   -1.570142    0.000001
      8          1           0        2.085400   -2.796998    0.000003
      9          1           0       -0.048339   -1.551203    0.000001
     10          1           0        4.257649    0.909246   -0.000003
     11          1           0        2.101278    2.161369   -0.000005
     12          6           0       -0.360273    1.173835   -0.000003
     13         14           0       -2.213299    0.648992    0.000000
     14         17           0       -2.743338   -1.382667    0.000004
     15          8           0       -0.367744    2.398124   -0.000002
     16          1           0       -2.792118    1.233525   -1.220252
     17          1           0       -2.792115    1.233529    1.220253
 ---------------------------------------------------------------------

 SCF Done:  E(RHF) =  -1092.99350155     A.U. after    2 cycles

 The electronic state is 1-A.
 Alpha  occ. eigenvalues -- -105.56656 -69.59330 -20.56031 -11.34920 -11.27007
 Alpha  occ. eigenvalues --  -11.26992 -11.26516 -11.26392 -11.26025 -11.25972
 Alpha  occ. eigenvalues --  -10.61632  -7.78513  -7.78233  -7.78206  -6.25930
 Alpha  occ. eigenvalues --   -4.01372  -4.01193  -4.01177  -1.48674  -1.17756
 Alpha  occ. eigenvalues --   -1.06264  -1.05287  -1.03842  -0.90163  -0.85871
 Alpha  occ. eigenvalues --   -0.81379  -0.76315  -0.71426  -0.67042  -0.66514
 Alpha  occ. eigenvalues --   -0.63695  -0.62179  -0.59405  -0.58224  -0.54524
 Alpha  occ. eigenvalues --   -0.53821  -0.53732  -0.52518  -0.51098  -0.48568
 Alpha  occ. eigenvalues --   -0.46058  -0.40376  -0.36730  -0.36383
 Alpha virt. eigenvalues --    0.02894   0.03555   0.03937   0.03983   0.04859
 Alpha virt. eigenvalues --    0.05341   0.05421   0.06272   0.07693   0.08571
 Alpha virt. eigenvalues --    0.09053   0.09266   0.10986   0.11520   0.12692

 Mulliken charges:
               1
     1  C    0.043435
     2  C   -0.097967
     3  C    0.787107
     4  C    0.257843
     5  C   -0.042743
     6  C    1.708437
     7  H   -0.207619
     8  H   -0.259484
     9  H   -0.158535
    10  H   -0.218160
    11  H   -0.317957
    12  C   -0.396707
    13  Si   0.943886
    14  Cl  -0.595877
    15  O   -1.240954
    16  H   -0.102352
    17  H   -0.102353
 Sum of Mulliken charges =  -0.00000

 Dipole moment (field-independent basis, Debye):
    X=              2.1062    Y=             -1.3598    Z=             -0.0000  Tot=              2.5070

 Test job not archived.
 1\1\GINC-SE043\SP\RHF\Aug-CC-pVDZ\C7H7Cl1O1Si1\OHZDE\08-Apr-2025\0\\#t
  hf aug-cc-pvdz iop(5/13=1,5/36=2,99/5=2) pseudo=read geom=check guess
 =(read,tcheck) scf=(maxcycle=1)\\title\\0,1\C,0,3.301726,-1.022059,0.\
 C,0,2.092525,-1.71335,0.000001\C,0,0.890016,-1.011756,0.\C,0,3.314128,
 0.375671,-0.000002\C,0,2.118989,1.078299,-0.000003\C,0,0.895528,0.3885
 48,-0.000002\H,0,4.237293,-1.570142,0.000001\H,0,2.0854,-2.796998,0.00
 0003\H,0,-0.048339,-1.551203,0.000001\H,0,4.257649,0.909246,-0.000003\
 H,0,2.101278,2.161369,-0.000005\C,0,-0.360273,1.173835,-0.000003\Si,0,

 Normal termination of Gaussian 16 at Tue Apr  8 23:46:55 2025.
