 Gaussian 16, Revision C.01,

 ----------------------------------------------------------------------
 #t hf aug-cc-pvdz symm=none int=(grid=ultrafine) guess=(read,tcheck) s
 table=(opt,rrhf)
 ----------------------------------------------------------------------
 -----
 title
 -----
 Symbolic Z-matrix:
 Charge =  0 Multiplicity = 1

 SCF Done:  E(RHF) =  -1255.31526504     A.U. after   17 cycles
 Normal termination of Gaussian 16 at Tue Apr  8 23:26:59 2025.
 Gaussian 16:  ES64L-G16RevC.01  3-Jul-2019

 ----------------------------------------------------------------------
 #t hf aug-cc-pvdz iop(5/13=1,5/36=2,99/5=2) pseudo=read geom=check gue
 ss=(read,tcheck) scf=(maxcycle=1)
 ----------------------------------------------------------------------
 -----
 title
 -----
 Structure from the checkpoint file:  "BDE49_nonexpt_1258_mol1.chk"
 Charge =  0 Multiplicity = 1

                         Standard orientation:
 ---------------------------------------------------------------------
 Center     Atomic      Atomic             Coordinates (Angstroms)
 Number     Number       Type             X           Y           Z
 ---------------------------------------------------------------------
      1         17           0       -3.034100   -0.000015   -0.681626
      2          8           0       -0.638099    2.488701    0.023197
      3          8           0       -0.638169   -2.488658    0.023152
      4         15           0       -1.599008    0.000029    0.833284
      5          6           0       -0.380049    1.328342    0.209565
      6          6           0        0.964185    0.700636    0.071076
      7          6           0        2.154844    1.411944   -0.082732
      8          6           0        3.340441    0.701323   -0.230636
      9          6           0        3.340434   -0.701365   -0.230622
     10          6           0        2.154830   -1.411970   -0.082697
     11          6           0        0.964180   -0.700647    0.071103
     12          6           0       -0.380053   -1.328338    0.209673
     13          1           0        2.134952    2.495012   -0.091370
     14          1           0        4.276115    1.234472   -0.354070
     15          1           0        4.276103   -1.234525   -0.354040
     16          1           0        2.134930   -2.495039   -0.091295
 ---------------------------------------------------------------------

 SCF Done:  E(RHF) =  -1255.87884118     A.U. after    2 cycles

 The electronic state is 1-A.
 Alpha  occ. eigenvalues -- -105.58240 -84.35463 -20.57657 -20.57655 -11.37931
 Alpha  occ. eigenvalues --  -11.37917 -11.29467 -11.29390 -11.29078 -11.29004
 Alpha  occ. eigenvalues --  -11.28868 -11.28823 -10.63070  -7.79991  -7.79596
 Alpha  occ. eigenvalues --   -7.79583  -6.82240  -4.34481  -4.34460  -4.33750
 Alpha  occ. eigenvalues --   -1.50863  -1.50827  -1.21254  -1.11315  -1.07833
 Alpha  occ. eigenvalues --   -1.07050  -0.95667  -0.92980  -0.85831  -0.80239
 Alpha  occ. eigenvalues --   -0.79782  -0.72095  -0.69810  -0.69024  -0.66005
 Alpha  occ. eigenvalues --   -0.65718  -0.64007  -0.61618  -0.59152  -0.57876
 Alpha  occ. eigenvalues --   -0.56687  -0.55193  -0.53523  -0.49923  -0.49234
 Alpha  occ. eigenvalues --   -0.47812  -0.39287  -0.39095  -0.38786  -0.36630
 Alpha virt. eigenvalues --    0.02162   0.02301   0.02345   0.03230   0.04324
 Alpha virt. eigenvalues --    0.06047   0.06477   0.07280   0.08317   0.08945
 Alpha virt. eigenvalues --    0.09823   0.10579   0.10790   0.12154   0.12444

 Mulliken charges:
               1
     1  Cl  -0.460734
     2  O   -1.432841
     3  O   -1.432740
     4  P    1.235528
     5  C    0.238367
     6  C    1.124537
     7  C    0.126633
     8  C    0.019675
     9  C    0.019662
    10  C    0.126620
    11  C    1.124750
    12  C    0.238270
    13  H   -0.247533
    14  H   -0.216333
    15  H   -0.216334
    16  H   -0.247526
 Sum of Mulliken charges =  -0.00000

 Dipole moment (field-independent basis, Debye):
    X=              5.0057    Y=             -0.0001    Z=              0.9900  Tot=              5.1026

 Test job not archived.
 1\1\GINC-SE184\SP\RHF\Aug-CC-pVDZ\C8H4Cl1O2P1\OHZDE\08-Apr-2025\0\\#t
 hf aug-cc-pvdz iop(5/13=1,5/36=2,99/5=2) pseudo=read geom=check guess=
 (read,tcheck) scf=(maxcycle=1)\\title\\0,1\Cl,0,-3.0341,-0.000015,-0.6
 81626\O,0,-0.638099,2.488701,0.023197\O,0,-0.638169,-2.488658,0.023152
 \P,0,-1.599008,0.000029,0.833284\C,0,-0.380049,1.328342,0.209565\C,0,0
 .964185,0.700636,0.071076\C,0,2.154844,1.411944,-0.082732\C,0,3.340441
 ,0.701323,-0.230636\C,0,3.340434,-0.701365,-0.230622\C,0,2.15483,-1.41
 197,-0.082697\C,0,0.96418,-0.700647,0.071103\C,0,-0.380053,-1.328338,0

 Normal termination of Gaussian 16 at Tue Apr  8 23:27:10 2025.
