 Gaussian 16, Revision C.01,

 ----------------------------------------------------------------------
 #t hf aug-cc-pvdz symm=none int=(grid=ultrafine) guess=(read,tcheck) s
 table=(opt,rrhf)
 ----------------------------------------------------------------------
 -----
 title
 -----
 Symbolic Z-matrix:
 Charge =  0 Multiplicity = 1

 SCF Done:  E(RHF) =  -452.514429345     A.U. after   12 cycles
 Normal termination of Gaussian 16 at Tue Apr  8 23:37:05 2025.
 Gaussian 16:  ES64L-G16RevC.01  3-Jul-2019

 ----------------------------------------------------------------------
 #t hf aug-cc-pvdz iop(5/13=1,5/36=2,99/5=2) pseudo=read geom=check gue
 ss=(read,tcheck) scf=(maxcycle=1)
 ----------------------------------------------------------------------
 -----
 title
 -----
 Structure from the checkpoint file:  "BDE49_nonexpt_1546_mol1.chk"
 Charge =  0 Multiplicity = 1

                         Standard orientation:
 ---------------------------------------------------------------------
 Center     Atomic      Atomic             Coordinates (Angstroms)
 Number     Number       Type             X           Y           Z
 ---------------------------------------------------------------------
      1         15           0       -1.131539   -0.011572    0.005086
      2          7           0        0.480393    0.553709   -0.064780
      3          7           0        1.558990   -0.373942   -0.040090
      4          1           0       -1.066928   -1.059828    0.976477
      5          1           0       -1.081067   -0.917096   -1.082795
      6          1           0        1.901349   -0.511311    0.909063
      7          1           0        2.316214   -0.005182   -0.606805
      8          1           0        0.627837    1.408619    0.461848
 ---------------------------------------------------------------------

 SCF Done:  E(RHF) =  -452.679101381     A.U. after    2 cycles

 The electronic state is 1-A.
 Alpha  occ. eigenvalues --  -84.28682 -15.52742 -15.52038  -6.75455  -4.28317
 Alpha  occ. eigenvalues --   -4.27512  -4.27133  -1.26695  -1.05429  -0.83894
 Alpha  occ. eigenvalues --   -0.73352  -0.71451  -0.60860  -0.52536  -0.46864
 Alpha  occ. eigenvalues --   -0.42737  -0.34819
 Alpha virt. eigenvalues --    0.03128   0.05630   0.05822   0.06105   0.07799
 Alpha virt. eigenvalues --    0.08725   0.10503   0.10842   0.15358   0.16505
 Alpha virt. eigenvalues --    0.17537   0.18933   0.19622   0.20241   0.21485

 Mulliken charges:
               1
     1  P   -0.235604
     2  N   -0.402175
     3  N   -0.237838
     4  H    0.255425
     5  H    0.278144
     6  H    0.133141
     7  H    0.124014
     8  H    0.084894
 Sum of Mulliken charges =  -0.00000

 Dipole moment (field-independent basis, Debye):
    X=              1.4941    Y=              0.6652    Z=              1.2438  Tot=              2.0547

 Test job not archived.
 1\1\GINC-SE343\SP\RHF\Aug-CC-pVDZ\H5N2P1\OHZDE\08-Apr-2025\0\\#t hf au
 g-cc-pvdz iop(5/13=1,5/36=2,99/5=2) pseudo=read geom=check guess=(read
 ,tcheck) scf=(maxcycle=1)\\title\\0,1\P,0,-1.131539,-0.011572,0.005086
 \N,0,0.480393,0.553709,-0.06478\N,0,1.55899,-0.373942,-0.04009\H,0,-1.
 066928,-1.059828,0.976477\H,0,-1.081067,-0.917096,-1.082795\H,0,1.9013
 49,-0.511311,0.909063\H,0,2.316214,-0.005182,-0.606805\H,0,0.627837,1.
 408619,0.461848\\Version=ES64L-G16RevC.01\State=1-A\HF=-452.6791014\RM
 SD=2.470e-02\Dipole=0.5878211,0.2617253,0.4893506\Quadrupole=1.5136303

 Normal termination of Gaussian 16 at Tue Apr  8 23:37:07 2025.
