 Gaussian 16, Revision C.01,

 ----------------------------------------------------------------------
 #t hf aug-cc-pvdz symm=none int=(grid=ultrafine) guess=(read,tcheck) s
 table=opt
 ----------------------------------------------------------------------
 -----
 title
 -----
 Symbolic Z-matrix:
 Charge =  0 Multiplicity = 2

 SCF Done:  E(UHF) =  -1026.99680838     A.U. after   19 cycles
 Normal termination of Gaussian 16 at Tue Apr  8 23:30:12 2025.
 Gaussian 16:  ES64L-G16RevC.01  3-Jul-2019

 ----------------------------------------------------------------------
 #t hf aug-cc-pvdz iop(5/13=1,5/36=2,99/5=2) pseudo=read geom=check gue
 ss=(read,tcheck) scf=(maxcycle=1)
 ----------------------------------------------------------------------
 -----
 title
 -----
 Structure from the checkpoint file:  "BDE49_nonexpt_1371_mol2.chk"
 Charge =  0 Multiplicity = 2

                         Standard orientation:
 ---------------------------------------------------------------------
 Center     Atomic      Atomic             Coordinates (Angstroms)
 Number     Number       Type             X           Y           Z
 ---------------------------------------------------------------------
      1          9           0       -2.093839    0.723983    0.208293
      2         16           0        0.721916   -0.113604    0.121849
      3          8           0        1.446558   -1.231233   -0.465090
      4         15           0       -1.393406   -0.662675   -0.267420
      5          6           0        1.029819    1.365004   -0.857086
      6          1           0        2.048429    1.677727   -0.619946
      7          1           0        0.934780    1.116474   -1.912962
      8          8           0        0.893088    0.247183    1.517125
      9          1           0        0.315690    2.130101   -0.553784
 ---------------------------------------------------------------------

 SCF Done:  E(UHF) =  -1027.37715123     A.U. after    2 cycles

 The electronic state is 2-A.
 Alpha  occ. eigenvalues --  -94.19899 -84.40870 -26.51321 -20.55149 -20.55075
 Alpha  occ. eigenvalues --  -11.30316  -8.45409  -6.87280  -6.43485  -6.43236
 Alpha  occ. eigenvalues --   -6.43171  -4.39389  -4.39313  -4.38363  -1.62570
 Alpha  occ. eigenvalues --   -1.56349  -1.44778  -1.07827  -0.94864  -0.83276
 Alpha  occ. eigenvalues --   -0.72847  -0.70864  -0.69213  -0.68045  -0.66719
 Alpha  occ. eigenvalues --   -0.62903  -0.61970  -0.57342  -0.50825  -0.49269
 Alpha  occ. eigenvalues --   -0.47688  -0.39752  -0.38137
 Alpha virt. eigenvalues --    0.03065   0.04872   0.05129   0.05505   0.07113
 Alpha virt. eigenvalues --    0.09005   0.09570   0.11502   0.12420   0.12588
 Alpha virt. eigenvalues --    0.14092   0.14999   0.15759   0.16327   0.18235

  Beta  occ. eigenvalues --  -94.19931 -84.40163 -26.50894 -20.55176 -20.55037
  Beta  occ. eigenvalues --  -11.30315  -8.45449  -6.86384  -6.43504  -6.43307
  Beta  occ. eigenvalues --   -6.43236  -4.38893  -4.37950  -4.35822  -1.61456
  Beta  occ. eigenvalues --   -1.56332  -1.44752  -1.07648  -0.91929  -0.81328
  Beta  occ. eigenvalues --   -0.72506  -0.69041  -0.67864  -0.66757  -0.66593
  Beta  occ. eigenvalues --   -0.62322  -0.61837  -0.54143  -0.50759  -0.48995
  Beta  occ. eigenvalues --   -0.47443  -0.39116
  Beta virt. eigenvalues --    0.00554   0.03330   0.05121   0.05278   0.05723
  Beta virt. eigenvalues --    0.07709   0.09374   0.11276   0.11774   0.12550
  Beta virt. eigenvalues --    0.13168   0.15093   0.15265   0.15844   0.16384

 Mulliken charges and spin densities:
               1          2
     1  F   -0.726913   0.016043
     2  S    2.743284  -0.048085
     3  O   -1.482384   0.000600
     4  P    1.211722   1.046730
     5  C   -0.910174  -0.006583
     6  H    0.238467   0.001949
     7  H    0.198289  -0.003362
     8  O   -1.485327  -0.004513
     9  H    0.213035  -0.002780
 Sum of Mulliken charges =  -0.00000   1.00000

 Dipole moment (field-independent basis, Debye):
    X=             -2.2826    Y=              1.8654    Z=             -3.0563  Tot=              4.2463
                          Isotropic Fermi Contact Couplings
        Atom                 a.u.       MegaHertz       Gauss      10(-4) cm-1
     1  F(19)              0.04811     202.40115      72.22176      67.51376
     2  S(33)             -0.02941     -10.10214      -3.60469      -3.36971
     3  O(17)             -0.00175       1.06334       0.37943       0.35469
     4  P(31)              0.21520     389.74888     139.07209     130.00623
     5  C(13)              0.00196       2.20580       0.78708       0.73577
     6  H(1)               0.00133       5.94476       2.12124       1.98296
     7  H(1)               0.00036       1.60912       0.57417       0.53674
     8  O(17)              0.00499      -3.02687      -1.08006      -1.00965

 Normal termination of Gaussian 16 at Tue Apr  8 23:30:16 2025.
