 Gaussian 16, Revision C.01,

 ----------------------------------------------------------------------
 #t hf aug-cc-pvdz symm=none int=(grid=ultrafine) guess=(read,tcheck) s
 table=(opt,rrhf)
 ----------------------------------------------------------------------
 -----
 title
 -----
 Symbolic Z-matrix:
 Charge =  0 Multiplicity = 1

 SCF Done:  E(RHF) =  -191.978498641     A.U. after   12 cycles
 Normal termination of Gaussian 16 at Tue Apr  8 22:34:22 2025.
 Gaussian 16:  ES64L-G16RevC.01  3-Jul-2019

 ----------------------------------------------------------------------
 #t hf aug-cc-pvdz iop(5/13=1,5/36=2,99/5=2) pseudo=read geom=check gue
 ss=(read,tcheck) scf=(maxcycle=1)
 ----------------------------------------------------------------------
 -----
 title
 -----
 Structure from the checkpoint file:  "BDE49_expt_1081_mol1.chk"
 Charge =  0 Multiplicity = 1

                         Standard orientation:
 ---------------------------------------------------------------------
 Center     Atomic      Atomic             Coordinates (Angstroms)
 Number     Number       Type             X           Y           Z
 ---------------------------------------------------------------------
      1          6           0       -0.544919    0.730276    0.000013
      2          6           0        0.933197    0.420242    0.000016
      3          8           0        1.404146   -0.688511   -0.000027
      4          1           0        1.595308    1.315925   -0.000016
      5          6           0       -1.445147   -0.500933    0.000003
      6          1           0       -0.736476    1.374437   -0.869700
      7          1           0       -0.736479    1.374424    0.869735
      8          1           0       -1.257898   -1.120993   -0.878930
      9          1           0       -2.498510   -0.212213    0.000003
     10          1           0       -1.257902   -1.121006    0.878927
 ---------------------------------------------------------------------

 SCF Done:  E(RHF) =  -192.179648310     A.U. after    2 cycles

 The electronic state is 1-A.
 Alpha  occ. eigenvalues --  -20.54697 -11.34257 -11.25495 -11.23359  -1.47819
 Alpha  occ. eigenvalues --   -1.06515  -0.91528  -0.77930  -0.68860  -0.63959
 Alpha  occ. eigenvalues --   -0.63394  -0.54955  -0.53332  -0.52810  -0.49448
 Alpha  occ. eigenvalues --   -0.41665
 Alpha virt. eigenvalues --    0.03254   0.03956   0.04397   0.05159   0.06833
 Alpha virt. eigenvalues --    0.07735   0.10515   0.10800   0.12263   0.14187
 Alpha virt. eigenvalues --    0.14343   0.15489   0.15745   0.16464   0.17209

 Mulliken charges:
               1
     1  C   -0.580577
     2  C    0.949070
     3  O   -1.101888
     4  H    0.120082
     5  C   -0.272552
     6  H    0.214581
     7  H    0.214589
     8  H    0.160509
     9  H    0.135682
    10  H    0.160504
 Sum of Mulliken charges =   0.00000

 Dipole moment (field-independent basis, Debye):
    X=             -1.6502    Y=              2.4308    Z=              0.0001  Tot=              2.9380

 Test job not archived.
 1\1\GINC-SE460\SP\RHF\Aug-CC-pVDZ\C3H6O1\OHZDE\08-Apr-2025\0\\#t hf au
 g-cc-pvdz iop(5/13=1,5/36=2,99/5=2) pseudo=read geom=check guess=(read
 ,tcheck) scf=(maxcycle=1)\\title\\0,1\C,0,-0.544919,0.730276,0.000013\
 C,0,0.933197,0.420242,0.000016\O,0,1.404146,-0.68851,-0.000027\H,0,1.5
 95308,1.315926,-0.000016\C,0,-1.445147,-0.500933,0.000003\H,0,-0.73647
 6,1.374437,-0.8697\H,0,-0.736479,1.374424,0.869735\H,0,-1.257898,-1.12
 0993,-0.87893\H,0,-2.49851,-0.212214,0.000003\H,0,-1.257902,-1.121006,
 0.878927\\Version=ES64L-G16RevC.01\State=1-A\HF=-192.1796483\RMSD=9.39

 Normal termination of Gaussian 16 at Tue Apr  8 22:34:26 2025.
