 Gaussian 16, Revision C.01,

 ----------------------------------------------------------------------
 #t hf aug-cc-pvdz symm=none int=(grid=ultrafine) guess=(read,tcheck) s
 table=(opt,rrhf)
 ----------------------------------------------------------------------
 -----
 title
 -----
 Symbolic Z-matrix:
 Charge =  0 Multiplicity = 1

 SCF Done:  E(RHF) =  -696.853768348     A.U. after   12 cycles
 Normal termination of Gaussian 16 at Tue Apr  8 22:36:21 2025.
 Gaussian 16:  ES64L-G16RevC.01  3-Jul-2019

 ----------------------------------------------------------------------
 #t hf aug-cc-pvdz iop(5/13=1,5/36=2,99/5=2) pseudo=read geom=check gue
 ss=(read,tcheck) scf=(maxcycle=1)
 ----------------------------------------------------------------------
 -----
 title
 -----
 Structure from the checkpoint file:  "BDE49_expt_114_mol1.chk"
 Charge =  0 Multiplicity = 1

                         Standard orientation:
 ---------------------------------------------------------------------
 Center     Atomic      Atomic             Coordinates (Angstroms)
 Number     Number       Type             X           Y           Z
 ---------------------------------------------------------------------
      1          6           0        0.451484   -0.000005    0.366463
      2         17           0       -1.289692   -0.000024   -0.050501
      3          1           0        0.549921   -0.000001    1.449927
      4          9           0        1.036947    1.089774   -0.155023
      5          9           0        1.037047   -1.089724   -0.154998
 ---------------------------------------------------------------------

 SCF Done:  E(RHF) =  -697.148155824     A.U. after    2 cycles

 The electronic state is 1-A.
 Alpha  occ. eigenvalues -- -105.59505 -26.51555 -26.51554 -11.50290 -10.64412
 Alpha  occ. eigenvalues --   -7.81347  -7.80932  -7.80929  -1.69124  -1.61900
 Alpha  occ. eigenvalues --   -1.12288  -0.94328  -0.81530  -0.78765  -0.75817
 Alpha  occ. eigenvalues --   -0.67567  -0.63956  -0.63906  -0.55056  -0.49595
 Alpha  occ. eigenvalues --   -0.49330
 Alpha virt. eigenvalues --    0.03590   0.07561   0.09456   0.09460   0.11985
 Alpha virt. eigenvalues --    0.14896   0.15354   0.15832   0.20987   0.23774
 Alpha virt. eigenvalues --    0.24770   0.27295   0.27977   0.30942   0.31768

 Mulliken charges:
               1
     1  C    1.128114
     2  Cl  -0.119516
     3  H    0.158893
     4  F   -0.583748
     5  F   -0.583744
 Sum of Mulliken charges =   0.00000

 Dipole moment (field-independent basis, Debye):
    X=              0.2025    Y=             -0.0001    Z=              1.5634  Tot=              1.5765

 Test job not archived.
 1\1\GINC-SE455\SP\RHF\Aug-CC-pVDZ\C1H1Cl1F2\OHZDE\08-Apr-2025\0\\#t hf
  aug-cc-pvdz iop(5/13=1,5/36=2,99/5=2) pseudo=read geom=check guess=(r
 ead,tcheck) scf=(maxcycle=1)\\title\\0,1\C,0,-0.451484,0.000005,0.3664
 63\Cl,0,1.289692,0.000024,-0.050501\H,0,-0.549921,0.000001,1.449927\F,
 0,-1.036947,-1.089774,-0.155023\F,0,-1.037047,1.089724,-0.154998\\Vers
 ion=ES64L-G16RevC.01\State=1-A\HF=-697.1481558\RMSD=3.819e-03\Dipole=-
 0.0796664,0.0000309,0.6150895\Quadrupole=-0.3030371,-1.2976319,1.60066
 9,-0.0000533,-1.1223971,-0.0000197\PG=C01 [X(C1H1Cl1F2)]\\@

 Normal termination of Gaussian 16 at Tue Apr  8 22:36:22 2025.
