 Gaussian 16, Revision C.01,

 ----------------------------------------------------------------------
 #t hf aug-cc-pvdz symm=none int=(grid=ultrafine) guess=(read,tcheck) s
 table=(opt,rrhf)
 ----------------------------------------------------------------------
 -----
 title
 -----
 Symbolic Z-matrix:
 Charge =  0 Multiplicity = 1

 SCF Done:  E(RHF) =  -797.069266564     A.U. after   17 cycles
 Normal termination of Gaussian 16 at Wed Apr  9 00:45:28 2025.
 Gaussian 16:  ES64L-G16RevC.01  3-Jul-2019

 ----------------------------------------------------------------------
 #t hf aug-cc-pvdz iop(5/13=1,5/36=2,99/5=2) pseudo=read geom=check gue
 ss=(read,tcheck) scf=(maxcycle=1)
 ----------------------------------------------------------------------
 -----
 title
 -----
 Structure from the checkpoint file:  "BDE49_nonexpt_661_mol1.chk"
 Charge =  0 Multiplicity = 1

                         Standard orientation:
 ---------------------------------------------------------------------
 Center     Atomic      Atomic             Coordinates (Angstroms)
 Number     Number       Type             X           Y           Z
 ---------------------------------------------------------------------
      1          6           0       -2.510519   -0.063398   -0.000348
      2          6           0       -1.663860   -1.165406   -0.000333
      3          6           0       -0.291405   -0.949806   -0.000242
      4          6           0       -2.035664    1.243832   -0.000258
      5          6           0       -0.663477    1.448735   -0.000167
      6          6           0        0.211015    0.356044   -0.000158
      7          1           0       -2.084842   -2.160750   -0.000399
      8          1           0        0.394350   -1.785737   -0.000233
      9          1           0       -2.737001    2.066023   -0.000268
     10          1           0       -0.251641    2.449488   -0.000101
     11          6           0        1.676467    0.630070   -0.000057
     12          8           0        2.420695   -0.489074   -0.000055
     13          5           0        3.839850   -0.493916    0.000035
     14          8           0        4.374424   -1.738177    0.000017
     15          8           0        2.138714    1.753403    0.000018
     16          7           0       -3.978186   -0.290107   -0.000457
     17          8           0       -4.700045    0.696259    0.000801
     18          8           0       -4.369353   -1.448060    0.000737
     19          1           0        5.336139   -1.711096    0.000080
     20          8           0        4.589284    0.628423    0.000131
     21          1           0        4.025944    1.419783    0.000130
 ---------------------------------------------------------------------

 SCF Done:  E(RHF) =  -797.845186089     A.U. after    2 cycles

 The electronic state is 1-A.
 Alpha  occ. eigenvalues --  -20.61139 -20.60374 -20.60367 -20.57545 -20.57413
 Alpha  occ. eigenvalues --  -20.56942 -15.80622 -11.43754 -11.33831 -11.30100
 Alpha  occ. eigenvalues --  -11.29552 -11.29504 -11.29394 -11.29245  -7.70166
 Alpha  occ. eigenvalues --   -1.68376  -1.58065  -1.52103  -1.50350  -1.47985
 Alpha  occ. eigenvalues --   -1.46214  -1.22381  -1.13395  -1.07264  -1.02459
 Alpha  occ. eigenvalues --   -0.92406  -0.89591  -0.85645  -0.81675  -0.79738
 Alpha  occ. eigenvalues --   -0.76855  -0.76352  -0.75884  -0.73504  -0.71966
 Alpha  occ. eigenvalues --   -0.68826  -0.67884  -0.67791  -0.65807  -0.65223
 Alpha  occ. eigenvalues --   -0.61132  -0.58925  -0.58226  -0.55861  -0.55700
 Alpha  occ. eigenvalues --   -0.54644  -0.51392  -0.51103  -0.50467  -0.50103
 Alpha  occ. eigenvalues --   -0.48496  -0.46303  -0.40601  -0.39218
 Alpha virt. eigenvalues --   -0.00331   0.02969   0.03526   0.03806   0.04655
 Alpha virt. eigenvalues --    0.04889   0.05948   0.06477   0.07106   0.07521
 Alpha virt. eigenvalues --    0.08002   0.08772   0.09322   0.09522   0.10563

 Mulliken charges:
               1
     1  C   -0.465402
     2  C    0.048864
     3  C    0.411772
     4  C    0.095483
     5  C    0.300181
     6  C    1.211475
     7  H   -0.220542
     8  H   -0.305069
     9  H   -0.216052
    10  H   -0.344612
    11  C    2.403214
    12  O   -2.509497
    13  B    2.072587
    14  O   -0.951149
    15  O   -1.431469
    16  N    2.999783
    17  O   -1.472998
    18  O   -1.477867
    19  H    0.492747
    20  O   -1.545842
    21  H    0.904393
 Sum of Mulliken charges =   0.00000

 Dipole moment (field-independent basis, Debye):
    X=              3.0720    Y=              0.0599    Z=             -0.0020  Tot=              3.0725

 Test job not archived.
 1\1\GINC-SE120\SP\RHF\Aug-CC-pVDZ\C7H6B1N1O6\OHZDE\09-Apr-2025\0\\#t h
 f aug-cc-pvdz iop(5/13=1,5/36=2,99/5=2) pseudo=read geom=check guess=(
 read,tcheck) scf=(maxcycle=1)\\title\\0,1\C,0,-2.510519,-0.063398,-0.0
 00348\C,0,-1.66386,-1.165406,-0.000333\C,0,-0.291405,-0.949806,-0.0002
 42\C,0,-2.035664,1.243832,-0.000258\C,0,-0.663477,1.448735,-0.000167\C
 ,0,0.211015,0.356044,-0.000158\H,0,-2.084842,-2.16075,-0.000399\H,0,0.
 39435,-1.785737,-0.000233\H,0,-2.737001,2.066023,-0.000268\H,0,-0.2516
 41,2.449488,-0.000101\C,0,1.676467,0.63007,-0.000057\O,0,2.420695,-0.4

 Normal termination of Gaussian 16 at Wed Apr  9 00:45:47 2025.
