 Gaussian 16, Revision C.01,

 ----------------------------------------------------------------------
 #t hf aug-cc-pvdz symm=none int=(grid=ultrafine) guess=(read,tcheck) s
 table=(opt,rrhf)
 ----------------------------------------------------------------------
 -----
 title
 -----
 Symbolic Z-matrix:
 Charge =  0 Multiplicity = 1

 SCF Done:  E(RHF) =  -659.438019601     A.U. after   10 cycles
 Normal termination of Gaussian 16 at Wed Apr  9 00:08:37 2025.
 Gaussian 16:  ES64L-G16RevC.01  3-Jul-2019

 ----------------------------------------------------------------------
 #t hf aug-cc-pvdz iop(5/13=1,5/36=2,99/5=2) pseudo=read geom=check gue
 ss=(read,tcheck) scf=(maxcycle=1)
 ----------------------------------------------------------------------
 -----
 title
 -----
 Structure from the checkpoint file:  "BDE49_nonexpt_2300_mol1.chk"
 Charge =  0 Multiplicity = 1

                         Standard orientation:
 ---------------------------------------------------------------------
 Center     Atomic      Atomic             Coordinates (Angstroms)
 Number     Number       Type             X           Y           Z
 ---------------------------------------------------------------------
      1         14           0        0.996361    0.633765    0.000000
      2         14           0       -0.996361   -0.633765    0.000001
      3          6           0        2.542990   -0.449589   -0.000001
      4          1           0        1.007873    1.520397    1.194699
      5          1           0        1.007870    1.520397   -1.194700
      6          1           0        2.570686   -1.091814    0.884190
      7          1           0        3.447334    0.164787   -0.000003
      8          1           0        2.570684   -1.091816   -0.884190
      9          6           0       -2.542990    0.449589   -0.000001
     10          1           0       -1.007872   -1.520396    1.194700
     11          1           0       -1.007871   -1.520397   -1.194698
     12          1           0       -2.570686    1.091815    0.884189
     13          1           0       -3.447334   -0.164787    0.000000
     14          1           0       -2.570685    1.091814   -0.884191
 ---------------------------------------------------------------------

 SCF Done:  E(RHF) =  -659.600737824     A.U. after    2 cycles

 The electronic state is 1-A.
 Alpha  occ. eigenvalues --  -69.51679 -69.51678 -11.22093 -11.22092  -6.18843
 Alpha  occ. eigenvalues --   -6.18831  -3.94203  -3.94185  -3.94176  -3.94175
 Alpha  occ. eigenvalues --   -3.94165  -3.94118  -0.95576  -0.95095  -0.74101
 Alpha  occ. eigenvalues --   -0.66703  -0.57261  -0.56763  -0.56655  -0.56214
 Alpha  occ. eigenvalues --   -0.48153  -0.47260  -0.45958  -0.45324  -0.39131
 Alpha virt. eigenvalues --    0.03581   0.03981   0.03988   0.04983   0.05948
 Alpha virt. eigenvalues --    0.06482   0.06883   0.07320   0.08166   0.08251
 Alpha virt. eigenvalues --    0.09112   0.10397   0.11050   0.11076   0.12498

 Mulliken charges:
               1
     1  Si   0.846051
     2  Si   0.846051
     3  C   -0.667170
     4  H   -0.171581
     5  H   -0.171581
     6  H    0.093841
     7  H   -0.023399
     8  H    0.093839
     9  C   -0.667169
    10  H   -0.171580
    11  H   -0.171580
    12  H    0.093840
    13  H   -0.023399
    14  H    0.093839
 Sum of Mulliken charges =  -0.00000

 Dipole moment (field-independent basis, Debye):
    X=             -0.0000    Y=             -0.0000    Z=              0.0000  Tot=              0.0000

 Test job not archived.
 1\1\GINC-SE365\SP\RHF\Aug-CC-pVDZ\C2H10Si2\OHZDE\09-Apr-2025\0\\#t hf
 aug-cc-pvdz iop(5/13=1,5/36=2,99/5=2) pseudo=read geom=check guess=(re
 ad,tcheck) scf=(maxcycle=1)\\title\\0,1\Si,0,0.996361,0.633765,0.\Si,0
 ,-0.996361,-0.633765,0.000001\C,0,2.54299,-0.449589,-0.000001\H,0,1.00
 7873,1.520397,1.194699\H,0,1.00787,1.520397,-1.1947\H,0,2.570686,-1.09
 1814,0.88419\H,0,3.447334,0.164787,-0.000003\H,0,2.570684,-1.091816,-0
 .88419\C,0,-2.54299,0.449589,-0.000001\H,0,-1.007872,-1.520396,1.1947\
 H,0,-1.007871,-1.520397,-1.194698\H,0,-2.570686,1.091815,0.884189\H,0,

 Normal termination of Gaussian 16 at Wed Apr  9 00:08:40 2025.
