 Gaussian 16, Revision C.01,

 ----------------------------------------------------------------------
 #t hf aug-cc-pvdz symm=none int=(grid=ultrafine) guess=(read,tcheck) s
 table=(opt,rrhf)
 ----------------------------------------------------------------------
 -----
 title
 -----
 Symbolic Z-matrix:
 Charge =  0 Multiplicity = 1

 SCF Done:  E(RHF) =  -879.308283447     A.U. after   15 cycles
 Normal termination of Gaussian 16 at Wed Apr  9 00:15:00 2025.
 Gaussian 16:  ES64L-G16RevC.01  3-Jul-2019

 ----------------------------------------------------------------------
 #t hf aug-cc-pvdz iop(5/13=1,5/36=2,99/5=2) pseudo=read geom=check gue
 ss=(read,tcheck) scf=(maxcycle=1)
 ----------------------------------------------------------------------
 -----
 title
 -----
 Structure from the checkpoint file:  "BDE49_nonexpt_2478_mol1.chk"
 Charge =  0 Multiplicity = 1

                         Standard orientation:
 ---------------------------------------------------------------------
 Center     Atomic      Atomic             Coordinates (Angstroms)
 Number     Number       Type             X           Y           Z
 ---------------------------------------------------------------------
      1          6           0       -2.518235    0.009565   -0.000000
      2          6           0       -1.877113   -1.235344   -0.000000
      3          6           0       -0.495851   -1.454264   -0.000000
      4          6           0       -1.864454    1.246725   -0.000000
      5          6           0       -0.480059    1.451437   -0.000000
      6         14           0        0.510839   -0.007238   -0.000000
      7          1           0       -3.602208    0.015352   -0.000000
      8          1           0       -2.520365   -2.113206   -0.000000
      9          1           0       -0.127196   -2.473174   -0.000000
     10          1           0       -2.497724    2.131864   -0.000000
     11          1           0       -0.101398    2.466841   -0.000000
     12         16           0        2.645844   -0.080843   -0.000000
     13          1           0        2.777927    1.258425    0.000004
 ---------------------------------------------------------------------

 SCF Done:  E(RHF) =  -879.597691368     A.U. after    2 cycles

 The electronic state is 1-A.
 Alpha  occ. eigenvalues --  -93.97430 -69.55398 -11.26264 -11.26204 -11.23108
 Alpha  occ. eigenvalues --  -11.22925 -11.22503  -8.25651  -6.23458  -6.23361
 Alpha  occ. eigenvalues --   -6.23129  -6.22793  -3.98072  -3.98012  -3.97969
 Alpha  occ. eigenvalues --   -1.11438  -1.03284  -1.01672  -0.93507  -0.81145
 Alpha  occ. eigenvalues --   -0.75277  -0.69058  -0.62393  -0.60933  -0.59889
 Alpha  occ. eigenvalues --   -0.56548  -0.53583  -0.48764  -0.47727  -0.45948
 Alpha  occ. eigenvalues --   -0.42415  -0.36161  -0.28733
 Alpha virt. eigenvalues --    0.03148   0.03705   0.03837   0.05234   0.05634
 Alpha virt. eigenvalues --    0.05790   0.07782   0.08102   0.08253   0.08706
 Alpha virt. eigenvalues --    0.09066   0.10241   0.11406   0.12693   0.13560

 Mulliken charges:
               1
     1  C    0.429024
     2  C    0.038525
     3  C   -0.066847
     4  C    0.160121
     5  C   -0.082151
     6  Si   1.351473
     7  H   -0.221702
     8  H   -0.213402
     9  H   -0.293055
    10  H   -0.219353
    11  H   -0.277023
    12  S   -0.851384
    13  H    0.245774
 Sum of Mulliken charges =  -0.00000

 Dipole moment (field-independent basis, Debye):
    X=              0.3402    Y=              0.8523    Z=              0.0000  Tot=              0.9176

 Test job not archived.
 1\1\GINC-SE343\SP\RHF\Aug-CC-pVDZ\C5H6S1Si1\OHZDE\09-Apr-2025\0\\#t hf
  aug-cc-pvdz iop(5/13=1,5/36=2,99/5=2) pseudo=read geom=check guess=(r
 ead,tcheck) scf=(maxcycle=1)\\title\\0,1\C,0,-2.518235,0.009565,0.\C,0
 ,-1.877113,-1.235344,0.\C,0,-0.495851,-1.454264,0.\C,0,-1.864454,1.246
 725,0.\C,0,-0.480059,1.451437,0.\Si,0,0.510839,-0.007238,0.\H,0,-3.602
 208,0.015352,0.\H,0,-2.520365,-2.113206,0.\H,0,-0.127196,-2.473174,0.\
 H,0,-2.497724,2.131864,0.\H,0,-0.101398,2.466841,0.\S,0,2.645844,-0.08
 0843,0.\H,0,2.777927,1.258425,0.000004\\Version=ES64L-G16RevC.01\State

 Normal termination of Gaussian 16 at Wed Apr  9 00:15:05 2025.
