 Gaussian 16, Revision C.01,

 ----------------------------------------------------------------------
 #t hf aug-cc-pvdz symm=none int=(grid=ultrafine) guess=(read,tcheck) s
 table=(opt,rrhf)
 ----------------------------------------------------------------------
 -----
 title
 -----
 Symbolic Z-matrix:
 Charge =  0 Multiplicity = 1

 SCF Done:  E(RHF) =  -867.350813381     A.U. after   12 cycles
 Normal termination of Gaussian 16 at Tue Apr  8 23:44:28 2025.
 Gaussian 16:  ES64L-G16RevC.01  3-Jul-2019

 ----------------------------------------------------------------------
 #t hf aug-cc-pvdz iop(5/13=1,5/36=2,99/5=2) pseudo=read geom=check gue
 ss=(read,tcheck) scf=(maxcycle=1)
 ----------------------------------------------------------------------
 -----
 title
 -----
 Structure from the checkpoint file:  "BDE49_nonexpt_1735_mol1.chk"
 Charge =  0 Multiplicity = 1

                         Standard orientation:
 ---------------------------------------------------------------------
 Center     Atomic      Atomic             Coordinates (Angstroms)
 Number     Number       Type             X           Y           Z
 ---------------------------------------------------------------------
      1         14           0        0.485583   -0.000003    0.963098
      2          6           0       -1.289119   -0.000001    0.333602
      3         17           0        1.839652    0.000002   -0.633848
      4          6           0       -1.635199    1.274809   -0.457844
      5          1           0       -1.441347    2.182830    0.120009
      6          1           0       -2.694310    1.277946   -0.735448
      7          1           0       -1.052559    1.336184   -1.381370
      8          6           0       -1.635200   -1.274806   -0.457850
      9          1           0       -2.694310   -1.277941   -0.735455
     10          1           0       -1.441348   -2.182830    0.119998
     11          1           0       -1.052560   -1.336177   -1.381377
     12          1           0       -1.885366   -0.000003    1.259370
     13          1           0        0.773333   -1.211731    1.759430
     14          1           0        0.773333    1.211720    1.759437
 ---------------------------------------------------------------------

 SCF Done:  E(RHF) =  -867.596443239     A.U. after    2 cycles

 The electronic state is 1-A.
 Alpha  occ. eigenvalues -- -105.55026 -69.56914 -11.24060 -11.23687 -11.23678
 Alpha  occ. eigenvalues --  -10.60009  -7.76896  -7.76604  -7.76596  -6.23651
 Alpha  occ. eigenvalues --   -3.99076  -3.98915  -3.98889  -1.07534  -1.03922
 Alpha  occ. eigenvalues --   -0.94100  -0.82718  -0.71394  -0.63480  -0.60458
 Alpha  occ. eigenvalues --   -0.58209  -0.55309  -0.52895  -0.52206  -0.49831
 Alpha  occ. eigenvalues --   -0.49584  -0.47996  -0.44807  -0.42487
 Alpha virt. eigenvalues --    0.03253   0.04097   0.04181   0.04607   0.06185
 Alpha virt. eigenvalues --    0.06510   0.07025   0.07298   0.07645   0.09952
 Alpha virt. eigenvalues --    0.10053   0.11467   0.13234   0.13866   0.14235

 Mulliken charges:
               1
     1  Si   1.081055
     2  C   -1.011310
     3  Cl  -0.609457
     4  C   -0.201300
     5  H    0.111829
     6  H    0.148060
     7  H    0.193355
     8  C   -0.201298
     9  H    0.148058
    10  H    0.111828
    11  H    0.193356
    12  H    0.229409
    13  H   -0.096792
    14  H   -0.096792
 Sum of Mulliken charges =  -0.00000

 Dipole moment (field-independent basis, Debye):
    X=             -2.0947    Y=             -0.0000    Z=              1.0374  Tot=              2.3375

 Test job not archived.
 1\1\GINC-SE331\SP\RHF\Aug-CC-pVDZ\C3H9Cl1Si1\OHZDE\08-Apr-2025\0\\#t h
 f aug-cc-pvdz iop(5/13=1,5/36=2,99/5=2) pseudo=read geom=check guess=(
 read,tcheck) scf=(maxcycle=1)\\title\\0,1\Si,0,0.485583,-0.000003,0.96
 3098\C,0,-1.289119,-0.000001,0.333602\Cl,0,1.839652,0.000002,-0.633848
 \C,0,-1.635199,1.274809,-0.457844\H,0,-1.441347,2.18283,0.120009\H,0,-
 2.69431,1.277946,-0.735448\H,0,-1.052559,1.336184,-1.38137\C,0,-1.6352
 ,-1.274806,-0.45785\H,0,-2.69431,-1.277941,-0.735455\H,0,-1.441348,-2.
 18283,0.119998\H,0,-1.05256,-1.336177,-1.381377\H,0,-1.885366,-0.00000

 Normal termination of Gaussian 16 at Tue Apr  8 23:44:32 2025.
