 Gaussian 16, Revision C.01,

 ----------------------------------------------------------------------
 #t hf aug-cc-pvdz symm=none int=(grid=ultrafine) guess=(read,tcheck) s
 table=(opt,rrhf)
 ----------------------------------------------------------------------
 -----
 title
 -----
 Symbolic Z-matrix:
 Charge =  0 Multiplicity = 1

 SCF Done:  E(RHF) =  -517.932277125     A.U. after   13 cycles
 Normal termination of Gaussian 16 at Tue Apr  8 23:50:22 2025.
 Gaussian 16:  ES64L-G16RevC.01  3-Jul-2019

 ----------------------------------------------------------------------
 #t hf aug-cc-pvdz iop(5/13=1,5/36=2,99/5=2) pseudo=read geom=check gue
 ss=(read,tcheck) scf=(maxcycle=1)
 ----------------------------------------------------------------------
 -----
 title
 -----
 Structure from the checkpoint file:  "BDE49_nonexpt_1880_mol1.chk"
 Charge =  0 Multiplicity = 1

                         Standard orientation:
 ---------------------------------------------------------------------
 Center     Atomic      Atomic             Coordinates (Angstroms)
 Number     Number       Type             X           Y           Z
 ---------------------------------------------------------------------
      1          6           0       -0.218825   -0.328723    0.821718
      2         14           0       -1.764152    0.024192   -0.229952
      3          6           0        1.082415   -0.125834    0.073776
      4          8           0        1.749507   -1.009963   -0.380042
      5          8           0        1.463728    1.173382   -0.101309
      6          1           0       -2.964606   -0.321199    0.562997
      7          1           0       -1.730131   -0.772634   -1.473282
      8          1           0        0.831985    1.771216    0.314552
      9          1           0       -1.808438    1.466967   -0.568186
     10          1           0       -0.255139   -1.369325    1.147495
     11          1           0       -0.262960    0.306282    1.713604
 ---------------------------------------------------------------------

 SCF Done:  E(RHF) =  -518.194320703     A.U. after    2 cycles

 The electronic state is 1-A.
 Alpha  occ. eigenvalues --  -69.55524 -20.60454 -20.53569 -11.40182 -11.26337
 Alpha  occ. eigenvalues --   -6.22580  -3.97963  -3.97947  -3.97937  -1.54455
 Alpha  occ. eigenvalues --   -1.45714  -1.03412  -0.83826  -0.76611  -0.71684
 Alpha  occ. eigenvalues --   -0.67806  -0.63622  -0.60941  -0.56512  -0.51519
 Alpha  occ. eigenvalues --   -0.50609  -0.50066  -0.46853  -0.44103
 Alpha virt. eigenvalues --    0.02532   0.03499   0.04098   0.05026   0.06492
 Alpha virt. eigenvalues --    0.07315   0.08087   0.08771   0.09430   0.11064
 Alpha virt. eigenvalues --    0.13094   0.13465   0.14102   0.14187   0.15241

 Mulliken charges:
               1
     1  C   -0.733666
     2  Si   1.000551
     3  C    2.084783
     4  O   -1.201536
     5  O   -1.275634
     6  H   -0.166302
     7  H   -0.153678
     8  H    0.440039
     9  H   -0.182461
    10  H    0.086082
    11  H    0.101823
 Sum of Mulliken charges =  -0.00000

 Dipole moment (field-independent basis, Debye):
    X=             -3.5019    Y=              1.8332    Z=              2.2827  Tot=              4.5644

 Test job not archived.
 1\1\GINC-SE458\SP\RHF\Aug-CC-pVDZ\C2H6O2Si1\OHZDE\08-Apr-2025\0\\#t hf
  aug-cc-pvdz iop(5/13=1,5/36=2,99/5=2) pseudo=read geom=check guess=(r
 ead,tcheck) scf=(maxcycle=1)\\title\\0,1\C,0,-0.218825,-0.328723,0.821
 718\Si,0,-1.764152,0.024192,-0.229952\C,0,1.082415,-0.125834,0.073776\
 O,0,1.749507,-1.009963,-0.380042\O,0,1.463728,1.173382,-0.101309\H,0,-
 2.964606,-0.321198,0.562997\H,0,-1.730131,-0.772634,-1.473282\H,0,0.83
 1985,1.771216,0.314552\H,0,-1.808438,1.466967,-0.568186\H,0,-0.255139,
 -1.369325,1.147495\H,0,-0.26296,0.306282,1.713604\\Version=ES64L-G16Re

 Normal termination of Gaussian 16 at Tue Apr  8 23:50:26 2025.
