 Gaussian 16, Revision C.01,

 ----------------------------------------------------------------------
 #t hf aug-cc-pvdz symm=none int=(grid=ultrafine) guess=(read,tcheck) s
 table=(opt,rrhf)
 ----------------------------------------------------------------------
 -----
 title
 -----
 Symbolic Z-matrix:
 Charge =  0 Multiplicity = 1

 SCF Done:  E(RHF) =  -1127.16177221     A.U. after   13 cycles

 1\1\GINC-SE339\Stability\RHF\Aug-CC-pVDZ\F5P1Si1\OHZDE\08-Apr-2025\0\\
 #t hf aug-cc-pvdz symm=none int=(grid=ultrafine) guess=(read,tcheck) s
 table=(opt,rrhf)\\title\\0,1\Si,0,-0.897085,0.,0.000594\P,0,1.337253,0
 .,-0.619763\F,0,-1.605255,-1.282209,-0.608601\F,0,-1.130331,0.,1.56596
 6\F,0,-1.605255,1.282209,-0.608602\F,0,1.753775,1.236469,0.341625\F,0,
 1.753775,-1.236469,0.341625\\Version=ES64L-G16RevC.01\HF=-1127.1617722
 \RMSD=3.877e-09\Dipole=0.1825353,-0.0000002,-0.5340746\Quadrupole=-0.3
 008627,-0.4326712,0.7335339,0.0000008,-1.2530186,0.0000019\PG=Unknown\

 Normal termination of Gaussian 16 at Tue Apr  8 23:41:13 2025.
 Gaussian 16:  ES64L-G16RevC.01  3-Jul-2019

 ----------------------------------------------------------------------
 #t hf aug-cc-pvdz iop(5/13=1,5/36=2,99/5=2) pseudo=read geom=check gue
 ss=(read,tcheck) scf=(maxcycle=1)
 ----------------------------------------------------------------------
 -----
 title
 -----
 Structure from the checkpoint file:  "BDE49_nonexpt_1659_mol1.chk"
 Charge =  0 Multiplicity = 1

                         Standard orientation:
 ---------------------------------------------------------------------
 Center     Atomic      Atomic             Coordinates (Angstroms)
 Number     Number       Type             X           Y           Z
 ---------------------------------------------------------------------
      1         14           0        0.897085    0.000000    0.000594
      2         15           0       -1.337253    0.000000   -0.619763
      3          9           0        1.605255    1.282209   -0.608601
      4          9           0        1.130331    0.000000    1.565966
      5          9           0        1.605255   -1.282209   -0.608602
      6          9           0       -1.753775   -1.236469    0.341625
      7          9           0       -1.753775    1.236469    0.341625
 ---------------------------------------------------------------------

 SCF Done:  E(RHF) =  -1127.68243715     A.U. after    2 cycles

 The electronic state is 1-A.
 Alpha  occ. eigenvalues --  -84.44313 -69.70449 -26.50990 -26.50989 -26.50321
 Alpha  occ. eigenvalues --  -26.50320 -26.50220  -6.89981  -6.36291  -4.42674
 Alpha  occ. eigenvalues --   -4.41880  -4.41008  -4.11566  -4.11564  -4.11310
 Alpha  occ. eigenvalues --   -1.64437  -1.63934  -1.60783  -1.60722  -1.60259
 Alpha  occ. eigenvalues --   -0.91057  -0.83211  -0.75063  -0.74986  -0.74430
 Alpha  occ. eigenvalues --   -0.73323  -0.71591  -0.69880  -0.68884  -0.68801
 Alpha  occ. eigenvalues --   -0.67819  -0.66064  -0.66038  -0.64660  -0.64384
 Alpha  occ. eigenvalues --   -0.56371  -0.39709
 Alpha virt. eigenvalues --    0.04861   0.04938   0.05334   0.05968   0.08068
 Alpha virt. eigenvalues --    0.08450   0.10391   0.12980   0.13704   0.18618
 Alpha virt. eigenvalues --    0.19091   0.19683   0.20827   0.22623   0.24721

 Mulliken charges:
               1
     1  Si   2.752299
     2  P    1.156619
     3  F   -0.801167
     4  F   -0.843494
     5  F   -0.801166
     6  F   -0.731545
     7  F   -0.731545
 Sum of Mulliken charges =  -0.00000

 Dipole moment (field-independent basis, Debye):
    X=             -0.6845    Y=              0.0000    Z=             -1.3059  Tot=              1.4744

 Test job not archived.
 1\1\GINC-SE339\SP\RHF\Aug-CC-pVDZ\F5P1Si1\OHZDE\08-Apr-2025\0\\#t hf a
 ug-cc-pvdz iop(5/13=1,5/36=2,99/5=2) pseudo=read geom=check guess=(rea
 d,tcheck) scf=(maxcycle=1)\\title\\0,1\Si,0,-0.897085,0.,0.000594\P,0,
 1.337253,0.,-0.619763\F,0,-1.605255,-1.282209,-0.608601\F,0,-1.130331,
 0.,1.565966\F,0,-1.605255,1.282209,-0.608602\F,0,1.753775,1.236469,0.3
 41625\F,0,1.753775,-1.236469,0.341625\\Version=ES64L-G16RevC.01\State=
 1-A\HF=-1127.6824372\RMSD=8.308e-03\Dipole=0.2693153,-0.0000003,-0.513
 766\Quadrupole=-0.0500097,-0.4390331,0.4890428,0.0000009,-1.2110688,0.

 Normal termination of Gaussian 16 at Tue Apr  8 23:41:16 2025.
