 Gaussian 16, Revision C.01,

 ----------------------------------------------------------------------
 #t hf aug-cc-pvdz symm=none int=(grid=ultrafine) guess=(read,tcheck) s
 table=opt
 ----------------------------------------------------------------------
 -----
 title
 -----
 Symbolic Z-matrix:
 Charge =  0 Multiplicity = 2

 SCF Done:  E(UHF) =  -305.276769930     a.u. after   13 cycles
 Normal termination of Gaussian 16 at Tue Apr  8 22:59:10 2025.
 Gaussian 16:  ES64L-G16RevC.01  3-Jul-2019

 ----------------------------------------------------------------------
 #t hf aug-cc-pvdz iop(5/13=1,5/36=2,99/5=2) pseudo=read geom=check gue
 ss=(read,tcheck) scf=(maxcycle=1)
 ----------------------------------------------------------------------
 -----
 title
 -----
 Structure from the checkpoint file:  "BDE49_expt_1877_mol2.chk"
 Charge =  0 Multiplicity = 2

                         Standard orientation:
 ---------------------------------------------------------------------
 Center     Atomic      Atomic             Coordinates (Angstroms)
 Number     Number       Type             X           Y           Z
 ---------------------------------------------------------------------
      1          8           0       -2.075090    0.267687    0.625417
      2          6           0       -1.032627    0.019006   -0.036662
      3          8           0       -1.081577   -1.120552   -0.561542
      4          6           0        1.446415    0.313273   -0.529738
      5          6           0        0.104665    0.984165   -0.197940
      6          1           0        0.163975    1.583872    0.715959
      7          1           0       -0.190997    1.670812   -1.000272
      8          6           0        2.027218   -0.496574    0.632867
      9          1           0        2.150587    1.096676   -0.824883
     10          1           0        1.316434   -0.331255   -1.403786
     11          1           0        2.188953    0.133719    1.512686
     12          1           0        2.989016   -0.935992    0.357969
     13          1           0        1.361343   -1.314132    0.920161
 ---------------------------------------------------------------------

 SCF Done:  E(UHF) =  -305.584630768     A.U. after    2 cycles

 The electronic state is 2-A.
 Alpha  occ. eigenvalues --  -20.68422 -20.53485 -11.40293 -11.28021 -11.25340
 Alpha  occ. eigenvalues --  -11.23440  -1.62637  -1.43228  -1.10310  -0.99180
 Alpha  occ. eigenvalues --   -0.86525  -0.81001  -0.75384  -0.70799  -0.69909
 Alpha  occ. eigenvalues --   -0.63221  -0.62181  -0.58929  -0.56820  -0.51846
 Alpha  occ. eigenvalues --   -0.51191  -0.50274  -0.46692  -0.45528
 Alpha virt. eigenvalues --    0.03002   0.03820   0.03961   0.05167   0.06611
 Alpha virt. eigenvalues --    0.07084   0.07662   0.09224   0.11203   0.12914
 Alpha virt. eigenvalues --    0.13945   0.14128   0.14677   0.14926   0.15286

  Beta  occ. eigenvalues --  -20.64327 -20.52986 -11.40587 -11.27942 -11.25325
  Beta  occ. eigenvalues --  -11.23441  -1.52716  -1.38187  -1.09908  -0.98600
  Beta  occ. eigenvalues --   -0.85555  -0.77321  -0.70610  -0.68266  -0.63606
  Beta  occ. eigenvalues --   -0.61552  -0.60821  -0.57512  -0.51585  -0.51415
  Beta  occ. eigenvalues --   -0.50287  -0.45222  -0.43425
  Beta virt. eigenvalues --    0.02837   0.03461   0.03819   0.05045   0.05188
  Beta virt. eigenvalues --    0.06640   0.07370   0.07794   0.09305   0.11456
  Beta virt. eigenvalues --    0.13284   0.13990   0.14411   0.14678   0.15084

 Mulliken charges and spin densities:
               1          2
     1  O   -0.894960   1.073910
     2  C    2.000567  -0.227512
     3  O   -1.228013   0.074487
     4  C   -0.238659   0.005439
     5  C   -0.530869   0.063269
     6  H    0.194229   0.011814
     7  H    0.270232  -0.001656
     8  C   -0.317881  -0.001708
     9  H    0.137727   0.001667
    10  H    0.157612  -0.000737
    11  H    0.158316   0.000360
    12  H    0.123627  -0.000317
    13  H    0.168072   0.000984
 Sum of Mulliken charges =   0.00000   1.00000

 Dipole moment (field-independent basis, Debye):
    X=              2.0270    Y=              3.1449    Z=              0.5598  Tot=              3.7831
                          Isotropic Fermi Contact Couplings
        Atom                 a.u.       MegaHertz       Gauss      10(-4) cm-1
     1  O(17)              0.26054    -157.93748     -56.35602     -52.68227
     2  C(13)             -0.05243     -58.94519     -21.03311     -19.66200
     3  O(17)              0.03829     -23.21331      -8.28309      -7.74313
     4  C(13)              0.00284       3.19820       1.14120       1.06681
     5  C(13)              0.01054      11.85414       4.22985       3.95412
     6  H(1)              -0.00029      -1.27546      -0.45511      -0.42545
     7  H(1)              -0.00088      -3.92458      -1.40039      -1.30910
     8  C(13)             -0.00014      -0.15762      -0.05624      -0.05258

 Normal termination of Gaussian 16 at Tue Apr  8 22:59:16 2025.
