 Gaussian 16, Revision C.01,

 ----------------------------------------------------------------------
 #t hf aug-cc-pvdz symm=none int=(grid=ultrafine) guess=(read,tcheck) s
 table=(opt,rrhf)
 ----------------------------------------------------------------------
 -----
 title
 -----
 Symbolic Z-matrix:
 Charge =  0 Multiplicity = 1

 SCF Done:  E(RHF) =  -1067.95672052     A.U. after   15 cycles
 Normal termination of Gaussian 16 at Tue Apr  8 23:42:14 2025.
 Gaussian 16:  ES64L-G16RevC.01  3-Jul-2019

 ----------------------------------------------------------------------
 #t hf aug-cc-pvdz iop(5/13=1,5/36=2,99/5=2) pseudo=read geom=check gue
 ss=(read,tcheck) scf=(maxcycle=1)
 ----------------------------------------------------------------------
 -----
 title
 -----
 Structure from the checkpoint file:  "BDE49_nonexpt_1669_mol1.chk"
 Charge =  0 Multiplicity = 1

                         Standard orientation:
 ---------------------------------------------------------------------
 Center     Atomic      Atomic             Coordinates (Angstroms)
 Number     Number       Type             X           Y           Z
 ---------------------------------------------------------------------
      1         14           0       -1.704626   -0.785274    0.068763
      2         15           0       -0.549416    1.157758   -0.243846
      3          6           0        1.113798    0.707315    0.308703
      4         16           0        1.918074   -0.655033   -0.080433
      5          1           0        1.626135    1.494883    0.867591
      6          1           0       -0.971824    1.872295    0.904903
      7          1           0       -1.547146   -1.632392   -1.128305
      8          1           0       -3.121386   -0.373378    0.203633
      9          1           0       -1.251732   -1.497307    1.281901
 ---------------------------------------------------------------------

 SCF Done:  E(RHF) =  -1068.13255807     A.U. after    2 cycles

 The electronic state is 1-A.
 Alpha  occ. eigenvalues --  -93.94446 -84.28929 -69.55448 -11.33889  -8.22635
 Alpha  occ. eigenvalues --   -6.76330  -6.22469  -6.20444  -6.20268  -6.20026
 Alpha  occ. eigenvalues --   -4.28816  -4.28594  -4.27940  -3.97853  -3.97792
 Alpha  occ. eigenvalues --   -3.97773  -1.09726  -0.91413  -0.79126  -0.71672
 Alpha  occ. eigenvalues --   -0.60815  -0.53293  -0.51827  -0.50028  -0.45425
 Alpha  occ. eigenvalues --   -0.44709  -0.35505  -0.33235
 Alpha virt. eigenvalues --    0.02545   0.03432   0.03984   0.05222   0.05730
 Alpha virt. eigenvalues --    0.06823   0.07743   0.08591   0.08985   0.09801
 Alpha virt. eigenvalues --    0.10507   0.10989   0.12906   0.14480   0.14871

 Mulliken charges:
               1
     1  Si   1.100850
     2  P   -0.358003
     3  C   -0.737504
     4  S    0.109359
     5  H   -0.004477
     6  H    0.380868
     7  H   -0.158895
     8  H   -0.187868
     9  H   -0.144331
 Sum of Mulliken charges =  -0.00000

 Dipole moment (field-independent basis, Debye):
    X=             -1.8746    Y=              1.6583    Z=              0.8497  Tot=              2.6431

 Test job not archived.
 1\1\GINC-SE105\SP\RHF\Aug-CC-pVDZ\C1H5P1S1Si1\OHZDE\08-Apr-2025\0\\#t
 hf aug-cc-pvdz iop(5/13=1,5/36=2,99/5=2) pseudo=read geom=check guess=
 (read,tcheck) scf=(maxcycle=1)\\title\\0,1\Si,0,-1.704626,-0.785275,0.
 068763\P,0,-0.549417,1.157758,-0.243846\C,0,1.113798,0.707315,0.308703
 \S,0,1.918074,-0.655032,-0.080433\H,0,1.626134,1.494884,0.867591\H,0,-
 0.971825,1.872295,0.904903\H,0,-1.547145,-1.632393,-1.128305\H,0,-3.12
 1386,-0.373379,0.203633\H,0,-1.251731,-1.497308,1.281901\\Version=ES64
 L-G16RevC.01\State=1-A\HF=-1068.1325581\RMSD=2.454e-02\Dipole=-0.73751

 Normal termination of Gaussian 16 at Tue Apr  8 23:42:17 2025.
