 Gaussian 16, Revision C.01,

 ----------------------------------------------------------------------
 #t hf aug-cc-pvdz symm=none int=(grid=ultrafine) guess=(read,tcheck) s
 table=(opt,rrhf)
 ----------------------------------------------------------------------
 -----
 title
 -----
 Symbolic Z-matrix:
 Charge =  0 Multiplicity = 1

 SCF Done:  E(RHF) =  -841.437818285     A.U. after   17 cycles
 Normal termination of Gaussian 16 at Tue Apr  8 22:50:56 2025.
 Gaussian 16:  ES64L-G16RevC.01  3-Jul-2019

 ----------------------------------------------------------------------
 #t hf aug-cc-pvdz iop(5/13=1,5/36=2,99/5=2) pseudo=read geom=check gue
 ss=(read,tcheck) scf=(maxcycle=1)
 ----------------------------------------------------------------------
 -----
 title
 -----
 Structure from the checkpoint file:  "BDE49_expt_1714_mol1.chk"
 Charge =  0 Multiplicity = 1

                         Standard orientation:
 ---------------------------------------------------------------------
 Center     Atomic      Atomic             Coordinates (Angstroms)
 Number     Number       Type             X           Y           Z
 ---------------------------------------------------------------------
      1          6           0       -3.049814   -0.723317   -0.104235
      2          6           0       -1.995453   -1.525882    0.325899
      3          6           0       -0.716445   -0.991037    0.447162
      4          6           0       -2.825186    0.618962   -0.414043
      5          6           0       -1.550961    1.154927   -0.291169
      6          6           0       -0.482636    0.356057    0.141269
      7          1           0       -4.045059   -1.142786   -0.199725
      8          1           0       -2.167805   -2.569248    0.563025
      9          1           0        0.094506   -1.633043    0.766787
     10          1           0       -3.644945    1.243418   -0.750051
     11          1           0       -1.353781    2.194281   -0.522190
     12          6           0        0.856364    1.002180    0.277401
     13          6           0        2.059242    0.172342    0.734318
     14         17           0        2.614579   -0.963728   -0.567111
     15          1           0        1.842088   -0.433798    1.612561
     16          1           0        2.881736    0.853130    0.931404
     17          8           0        1.021844    2.185753    0.067432
 ---------------------------------------------------------------------

 SCF Done:  E(RHF) =  -841.900228996     A.U. after    2 cycles

 The electronic state is 1-A.
 Alpha  occ. eigenvalues -- -105.57353 -20.55286 -11.36236 -11.32316 -11.26933
 Alpha  occ. eigenvalues --  -11.26670 -11.26396 -11.26170 -11.25878 -11.25707
 Alpha  occ. eigenvalues --  -10.62105  -7.79050  -7.78666  -7.78660  -1.48732
 Alpha  occ. eigenvalues --   -1.17702  -1.12169  -1.05122  -1.03627  -0.95836
 Alpha  occ. eigenvalues --   -0.88137  -0.85228  -0.78591  -0.73463  -0.68423
 Alpha  occ. eigenvalues --   -0.67852  -0.65315  -0.63262  -0.62200  -0.61000
 Alpha  occ. eigenvalues --   -0.59455  -0.54654  -0.54016  -0.52161  -0.50777
 Alpha  occ. eigenvalues --   -0.47992  -0.46007  -0.42507  -0.36487  -0.36157
 Alpha virt. eigenvalues --    0.02927   0.03286   0.03772   0.04782   0.04908
 Alpha virt. eigenvalues --    0.05653   0.06426   0.07391   0.09173   0.09383
 Alpha virt. eigenvalues --    0.10095   0.10922   0.11750   0.12562   0.12921

 Mulliken charges:
               1
     1  C   -0.078265
     2  C    0.126420
     3  C    0.188161
     4  C    0.382410
     5  C   -0.547931
     6  C    2.200755
     7  H   -0.214942
     8  H   -0.227689
     9  H   -0.307113
    10  H   -0.216492
    11  H   -0.322588
    12  C    0.682243
    13  C   -0.512728
    14  Cl  -0.047226
    15  H    0.262080
    16  H    0.094008
    17  O   -1.461102
 Sum of Mulliken charges =  -0.00000

 Dipole moment (field-independent basis, Debye):
    X=             -2.0860    Y=             -1.7670    Z=              1.6369  Tot=              3.1864

 Test job not archived.
 1\1\GINC-SE252\SP\RHF\Aug-CC-pVDZ\C8H7Cl1O1\OHZDE\08-Apr-2025\0\\#t hf
  aug-cc-pvdz iop(5/13=1,5/36=2,99/5=2) pseudo=read geom=check guess=(r
 ead,tcheck) scf=(maxcycle=1)\\title\\0,1\C,0,-3.049814,-0.723317,-0.10
 4235\C,0,-1.995453,-1.525882,0.325899\C,0,-0.716445,-0.991037,0.447162
 \C,0,-2.825186,0.618962,-0.414043\C,0,-1.550961,1.154927,-0.291169\C,0
 ,-0.482636,0.356057,0.141269\H,0,-4.045059,-1.142786,-0.199725\H,0,-2.
 167805,-2.569248,0.563025\H,0,0.094506,-1.633043,0.766787\H,0,-3.64494
 5,1.243418,-0.750051\H,0,-1.353781,2.194281,-0.52219\C,0,0.856364,1.00

 Normal termination of Gaussian 16 at Tue Apr  8 22:51:05 2025.
