 Gaussian 16, Revision C.01,

 ----------------------------------------------------------------------
 #t hf aug-cc-pvdz symm=none int=(grid=ultrafine) guess=(read,tcheck) s
 table=(opt,rrhf)
 ----------------------------------------------------------------------
 -----
 title
 -----
 Symbolic Z-matrix:
 Charge =  0 Multiplicity = 1

 SCF Done:  E(RHF) =  -1181.13228019     A.U. after   12 cycles
 Normal termination of Gaussian 16 at Tue Apr  8 23:45:15 2025.
 Gaussian 16:  ES64L-G16RevC.01  3-Jul-2019

 ----------------------------------------------------------------------
 #t hf aug-cc-pvdz iop(5/13=1,5/36=2,99/5=2) pseudo=read geom=check gue
 ss=(read,tcheck) scf=(maxcycle=1)
 ----------------------------------------------------------------------
 -----
 title
 -----
 Structure from the checkpoint file:  "BDE49_nonexpt_175_mol1.chk"
 Charge =  0 Multiplicity = 1

                         Standard orientation:
 ---------------------------------------------------------------------
 Center     Atomic      Atomic             Coordinates (Angstroms)
 Number     Number       Type             X           Y           Z
 ---------------------------------------------------------------------
      1         17           0        0.481204    1.734421    0.195419
      2         17           0        1.749364   -1.006843   -0.149509
      3          5           0        0.336585    0.024129   -0.089742
      4          6           0       -1.103705   -0.651526   -0.262257
      5          9           0       -2.020878    0.225235   -0.773354
      6          9           0       -1.518757   -1.005837    1.008895
      7          1           0       -1.123627   -1.554889   -0.878102
 ---------------------------------------------------------------------

 SCF Done:  E(RHF) =  -1181.52578956     A.U. after    2 cycles

 The electronic state is 1-A.
 Alpha  occ. eigenvalues -- -105.60186-105.59768 -26.49042 -26.48913 -11.42234
 Alpha  occ. eigenvalues --  -10.65212 -10.64802  -7.82104  -7.81814  -7.81766
 Alpha  occ. eigenvalues --   -7.81698  -7.81402  -7.81348  -7.74240  -1.64830
 Alpha  occ. eigenvalues --   -1.58415  -1.13631  -1.08433  -0.97129  -0.79160
 Alpha  occ. eigenvalues --   -0.76906  -0.74642  -0.68467  -0.65339  -0.62160
 Alpha  occ. eigenvalues --   -0.61532  -0.59804  -0.55358  -0.54720  -0.49873
 Alpha  occ. eigenvalues --   -0.48834  -0.48449
 Alpha virt. eigenvalues --    0.03601   0.04402   0.05026   0.05551   0.05840
 Alpha virt. eigenvalues --    0.07991   0.11673   0.12192   0.12594   0.14343
 Alpha virt. eigenvalues --    0.15117   0.15459   0.17845   0.18340   0.18737

 Mulliken charges:
               1
     1  Cl  -0.244886
     2  Cl  -0.259930
     3  B    0.704452
     4  C    1.177864
     5  F   -0.715073
     6  F   -0.692449
     7  H    0.030022
 Sum of Mulliken charges =  -0.00000

 Dipole moment (field-independent basis, Debye):
    X=              0.9748    Y=             -0.7829    Z=             -0.9927  Tot=              1.5964

 Test job not archived.
 1\1\GINC-SE080\SP\RHF\Aug-CC-pVDZ\C1H1B1Cl2F2\OHZDE\08-Apr-2025\0\\#t
 hf aug-cc-pvdz iop(5/13=1,5/36=2,99/5=2) pseudo=read geom=check guess=
 (read,tcheck) scf=(maxcycle=1)\\title\\0,1\Cl,0,0.481204,1.734421,0.19
 5419\Cl,0,1.749364,-1.006843,-0.149509\B,0,0.336585,0.024129,-0.089742
 \C,0,-1.103705,-0.651526,-0.262257\F,0,-2.020878,0.225235,-0.773354\F,
 0,-1.518757,-1.005837,1.008895\H,0,-1.123627,-1.554889,-0.878102\\Vers
 ion=ES64L-G16RevC.01\State=1-A\HF=-1181.5257896\RMSD=3.736e-03\Dipole=
 0.3835157,-0.3080088,-0.3905634\Quadrupole=-2.37572,1.4566132,0.919106

 Normal termination of Gaussian 16 at Tue Apr  8 23:45:18 2025.
