 Gaussian 16, Revision C.01,

 ----------------------------------------------------------------------
 #t hf aug-cc-pvdz symm=none int=(grid=ultrafine) guess=(read,tcheck) s
 table=(opt,rrhf)
 ----------------------------------------------------------------------
 -----
 title
 -----
 Symbolic Z-matrix:
 Charge =  0 Multiplicity = 1

 SCF Done:  E(RHF) =  -937.861895775     A.U. after   13 cycles
 Normal termination of Gaussian 16 at Tue Apr  8 23:44:14 2025.
 Gaussian 16:  ES64L-G16RevC.01  3-Jul-2019

 ----------------------------------------------------------------------
 #t hf aug-cc-pvdz iop(5/13=1,5/36=2,99/5=2) pseudo=read geom=check gue
 ss=(read,tcheck) scf=(maxcycle=1)
 ----------------------------------------------------------------------
 -----
 title
 -----
 Structure from the checkpoint file:  "BDE49_nonexpt_1738_mol1.chk"
 Charge =  0 Multiplicity = 1

                         Standard orientation:
 ---------------------------------------------------------------------
 Center     Atomic      Atomic             Coordinates (Angstroms)
 Number     Number       Type             X           Y           Z
 ---------------------------------------------------------------------
      1          6           0       -1.325056    0.110198   -0.000119
      2          8           0       -2.356316   -0.508406    0.000076
      3         14           0        0.289521   -0.919450   -0.000013
      4          8           0       -1.310225    1.460846    0.000030
      5         17           0        1.938787    0.369769   -0.000001
      6          1           0       -0.395096    1.776138    0.000048
      7          1           0        0.332584   -1.735344   -1.222507
      8          1           0        0.332503   -1.735280    1.222528
 ---------------------------------------------------------------------

 SCF Done:  E(RHF) =  -938.153858045     A.U. after    2 cycles

 The electronic state is 1-A.
 Alpha  occ. eigenvalues -- -105.58965 -69.61579 -20.61812 -20.56086 -11.40094
 Alpha  occ. eigenvalues --  -10.63952  -7.80830  -7.80539  -7.80516  -6.28263
 Alpha  occ. eigenvalues --   -4.03705  -4.03547  -4.03507  -1.55846  -1.47402
 Alpha  occ. eigenvalues --   -1.08432  -0.87408  -0.81694  -0.70071  -0.67853
 Alpha  occ. eigenvalues --   -0.64193  -0.58509  -0.56449  -0.55815  -0.51414
 Alpha  occ. eigenvalues --   -0.49690  -0.47918  -0.43225
 Alpha virt. eigenvalues --    0.03332   0.04330   0.04868   0.05173   0.06550
 Alpha virt. eigenvalues --    0.07586   0.10465   0.10877   0.11136   0.12793
 Alpha virt. eigenvalues --    0.12906   0.13817   0.14814   0.16012   0.17352

 Mulliken charges:
               1
     1  C    1.296115
     2  O   -1.043581
     3  Si   1.181416
     4  O   -1.069439
     5  Cl  -0.541635
     6  H    0.440471
     7  H   -0.131665
     8  H   -0.131682
 Sum of Mulliken charges =  -0.00000

 Dipole moment (field-independent basis, Debye):
    X=              2.8155    Y=             -0.3295    Z=             -0.0002  Tot=              2.8347

 Test job not archived.
 1\1\GINC-SE361\SP\RHF\Aug-CC-pVDZ\C1H3Cl1O2Si1\OHZDE\08-Apr-2025\0\\#t
  hf aug-cc-pvdz iop(5/13=1,5/36=2,99/5=2) pseudo=read geom=check guess
 =(read,tcheck) scf=(maxcycle=1)\\title\\0,1\C,0,-1.325056,0.110198,-0.
 000119\O,0,-2.356316,-0.508406,0.000076\Si,0,0.289521,-0.91945,-0.0000
 13\O,0,-1.310225,1.460846,0.00003\Cl,0,1.938787,0.369769,-0.000001\H,0
 ,-0.395096,1.776138,0.000048\H,0,0.332584,-1.735344,-1.222507\H,0,0.33
 2503,-1.73528,1.222528\\Version=ES64L-G16RevC.01\State=1-A\HF=-938.153
 858\RMSD=6.521e-03\Dipole=1.1077094,-0.1296457,-0.0000865\Quadrupole=-

 Normal termination of Gaussian 16 at Tue Apr  8 23:44:17 2025.
