 Gaussian 16, Revision C.01,

 ----------------------------------------------------------------------
 #t hf aug-cc-pvdz symm=none int=(grid=ultrafine) guess=(read,tcheck) s
 table=(opt,rrhf)
 ----------------------------------------------------------------------
 -----
 title
 -----
 Symbolic Z-matrix:
 Charge =  0 Multiplicity = 1

 SCF Done:  E(RHF) =  -750.991433942     A.U. after   15 cycles
 Normal termination of Gaussian 16 at Wed Apr  9 00:49:07 2025.
 Gaussian 16:  ES64L-G16RevC.01  3-Jul-2019

 ----------------------------------------------------------------------
 #t hf aug-cc-pvdz iop(5/13=1,5/36=2,99/5=2) pseudo=read geom=check gue
 ss=(read,tcheck) scf=(maxcycle=1)
 ----------------------------------------------------------------------
 -----
 title
 -----
 Structure from the checkpoint file:  "BDE49_nonexpt_830_mol1.chk"
 Charge =  0 Multiplicity = 1

                         Standard orientation:
 ---------------------------------------------------------------------
 Center     Atomic      Atomic             Coordinates (Angstroms)
 Number     Number       Type             X           Y           Z
 ---------------------------------------------------------------------
      1          6           0       -1.925309    1.216375    0.204469
      2          6           0       -0.605930    0.823251    0.386056
      3          6           0       -2.910066    0.278767   -0.143761
      4          6           0       -2.522901   -1.059595   -0.308814
      5          6           0       -1.199691   -1.439405   -0.122410
      6          6           0       -0.203884   -0.515033    0.233289
      7          1           0       -0.939013   -2.484286   -0.260608
      8          1           0       -2.201234    2.259843    0.325284
      9          1           0        0.129645    1.577896    0.644553
     10          5           0        2.912130    0.325665   -0.150027
     11          8           0        2.726756    1.627002    0.239777
     12          8           0        3.944998   -0.083975   -0.945164
     13          7           0       -4.223382    0.678085   -0.383897
     14          1           0       -4.504663    1.535741    0.067644
     15          1           0       -4.919912   -0.046723   -0.293921
     16          1           0       -3.265703   -1.800361   -0.589607
     17          1           0        3.374382    2.260217   -0.093617
     18          1           0        4.556940    0.609172   -1.222370
     19         14           0        1.572203   -1.057433    0.514648
     20          1           0        1.822602   -1.287990    1.966415
     21          1           0        1.771794   -2.364734   -0.161304
 ---------------------------------------------------------------------

 SCF Done:  E(RHF) =  -751.491028797     A.U. after    2 cycles

 The electronic state is 1-A.
 Alpha  occ. eigenvalues --  -69.49991 -20.56879 -20.56749 -15.50942 -11.28367
 Alpha  occ. eigenvalues --  -11.24110 -11.23928 -11.22659 -11.22653 -11.20991
 Alpha  occ. eigenvalues --   -7.64284  -6.17196  -3.92565  -3.92540  -3.92519
 Alpha  occ. eigenvalues --   -1.48841  -1.44656  -1.22409  -1.12314  -1.00936
 Alpha  occ. eigenvalues --   -0.98571  -0.83826  -0.82891  -0.79301  -0.74125
 Alpha  occ. eigenvalues --   -0.72878  -0.71663  -0.70485  -0.64580  -0.62392
 Alpha  occ. eigenvalues --   -0.61257  -0.59545  -0.58809  -0.57395  -0.55275
 Alpha  occ. eigenvalues --   -0.53020  -0.50189  -0.49190  -0.48183  -0.45427
 Alpha  occ. eigenvalues --   -0.45213  -0.41934  -0.34163  -0.30471
 Alpha virt. eigenvalues --    0.02200   0.03083   0.04187   0.04733   0.04970
 Alpha virt. eigenvalues --    0.05277   0.06597   0.06835   0.07173   0.07945
 Alpha virt. eigenvalues --    0.08768   0.09431   0.09658   0.09977   0.10430

 Mulliken charges:
               1
     1  C    0.704140
     2  C    0.763237
     3  C   -1.497381
     4  C    0.803073
     5  C    0.256993
     6  C   -0.661056
     7  H   -0.361930
     8  H   -0.301082
     9  H   -0.326270
    10  B    1.629625
    11  O   -1.314990
    12  O   -1.199575
    13  N    0.810582
    14  H    0.008351
    15  H    0.003660
    16  H   -0.303649
    17  H    0.513516
    18  H    0.518238
    19  Si   0.193880
    20  H   -0.140850
    21  H   -0.098513
 Sum of Mulliken charges =   0.00000

 Dipole moment (field-independent basis, Debye):
    X=              0.2870    Y=              2.5126    Z=             -0.2780  Tot=              2.5441

 Test job not archived.
 1\1\GINC-SE253\SP\RHF\Aug-CC-pVDZ\C6H10B1N1O2Si1\OHZDE\09-Apr-2025\0\\
 #t hf aug-cc-pvdz iop(5/13=1,5/36=2,99/5=2) pseudo=read geom=check gue
 ss=(read,tcheck) scf=(maxcycle=1)\\title\\0,1\C,0,-1.925309,1.216375,0
 .204469\C,0,-0.60593,0.823251,0.386056\C,0,-2.910066,0.278767,-0.14376
 1\C,0,-2.522901,-1.059595,-0.308814\C,0,-1.199691,-1.439405,-0.12241\C
 ,0,-0.203884,-0.515033,0.233289\H,0,-0.939013,-2.484286,-0.260608\H,0,
 -2.201234,2.259843,0.325284\H,0,0.129645,1.577896,0.644553\B,0,2.91213
 ,0.325665,-0.150027\O,0,2.726756,1.627002,0.239777\O,0,3.944998,-0.083

 Normal termination of Gaussian 16 at Wed Apr  9 00:49:21 2025.
