 Gaussian 16, Revision C.01,

 ----------------------------------------------------------------------
 #t hf aug-cc-pvdz symm=none int=(grid=ultrafine) guess=(read,tcheck) s
 table=opt
 ----------------------------------------------------------------------
 -----
 title
 -----
 Symbolic Z-matrix:
 Charge =  0 Multiplicity = 2

 SCF Done:  E(UHF) =  -511.975601195     A.U. after   19 cycles
 Normal termination of Gaussian 16 at Tue Apr  8 22:43:26 2025.
 Gaussian 16:  ES64L-G16RevC.01  3-Jul-2019

 ----------------------------------------------------------------------
 #t hf aug-cc-pvdz iop(5/13=1,5/36=2,99/5=2) pseudo=read geom=check gue
 ss=(read,tcheck) scf=(maxcycle=1)
 ----------------------------------------------------------------------
 -----
 title
 -----
 Structure from the checkpoint file:  "BDE49_expt_1495_mol2.chk"
 Charge =  0 Multiplicity = 2

                         Standard orientation:
 ---------------------------------------------------------------------
 Center     Atomic      Atomic             Coordinates (Angstroms)
 Number     Number       Type             X           Y           Z
 ---------------------------------------------------------------------
      1          6           0        1.407755    0.301949   -0.000000
      2         16           0       -0.227443   -0.503392   -0.000009
      3          1           0        1.505162    0.919839    0.893923
      4          1           0        1.505154    0.919876   -0.893899
      5          1           0        2.165055   -0.485584   -0.000019
      6          8           0       -1.247852    0.611055    0.000018
 ---------------------------------------------------------------------

 SCF Done:  E(UHF) =  -512.148488052     A.U. after    2 cycles

 The electronic state is 2-A.
 Alpha  occ. eigenvalues --  -94.04146 -20.59888 -11.28021  -8.31605  -6.29784
 Alpha  occ. eigenvalues --   -6.29298  -6.28989  -1.50925  -1.05938  -0.87912
 Alpha  occ. eigenvalues --   -0.66634  -0.63830  -0.62828  -0.60145  -0.56666
 Alpha  occ. eigenvalues --   -0.44218  -0.38623
 Alpha virt. eigenvalues --    0.03339   0.05046   0.05402   0.07419   0.10382
 Alpha virt. eigenvalues --    0.11918   0.12770   0.14728   0.14740   0.16246
 Alpha virt. eigenvalues --    0.20854   0.22623   0.24127   0.24492   0.24673

  Beta  occ. eigenvalues --  -94.03754 -20.56807 -11.28137  -8.31157  -6.29205
  Beta  occ. eigenvalues --   -6.28814  -6.27903  -1.43004  -1.03549  -0.84037
  Beta  occ. eigenvalues --   -0.62902  -0.61496  -0.60856  -0.54492  -0.44229
  Beta  occ. eigenvalues --   -0.41858
  Beta virt. eigenvalues --    0.03365   0.05055   0.05266   0.05722   0.07499
  Beta virt. eigenvalues --    0.10581   0.11982   0.13534   0.14871   0.15431
  Beta virt. eigenvalues --    0.16348   0.21122   0.22955   0.24555   0.25871

 Mulliken charges and spin densities:
               1          2
     1  C   -0.781302  -0.084533
     2  S    1.197289   0.411121
     3  H    0.197643   0.009789
     4  H    0.197644   0.009789
     5  H    0.214527  -0.003465
     6  O   -1.025800   0.657299
 Sum of Mulliken charges =  -0.00000   1.00000

 Dipole moment (field-independent basis, Debye):
    X=              2.8498    Y=             -0.4423    Z=             -0.0000  Tot=              2.8839
                          Isotropic Fermi Contact Couplings
        Atom                 a.u.       MegaHertz       Gauss      10(-4) cm-1
     1  C(13)             -0.02028     -22.79607      -8.13421      -7.60395
     2  S(33)              0.11764      40.40476      14.41742      13.47758
     3  H(1)               0.00588      26.28588       9.37946       8.76803
     4  H(1)               0.00588      26.28590       9.37946       8.76803
     5  H(1)              -0.00035      -1.54435      -0.55106      -0.51514
     6  O(17)              0.21409    -129.78239     -46.30959     -43.29075
 --------------------------------------------------------
       Center         ----  Spin Dipole Couplings  ----

 Normal termination of Gaussian 16 at Tue Apr  8 22:43:28 2025.
