 Gaussian 16, Revision C.01,

 ----------------------------------------------------------------------
 #t hf aug-cc-pvdz symm=none int=(grid=ultrafine) guess=(read,tcheck) s
 table=(opt,rrhf)
 ----------------------------------------------------------------------
 -----
 title
 -----
 Symbolic Z-matrix:
 Charge =  0 Multiplicity = 1

 SCF Done:  E(RHF) =  -951.209096015     A.U. after   13 cycles
 Normal termination of Gaussian 16 at Tue Apr  8 23:05:07 2025.
 Gaussian 16:  ES64L-G16RevC.01  3-Jul-2019

 ----------------------------------------------------------------------
 #t hf aug-cc-pvdz iop(5/13=1,5/36=2,99/5=2) pseudo=read geom=check gue
 ss=(read,tcheck) scf=(maxcycle=1)
 ----------------------------------------------------------------------
 -----
 title
 -----
 Structure from the checkpoint file:  "BDE49_expt_380_mol1.chk"
 Charge =  0 Multiplicity = 1

                         Standard orientation:
 ---------------------------------------------------------------------
 Center     Atomic      Atomic             Coordinates (Angstroms)
 Number     Number       Type             X           Y           Z
 ---------------------------------------------------------------------
      1          6           0        0.065303   -1.114982    0.863143
      2         16           0        1.437161   -0.798573   -0.302023
      3          6           0        1.276721    1.007708   -0.155709
      4         16           0       -0.498091    1.448801    0.081712
      5          1           0        1.637388    1.456421   -1.080629
      6          1           0        1.857714    1.381465    0.687000
      7          6           0       -1.137434   -0.252798    0.462856
      8          6           0       -1.951715   -0.827989   -0.695487
      9          1           0       -1.318623   -0.996585   -1.568333
     10          1           0       -2.752792   -0.145263   -0.984433
     11          1           0       -2.407177   -1.780423   -0.401199
     12          1           0        0.391934   -0.884281    1.878936
     13          1           0       -0.172160   -2.179715    0.804874
     14          1           0       -1.778659   -0.126895    1.339943
 ---------------------------------------------------------------------

 SCF Done:  E(RHF) =  -951.499090541     A.U. after    2 cycles

 The electronic state is 1-A.
 Alpha  occ. eigenvalues --  -93.95165 -93.94470 -11.29755 -11.28501 -11.28044
 Alpha  occ. eigenvalues --  -11.23450  -8.23241  -8.22537  -6.21051  -6.20920
 Alpha  occ. eigenvalues --   -6.20680  -6.20348  -6.20206  -6.19985  -1.15355
 Alpha  occ. eigenvalues --   -1.04341  -1.00575  -0.92902  -0.81743  -0.78074
 Alpha  occ. eigenvalues --   -0.66039  -0.64116  -0.61200  -0.59308  -0.54951
 Alpha  occ. eigenvalues --   -0.52793  -0.51440  -0.49454  -0.47132  -0.42486
 Alpha  occ. eigenvalues --   -0.35665  -0.35134
 Alpha virt. eigenvalues --    0.03323   0.04035   0.04283   0.04560   0.06052
 Alpha virt. eigenvalues --    0.06260   0.07258   0.07792   0.08574   0.10238
 Alpha virt. eigenvalues --    0.11732   0.13116   0.13832   0.14595   0.15066

 Mulliken charges:
               1
     1  C   -0.419343
     2  S    0.509746
     3  C   -1.128555
     4  S    0.453695
     5  H    0.252411
     6  H    0.213633
     7  C   -0.477228
     8  C   -0.431116
     9  H    0.247156
    10  H    0.135044
    11  H    0.152679
    12  H    0.147806
    13  H    0.189414
    14  H    0.154660
 Sum of Mulliken charges =  -0.00000

 Dipole moment (field-independent basis, Debye):
    X=             -0.5504    Y=             -0.8760    Z=              0.9808  Tot=              1.4256

 Test job not archived.
 1\1\GINC-SE059\SP\RHF\Aug-CC-pVDZ\C4H8S2\OHZDE\08-Apr-2025\0\\#t hf au
 g-cc-pvdz iop(5/13=1,5/36=2,99/5=2) pseudo=read geom=check guess=(read
 ,tcheck) scf=(maxcycle=1)\\title\\0,1\C,0,0.065303,-1.114982,0.863143\
 S,0,1.437161,-0.798573,-0.302023\C,0,1.276721,1.007708,-0.155709\S,0,-
 0.498091,1.448801,0.081712\H,0,1.637388,1.456421,-1.080629\H,0,1.85771
 4,1.381465,0.687\C,0,-1.137434,-0.252798,0.462856\C,0,-1.951715,-0.827
 989,-0.695487\H,0,-1.318623,-0.996585,-1.568333\H,0,-2.752792,-0.14526
 3,-0.984433\H,0,-2.407177,-1.780423,-0.401199\H,0,0.391934,-0.884281,1

 Normal termination of Gaussian 16 at Tue Apr  8 23:05:12 2025.
