 Gaussian 16, Revision C.01,

 ----------------------------------------------------------------------
 #t hf aug-cc-pvdz symm=none int=(grid=ultrafine) guess=(read,tcheck) s
 table=opt
 ----------------------------------------------------------------------
 -----
 title
 -----
 Symbolic Z-matrix:
 Charge =  0 Multiplicity = 2

 SCF Done:  E(UHF) =  -834.678018752     A.U. after   19 cycles
 Normal termination of Gaussian 16 at Tue Apr  8 22:46:29 2025.
 Gaussian 16:  ES64L-G16RevC.01  3-Jul-2019

 ----------------------------------------------------------------------
 #t hf aug-cc-pvdz iop(5/13=1,5/36=2,99/5=2) pseudo=read geom=check gue
 ss=(read,tcheck) scf=(maxcycle=1)
 ----------------------------------------------------------------------
 -----
 title
 -----
 Structure from the checkpoint file:  "BDE49_expt_1591_mol2.chk"
 Charge =  0 Multiplicity = 2

                         Standard orientation:
 ---------------------------------------------------------------------
 Center     Atomic      Atomic             Coordinates (Angstroms)
 Number     Number       Type             X           Y           Z
 ---------------------------------------------------------------------
      1         16           0        1.053600   -0.910058    0.000000
      2         16           0        0.000000    0.774043    0.000000
      3          6           0       -1.760380    0.269836    0.000000
      4          1           0       -2.352653    1.187333    0.000000
      5          1           0       -1.971333   -0.315051    0.894210
      6          1           0       -1.971333   -0.315051   -0.894210
 ---------------------------------------------------------------------

 SCF Done:  E(UHF) =  -834.839210348     A.U. after    2 cycles

 The electronic state is 2-A".
 Alpha  occ. eigenvalues --  -94.00020 -93.98120 -11.28300  -8.27978  -8.26184
 Alpha  occ. eigenvalues --   -6.25829  -6.25665  -6.25433  -6.25016  -6.23678
 Alpha  occ. eigenvalues --   -6.23263  -1.13601  -0.99327  -0.84358  -0.62128
 Alpha  occ. eigenvalues --   -0.61853  -0.55408  -0.50491  -0.48638  -0.38395
 Alpha  occ. eigenvalues --   -0.36429
 Alpha virt. eigenvalues --    0.03421   0.05108   0.05487   0.07493   0.07689
 Alpha virt. eigenvalues --    0.12441   0.12890   0.13463   0.14004   0.14209
 Alpha virt. eigenvalues --    0.16123   0.16716   0.16948   0.17973   0.23015

  Beta  occ. eigenvalues --  -93.99759 -93.97336 -11.28364  -8.27674  -8.25284
  Beta  occ. eigenvalues --   -6.25561  -6.25317  -6.24641  -6.23246  -6.22778
  Beta  occ. eigenvalues --   -6.21552  -1.11197  -0.96666  -0.79366  -0.61588
  Beta  occ. eigenvalues --   -0.61308  -0.54620  -0.47320  -0.40112  -0.36633
  Beta virt. eigenvalues --    0.00242   0.03433   0.05150   0.05655   0.07680
  Beta virt. eigenvalues --    0.07916   0.12506   0.13562   0.13596   0.14299
  Beta virt. eigenvalues --    0.14881   0.16577   0.16794   0.17551   0.18583

 Mulliken charges and spin densities:
               1          2
     1  S   -0.040525   0.856978
     2  S    0.136800   0.184875
     3  C   -0.716046  -0.050721
     4  H    0.188871  -0.003331
     5  H    0.215449   0.006099
     6  H    0.215449   0.006099
 Sum of Mulliken charges =   0.00000   1.00000

 Dipole moment (field-independent basis, Debye):
    X=             -2.3164    Y=              0.2497    Z=              0.0000  Tot=              2.3298
                          Isotropic Fermi Contact Couplings
        Atom                 a.u.       MegaHertz       Gauss      10(-4) cm-1
     1  S(33)              0.18278      62.77947      22.40128      20.94098
     2  S(33)              0.11038      37.91245      13.52811      12.64623
     3  C(13)             -0.01064     -11.96465      -4.26929      -3.99098
     4  H(1)              -0.00024      -1.07610      -0.38398      -0.35895
     5  H(1)               0.00296      13.23556       4.72278       4.41491
     6  H(1)               0.00296      13.23556       4.72278       4.41491
 --------------------------------------------------------
       Center         ----  Spin Dipole Couplings  ----

 Normal termination of Gaussian 16 at Tue Apr  8 22:46:31 2025.
