 Gaussian 16, Revision C.01,

 ----------------------------------------------------------------------
 #t hf aug-cc-pvdz symm=none int=(grid=ultrafine) guess=(read,tcheck) s
 table=(opt,rrhf)
 ----------------------------------------------------------------------
 -----
 title
 -----
 Symbolic Z-matrix:
 Charge =  0 Multiplicity = 1

 SCF Done:  E(RHF) =  -643.087708369     A.U. after   15 cycles
 Normal termination of Gaussian 16 at Tue Apr  8 23:36:52 2025.
 Gaussian 16:  ES64L-G16RevC.01  3-Jul-2019

 ----------------------------------------------------------------------
 #t hf aug-cc-pvdz iop(5/13=1,5/36=2,99/5=2) pseudo=read geom=check gue
 ss=(read,tcheck) scf=(maxcycle=1)
 ----------------------------------------------------------------------
 -----
 title
 -----
 Structure from the checkpoint file:  "BDE49_nonexpt_1509_mol1.chk"
 Charge =  0 Multiplicity = 1

                         Standard orientation:
 ---------------------------------------------------------------------
 Center     Atomic      Atomic             Coordinates (Angstroms)
 Number     Number       Type             X           Y           Z
 ---------------------------------------------------------------------
      1          6           0       -1.784783    1.330000   -0.058705
      2          6           0       -2.628257    0.228356    0.050024
      3          6           0       -2.052173   -1.040271    0.096772
      4          7           0       -0.736510   -1.253244    0.045659
      5          6           0        0.071029   -0.186437   -0.050644
      6          6           0       -0.409641    1.123853   -0.113899
      7          1           0       -3.704634    0.342942    0.096001
      8          1           0       -2.676087   -1.926433    0.178144
      9          1           0        0.288652    1.947008   -0.199333
     10          1           0       -2.191500    2.334768   -0.100478
     11          7           0        2.622511    0.845741    0.212683
     12         15           0        1.857746   -0.624865   -0.216782
     13          1           0        1.902127   -1.371445    0.990837
     14          1           0        2.626717    1.155128    1.175372
     15          1           0        3.509472    1.010519   -0.238504
 ---------------------------------------------------------------------

 SCF Done:  E(RHF) =  -643.442227688     A.U. after    2 cycles

 The electronic state is 1-A.
 Alpha  occ. eigenvalues --  -84.29232 -15.50395 -15.49941 -11.28155 -11.28030
 Alpha  occ. eigenvalues --  -11.26629 -11.24741 -11.24482  -6.75963  -4.28845
 Alpha  occ. eigenvalues --   -4.28569  -4.27663  -1.25929  -1.16969  -1.09001
 Alpha  occ. eigenvalues --   -1.03955  -0.89585  -0.87186  -0.81463  -0.71792
 Alpha  occ. eigenvalues --   -0.70743  -0.68807  -0.64491  -0.60267  -0.59335
 Alpha  occ. eigenvalues --   -0.57725  -0.56401  -0.51331  -0.46261  -0.43279
 Alpha  occ. eigenvalues --   -0.40475  -0.37814  -0.31812
 Alpha virt. eigenvalues --    0.03193   0.03542   0.04092   0.05294   0.05759
 Alpha virt. eigenvalues --    0.06265   0.07525   0.07737   0.08562   0.09530
 Alpha virt. eigenvalues --    0.09764   0.11233   0.11644   0.13184   0.13692

 Mulliken charges:
               1
     1  C   -0.027694
     2  C    0.674195
     3  C   -0.663730
     4  N    1.205595
     5  C   -1.615300
     6  C    0.531258
     7  H   -0.189172
     8  H   -0.193856
     9  H   -0.277637
    10  H   -0.183430
    11  N   -0.012169
    12  P    0.411490
    13  H    0.368316
    14  H   -0.042481
    15  H    0.014614
 Sum of Mulliken charges =  -0.00000

 Dipole moment (field-independent basis, Debye):
    X=             -0.2357    Y=              2.5573    Z=              0.9762  Tot=              2.7474

 Test job not archived.
 1\1\GINC-SE212\SP\RHF\Aug-CC-pVDZ\C5H7N2P1\OHZDE\08-Apr-2025\0\\#t hf
 aug-cc-pvdz iop(5/13=1,5/36=2,99/5=2) pseudo=read geom=check guess=(re
 ad,tcheck) scf=(maxcycle=1)\\title\\0,1\C,0,-1.784783,1.33,-0.058705\C
 ,0,-2.628257,0.228356,0.050024\C,0,-2.052173,-1.040271,0.096772\N,0,-0
 .73651,-1.253244,0.045659\C,0,0.071029,-0.186437,-0.050644\C,0,-0.4096
 41,1.123853,-0.113899\H,0,-3.704634,0.342942,0.096001\H,0,-2.676087,-1
 .926433,0.178144\H,0,0.288652,1.947008,-0.199333\H,0,-2.1915,2.334768,
 -0.100478\N,0,2.622511,0.845741,0.212683\P,0,1.857746,-0.624865,-0.216

 Normal termination of Gaussian 16 at Tue Apr  8 23:36:58 2025.
