 Gaussian 16, Revision C.01,

 ----------------------------------------------------------------------
 #t hf aug-cc-pvdz symm=none int=(grid=ultrafine) guess=(read,tcheck) s
 table=opt
 ----------------------------------------------------------------------
 -----
 title
 -----
 Symbolic Z-matrix:
 Charge =  0 Multiplicity = 2

 SCF Done:  E(UHF) =  -442.408705709     A.U. after   22 cycles
 Normal termination of Gaussian 16 at Tue Apr  8 23:50:22 2025.
 Gaussian 16:  ES64L-G16RevC.01  3-Jul-2019

 ----------------------------------------------------------------------
 #t hf aug-cc-pvdz iop(5/13=1,5/36=2,99/5=2) pseudo=read geom=check gue
 ss=(read,tcheck) scf=(maxcycle=1)
 ----------------------------------------------------------------------
 -----
 title
 -----
 Structure from the checkpoint file:  "BDE49_nonexpt_1874_mol2.chk"
 Charge =  0 Multiplicity = 2

                         Standard orientation:
 ---------------------------------------------------------------------
 Center     Atomic      Atomic             Coordinates (Angstroms)
 Number     Number       Type             X           Y           Z
 ---------------------------------------------------------------------
      1         14           0        1.398808   -0.192197   -0.086735
      2          6           0       -0.481146    0.208763    0.004435
      3          1           0        2.202490    0.974429    0.340946
      4          1           0        1.794619   -1.432638    0.630434
      5          8           0       -0.811207    1.377274    0.029121
      6          6           0       -1.497421   -0.918715   -0.000488
      7          1           0       -1.335477   -1.581846    0.854817
      8          1           0       -1.377832   -1.523400   -0.905346
      9          1           0       -2.506051   -0.504262    0.036786
 ---------------------------------------------------------------------

 SCF Done:  E(UHF) =  -442.591985522     A.U. after    2 cycles

 The electronic state is 2-A.
 Alpha  occ. eigenvalues --  -69.55236 -20.55837 -11.33605 -11.25208  -6.22469
 Alpha  occ. eigenvalues --   -3.98453  -3.97521  -3.97508  -1.48890  -1.02065
 Alpha  occ. eigenvalues --   -0.82266  -0.72211  -0.63500  -0.62793  -0.61281
 Alpha  occ. eigenvalues --   -0.54989  -0.53143  -0.50642  -0.40487  -0.34367
 Alpha virt. eigenvalues --    0.03160   0.04553   0.05101   0.05333   0.06262
 Alpha virt. eigenvalues --    0.07199   0.08111   0.09375   0.09503   0.12108
 Alpha virt. eigenvalues --    0.13381   0.13913   0.15071   0.15304   0.16323

  Beta  occ. eigenvalues --  -69.54669 -20.54923 -11.34021 -11.25166  -6.21625
  Beta  occ. eigenvalues --   -3.97110  -3.97104  -3.96243  -1.46845  -1.02047
  Beta  occ. eigenvalues --   -0.80366  -0.70334  -0.62953  -0.61999  -0.60835
  Beta  occ. eigenvalues --   -0.54680  -0.50021  -0.48907  -0.39015
  Beta virt. eigenvalues --    0.01144   0.03311   0.04746   0.05383   0.05783
  Beta virt. eigenvalues --    0.06481   0.08000   0.08206   0.09750   0.10836
  Beta virt. eigenvalues --    0.13521   0.13973   0.14851   0.15308   0.15928

 Mulliken charges and spin densities:
               1          2
     1  Si   0.623961   1.015051
     2  C    0.623900  -0.253482
     3  H   -0.136001  -0.003594
     4  H   -0.124497  -0.013625
     5  O   -1.104258   0.226743
     6  C   -0.473703   0.048290
     7  H    0.219149  -0.007127
     8  H    0.232979  -0.010731
     9  H    0.138471  -0.001525
 Sum of Mulliken charges =  -0.00000   1.00000

 Dipole moment (field-independent basis, Debye):
    X=              0.3870    Y=             -2.6222    Z=              0.0538  Tot=              2.6511
                          Isotropic Fermi Contact Couplings
        Atom                 a.u.       MegaHertz       Gauss      10(-4) cm-1
     1  Si(29)             0.52938    -470.47356    -167.87667    -156.93309
     2  C(13)             -0.03644     -40.96733     -14.61816     -13.66523
     3  H(1)              -0.00088      -3.92269      -1.39971      -1.30847
     4  H(1)              -0.00204      -9.12019      -3.25431      -3.04217
     5  O(17)              0.06852     -41.53790     -14.82176     -13.85555
     6  C(13)              0.00567       6.37222       2.27377       2.12554
     7  H(1)              -0.00272     -12.16705      -4.34151      -4.05849
     8  H(1)              -0.00219      -9.76980      -3.48611      -3.25885

 Normal termination of Gaussian 16 at Tue Apr  8 23:50:25 2025.
