 Gaussian 16, Revision C.01,

 ----------------------------------------------------------------------
 #t hf aug-cc-pvdz symm=none int=(grid=ultrafine) guess=(read,tcheck) s
 table=(opt,rrhf)
 ----------------------------------------------------------------------
 -----
 title
 -----
 Symbolic Z-matrix:
 Charge =  0 Multiplicity = 1

 SCF Done:  E(RHF) =  -611.178254592     A.U. after   16 cycles
 Normal termination of Gaussian 16 at Tue Apr  8 23:04:55 2025.
 Gaussian 16:  ES64L-G16RevC.01  3-Jul-2019

 ----------------------------------------------------------------------
 #t hf aug-cc-pvdz iop(5/13=1,5/36=2,99/5=2) pseudo=read geom=check gue
 ss=(read,tcheck) scf=(maxcycle=1)
 ----------------------------------------------------------------------
 -----
 title
 -----
 Structure from the checkpoint file:  "BDE49_expt_324_mol1.chk"
 Charge =  0 Multiplicity = 1

                         Standard orientation:
 ---------------------------------------------------------------------
 Center     Atomic      Atomic             Coordinates (Angstroms)
 Number     Number       Type             X           Y           Z
 ---------------------------------------------------------------------
      1          6           0        0.478678   -1.047737    0.055010
      2          6           0        1.838140   -1.195494   -0.194829
      3          6           0        2.654271   -0.074427   -0.139192
      4          6           0        2.153667    1.185131    0.148207
      5          6           0        0.788874    1.318962    0.388273
      6          6           0       -0.060129    0.209649    0.353097
      7          1           0       -0.169834   -1.912612   -0.004948
      8          1           0        2.822860    2.035667    0.176179
      9          1           0        0.382924    2.300593    0.605824
     10          1           0        2.269844   -2.159578   -0.432321
     11          6           0       -1.534633    0.390055    0.644225
     12          6           0       -2.076447   -0.469842    1.781383
     13          1           0       -1.945748   -1.530103    1.568428
     14          1           0       -3.139529   -0.277394    1.942664
     15          1           0       -1.535576   -0.225226    2.697672
     16          7           0       -2.332969    0.090215   -0.639779
     17          1           0       -1.743012    1.443891    0.817697
     18          8           0       -2.522394   -1.081964   -0.925682
     19          8           0       -2.707771    1.049246   -1.291092
     20          9           0        3.975072   -0.215864   -0.375066
 ---------------------------------------------------------------------

 SCF Done:  E(RHF) =  -611.779421754     A.U. after    2 cycles

 The electronic state is 1-A.
 Alpha  occ. eigenvalues --  -26.48873 -20.59382 -20.59057 -15.78377 -11.35380
 Alpha  occ. eigenvalues --  -11.33117 -11.27834 -11.27698 -11.27438 -11.26787
 Alpha  occ. eigenvalues --  -11.26751 -11.26311  -1.67021  -1.61819  -1.50921
 Alpha  occ. eigenvalues --   -1.19777  -1.14155  -1.05300  -1.03187  -0.98400
 Alpha  occ. eigenvalues --   -0.89117  -0.88063  -0.83720  -0.77566  -0.76321
 Alpha  occ. eigenvalues --   -0.75146  -0.74419  -0.71840  -0.68487  -0.68008
 Alpha  occ. eigenvalues --   -0.65102  -0.63274  -0.62569  -0.60269  -0.59506
 Alpha  occ. eigenvalues --   -0.56626  -0.54709  -0.53026  -0.52836  -0.48689
 Alpha  occ. eigenvalues --   -0.48369  -0.45167  -0.37707  -0.36464
 Alpha virt. eigenvalues --    0.02862   0.03406   0.03546   0.04448   0.04919
 Alpha virt. eigenvalues --    0.05218   0.05934   0.07509   0.08071   0.08350
 Alpha virt. eigenvalues --    0.09459   0.09705   0.11109   0.11219   0.12496

 Mulliken charges:
               1
     1  C    0.185670
     2  C   -0.292826
     3  C    1.097905
     4  C   -0.172154
     5  C    0.479129
     6  C    1.475599
     7  H   -0.271265
     8  H   -0.192711
     9  H   -0.315099
    10  H   -0.191433
    11  C   -1.260433
    12  C   -0.258672
    13  H    0.264292
    14  H    0.161040
    15  H    0.201803
    16  N    3.065010
    17  H   -0.008539
    18  O   -1.509113
    19  O   -1.465458
    20  F   -0.992744
 Sum of Mulliken charges =   0.00000

 Dipole moment (field-independent basis, Debye):
    X=              0.9868    Y=              0.5279    Z=              3.5612  Tot=              3.7329

 Test job not archived.
 1\1\GINC-SE424\SP\RHF\Aug-CC-pVDZ\C8H8F1N1O2\OHZDE\08-Apr-2025\0\\#t h
 f aug-cc-pvdz iop(5/13=1,5/36=2,99/5=2) pseudo=read geom=check guess=(
 read,tcheck) scf=(maxcycle=1)\\title\\0,1\C,0,0.478678,-1.047737,0.055
 01\C,0,1.83814,-1.195494,-0.194829\C,0,2.654271,-0.074427,-0.139192\C,
 0,2.153667,1.185131,0.148207\C,0,0.788874,1.318962,0.388273\C,0,-0.060
 129,0.209649,0.353097\H,0,-0.169834,-1.912612,-0.004948\H,0,2.82286,2.
 035667,0.176179\H,0,0.382924,2.300593,0.605824\H,0,2.269844,-2.159578,
 -0.432321\C,0,-1.534633,0.390055,0.644225\C,0,-2.076447,-0.469842,1.78

 Normal termination of Gaussian 16 at Tue Apr  8 23:05:09 2025.
