 Gaussian 16, Revision C.01,

 ----------------------------------------------------------------------
 #t hf aug-cc-pvdz symm=none int=(grid=ultrafine) guess=(read,tcheck) s
 table=(opt,rrhf)
 ----------------------------------------------------------------------
 -----
 title
 -----
 Symbolic Z-matrix:
 Charge =  0 Multiplicity = 1

 SCF Done:  E(RHF) =  -734.179195398     A.U. after   15 cycles
 Normal termination of Gaussian 16 at Tue Apr  8 23:10:01 2025.
 Gaussian 16:  ES64L-G16RevC.01  3-Jul-2019

 ----------------------------------------------------------------------
 #t hf aug-cc-pvdz iop(5/13=1,5/36=2,99/5=2) pseudo=read geom=check gue
 ss=(read,tcheck) scf=(maxcycle=1)
 ----------------------------------------------------------------------
 -----
 title
 -----
 Structure from the checkpoint file:  "BDE49_expt_503_mol1.chk"
 Charge =  0 Multiplicity = 1

                         Standard orientation:
 ---------------------------------------------------------------------
 Center     Atomic      Atomic             Coordinates (Angstroms)
 Number     Number       Type             X           Y           Z
 ---------------------------------------------------------------------
      1          6           0        3.491333    1.178861    0.000010
      2          6           0        2.110362    1.326973   -0.000025
      3          6           0        4.059776   -0.093621    0.000028
      4          6           0        3.230457   -1.211793    0.000011
      5          6           0        1.843719   -1.081627   -0.000025
      6          6           0        1.280383    0.199067   -0.000044
      7          1           0        1.671037    2.319800   -0.000039
      8          1           0        4.122364    2.060042    0.000023
      9          1           0        3.662220   -2.206089    0.000024
     10          1           0        1.203025   -1.949647   -0.000041
     11          7           0       -0.116754    0.427758   -0.000083
     12          1           0        5.136935   -0.210479    0.000056
     13          6           0       -1.120537   -0.488188   -0.000101
     14          1           0       -0.401347    1.396508   -0.000089
     15          8           0       -1.029330   -1.694812    0.000014
     16          6           0       -2.537894    0.147635    0.000015
     17          9           0       -3.218431   -0.237874   -1.085189
     18          9           0       -2.506377    1.508057    0.000050
     19          9           0       -3.218294   -0.237937    1.085285
 ---------------------------------------------------------------------

 SCF Done:  E(RHF) =  -734.884343359     A.U. after    2 cycles

 The electronic state is 1-A.
 Alpha  occ. eigenvalues --  -26.53207 -26.52447 -26.52444 -20.55704 -15.58073
 Alpha  occ. eigenvalues --  -11.54582 -11.41248 -11.31250 -11.26238 -11.26165
 Alpha  occ. eigenvalues --  -11.25852 -11.25248 -11.25197  -1.73492  -1.63493
 Alpha  occ. eigenvalues --   -1.63292  -1.50686  -1.30093  -1.16730  -1.05998
 Alpha  occ. eigenvalues --   -1.03735  -1.00482  -0.91453  -0.88260  -0.85187
 Alpha  occ. eigenvalues --   -0.82905  -0.82756  -0.81941  -0.76421  -0.71272
 Alpha  occ. eigenvalues --   -0.70832  -0.69769  -0.68992  -0.66355  -0.65772
 Alpha  occ. eigenvalues --   -0.64914  -0.64182  -0.64126  -0.63829  -0.61742
 Alpha  occ. eigenvalues --   -0.61481  -0.54879  -0.53952  -0.52676  -0.48178
 Alpha  occ. eigenvalues --   -0.46451  -0.36401  -0.34322
 Alpha virt. eigenvalues --    0.02805   0.03325   0.03902   0.05459   0.06265
 Alpha virt. eigenvalues --    0.07398   0.07592   0.08884   0.09150   0.09554
 Alpha virt. eigenvalues --    0.10182   0.10467   0.11392   0.12538   0.12897

 Mulliken charges:
               1
     1  C    0.537693
     2  C    0.222003
     3  C    0.007914
     4  C    0.568984
     5  C    0.323251
     6  C   -1.213902
     7  H   -0.364008
     8  H   -0.223660
     9  H   -0.228199
    10  H   -0.287584
    11  N    1.169785
    12  H   -0.218647
    13  C    0.393995
    14  H    0.133243
    15  O   -1.458601
    16  C    3.027247
    17  F   -0.759417
    18  F   -0.870681
    19  F   -0.759415
 Sum of Mulliken charges =  -0.00000

 Dipole moment (field-independent basis, Debye):
    X=              2.5961    Y=              2.5757    Z=             -0.0002  Tot=              3.6570

 Test job not archived.
 1\1\GINC-SE070\SP\RHF\Aug-CC-pVDZ\C8H6F3N1O1\OHZDE\08-Apr-2025\0\\#t h
 f aug-cc-pvdz iop(5/13=1,5/36=2,99/5=2) pseudo=read geom=check guess=(
 read,tcheck) scf=(maxcycle=1)\\title\\0,1\C,0,3.491333,1.178861,0.0000
 1\C,0,2.110362,1.326973,-0.000025\C,0,4.059776,-0.093621,0.000028\C,0,
 3.230457,-1.211793,0.000011\C,0,1.843719,-1.081627,-0.000025\C,0,1.280
 383,0.199067,-0.000044\H,0,1.671037,2.3198,-0.000039\H,0,4.122364,2.06
 0042,0.000023\H,0,3.66222,-2.206089,0.000024\H,0,1.203025,-1.949647,-0
 .000041\N,0,-0.116754,0.427758,-0.000083\H,0,5.136935,-0.210479,0.0000

 Normal termination of Gaussian 16 at Tue Apr  8 23:10:14 2025.
