 Gaussian 16, Revision C.01,

 ----------------------------------------------------------------------
 #t hf aug-cc-pvdz symm=none int=(grid=ultrafine) guess=(read,tcheck) s
 table=(opt,rrhf)
 ----------------------------------------------------------------------
 -----
 title
 -----
 Symbolic Z-matrix:
 Charge =  0 Multiplicity = 1

 SCF Done:  E(RHF) =  -1094.74018252     A.U. after   13 cycles
 Normal termination of Gaussian 16 at Tue Apr  8 22:41:27 2025.
 Gaussian 16:  ES64L-G16RevC.01  3-Jul-2019

 ----------------------------------------------------------------------
 #t hf aug-cc-pvdz iop(5/13=1,5/36=2,99/5=2) pseudo=read geom=check gue
 ss=(read,tcheck) scf=(maxcycle=1)
 ----------------------------------------------------------------------
 -----
 title
 -----
 Structure from the checkpoint file:  "BDE49_expt_140_mol1.chk"
 Charge =  0 Multiplicity = 1

                         Standard orientation:
 ---------------------------------------------------------------------
 Center     Atomic      Atomic             Coordinates (Angstroms)
 Number     Number       Type             X           Y           Z
 ---------------------------------------------------------------------
      1          6           0       -1.087694    0.029844    0.000000
      2          6           0        0.000000    0.791917   -0.000000
      3          9           0       -0.113234    2.122400   -0.000000
      4         17           0       -1.065249   -1.695713    0.000000
      5          1           0       -2.066441    0.486553    0.000000
      6         17           0        1.630644    0.253436   -0.000000
 ---------------------------------------------------------------------

 SCF Done:  E(RHF) =  -1095.05756137     A.U. after    2 cycles

 The electronic state is 1-A'.
 Alpha  occ. eigenvalues -- -105.61019-105.59729 -26.51913 -11.42178 -11.33150
 Alpha  occ. eigenvalues --  -10.65850 -10.64514  -7.82821  -7.82372  -7.82365
 Alpha  occ. eigenvalues --   -7.81487  -7.81053  -7.81045  -1.65414  -1.18386
 Alpha  occ. eigenvalues --   -1.11541  -1.00764  -0.82788  -0.74988  -0.72685
 Alpha  occ. eigenvalues --   -0.71925  -0.60975  -0.60336  -0.55938  -0.51452
 Alpha  occ. eigenvalues --   -0.50864  -0.48254  -0.38457
 Alpha virt. eigenvalues --    0.03822   0.07091   0.07706   0.09320   0.10131
 Alpha virt. eigenvalues --    0.12067   0.12937   0.14562   0.14643   0.15169
 Alpha virt. eigenvalues --    0.15384   0.16051   0.16623   0.18793   0.19751

 Mulliken charges:
               1
     1  C   -0.126643
     2  C    1.066206
     3  F   -0.789539
     4  Cl  -0.115020
     5  H   -0.035916
     6  Cl   0.000912
 Sum of Mulliken charges =  -0.00000

 Dipole moment (field-independent basis, Debye):
    X=             -0.7822    Y=              0.2956    Z=             -0.0000  Tot=              0.8362

 Test job not archived.
 1\1\GINC-SE082\SP\RHF\Aug-CC-pVDZ\C2H1Cl2F1\OHZDE\08-Apr-2025\0\\#t hf
  aug-cc-pvdz iop(5/13=1,5/36=2,99/5=2) pseudo=read geom=check guess=(r
 ead,tcheck) scf=(maxcycle=1)\\title\\0,1\C,0,-1.087694,0.029844,0.\C,0
 ,0.,0.791917,0.\F,0,-0.113234,2.1224,0.\Cl,0,-1.065249,-1.695713,0.\H,
 0,-2.066441,0.486553,0.\Cl,0,1.630644,0.253436,0.\\Version=ES64L-G16Re
 vC.01\State=1-A'\HF=-1095.0575614\RMSD=8.332e-03\Dipole=-0.3077217,0.1
 163061,0.\Quadrupole=2.3704936,-1.61057,-0.7599236,-1.2662143,0.,0.\PG
 =CS [SG(C2H1Cl2F1)]\\@

 Normal termination of Gaussian 16 at Tue Apr  8 22:41:29 2025.
