 Gaussian 16, Revision C.01,

 ----------------------------------------------------------------------
 #t hf aug-cc-pvdz symm=none int=(grid=ultrafine) guess=(read,tcheck) s
 table=(opt,rrhf)
 ----------------------------------------------------------------------
 -----
 title
 -----
 Symbolic Z-matrix:
 Charge =  0 Multiplicity = 1

 SCF Done:  E(RHF) =  -462.209416101     A.U. after   12 cycles
 Normal termination of Gaussian 16 at Tue Apr  8 23:58:36 2025.
 Gaussian 16:  ES64L-G16RevC.01  3-Jul-2019

 ----------------------------------------------------------------------
 #t hf aug-cc-pvdz iop(5/13=1,5/36=2,99/5=2) pseudo=read geom=check gue
 ss=(read,tcheck) scf=(maxcycle=1)
 ----------------------------------------------------------------------
 -----
 title
 -----
 Structure from the checkpoint file:  "BDE49_nonexpt_2061_mol1.chk"
 Charge =  0 Multiplicity = 1

                         Standard orientation:
 ---------------------------------------------------------------------
 Center     Atomic      Atomic             Coordinates (Angstroms)
 Number     Number       Type             X           Y           Z
 ---------------------------------------------------------------------
      1         14           0        1.790405   -0.346397   -0.000001
      2          6           0       -0.036133    0.161646   -0.000000
      3          7           0       -0.867499   -0.807828    0.000001
      4          6           0       -2.304538   -0.572841    0.000002
      5          1           0       -2.731975   -1.069438    0.876546
      6          1           0       -2.731980   -1.069457   -0.876528
      7          1           0       -2.620705    0.476553   -0.000008
      8          6           0       -0.383487    1.647906   -0.000001
      9          1           0        0.518780    2.262726   -0.000002
     10          1           0       -0.969410    1.919413    0.883484
     11          1           0       -0.969411    1.919412   -0.883486
     12          1           0        1.927057   -1.815467   -0.000000
     13          1           0        2.464709    0.230176    1.192020
     14          1           0        2.464707    0.230174   -1.192024
 ---------------------------------------------------------------------

 SCF Done:  E(RHF) =  -462.427903082     A.U. after    2 cycles

 The electronic state is 1-A.
 Alpha  occ. eigenvalues --  -69.52579 -15.50108 -11.27352 -11.25538 -11.24579
 Alpha  occ. eigenvalues --   -6.19710  -3.95067  -3.95062  -3.95062  -1.22526
 Alpha  occ. eigenvalues --   -1.00668  -0.95207  -0.78585  -0.70953  -0.64203
 Alpha  occ. eigenvalues --   -0.62838  -0.61437  -0.57485  -0.55874  -0.50455
 Alpha  occ. eigenvalues --   -0.49182  -0.48252  -0.42540  -0.40665
 Alpha virt. eigenvalues --    0.03334   0.04168   0.04709   0.04715   0.05574
 Alpha virt. eigenvalues --    0.06245   0.06494   0.06894   0.08009   0.09247
 Alpha virt. eigenvalues --    0.10371   0.11013   0.11206   0.13404   0.13575

 Mulliken charges:
               1
     1  Si   0.814645
     2  C   -1.263635
     3  N    0.742618
     4  C   -0.362456
     5  H    0.122818
     6  H    0.122815
     7  H    0.091966
     8  C   -0.316412
     9  H    0.020717
    10  H    0.255277
    11  H    0.255278
    12  H   -0.122117
    13  H   -0.180757
    14  H   -0.180757
 Sum of Mulliken charges =  -0.00000

 Dipole moment (field-independent basis, Debye):
    X=             -0.7207    Y=              2.1696    Z=              0.0000  Tot=              2.2862

 Test job not archived.
 1\1\GINC-SE402\SP\RHF\Aug-CC-pVDZ\C3H9N1Si1\OHZDE\08-Apr-2025\0\\#t hf
  aug-cc-pvdz iop(5/13=1,5/36=2,99/5=2) pseudo=read geom=check guess=(r
 ead,tcheck) scf=(maxcycle=1)\\title\\0,1\Si,0,1.790405,-0.346397,-0.00
 0001\C,0,-0.036133,0.161646,0.\N,0,-0.867499,-0.807828,0.000001\C,0,-2
 .304538,-0.572841,0.000002\H,0,-2.731975,-1.069438,0.876546\H,0,-2.731
 98,-1.069457,-0.876528\H,0,-2.620705,0.476553,-0.000008\C,0,-0.383487,
 1.647906,-0.000001\H,0,0.51878,2.262726,-0.000002\H,0,-0.96941,1.91941
 3,0.883484\H,0,-0.969411,1.919412,-0.883486\H,0,1.927057,-1.815467,0.\

 Normal termination of Gaussian 16 at Tue Apr  8 23:58:40 2025.
