 Gaussian 16, Revision C.01,

 ----------------------------------------------------------------------
 #t hf aug-cc-pvdz symm=none int=(grid=ultrafine) guess=(read,tcheck) s
 table=(opt,rrhf)
 ----------------------------------------------------------------------
 -----
 title
 -----
 Symbolic Z-matrix:
 Charge =  0 Multiplicity = 1

 SCF Done:  E(RHF) =  -369.965994281     A.U. after   15 cycles
 Normal termination of Gaussian 16 at Wed Apr  9 00:30:46 2025.
 Gaussian 16:  ES64L-G16RevC.01  3-Jul-2019

 ----------------------------------------------------------------------
 #t hf aug-cc-pvdz iop(5/13=1,5/36=2,99/5=2) pseudo=read geom=check gue
 ss=(read,tcheck) scf=(maxcycle=1)
 ----------------------------------------------------------------------
 -----
 title
 -----
 Structure from the checkpoint file:  "BDE49_nonexpt_329_mol1.chk"
 Charge =  0 Multiplicity = 1

                         Standard orientation:
 ---------------------------------------------------------------------
 Center     Atomic      Atomic             Coordinates (Angstroms)
 Number     Number       Type             X           Y           Z
 ---------------------------------------------------------------------
      1          6           0       -2.625697    0.323252   -0.374933
      2          6           0       -1.774160    1.357915    0.006322
      3          6           0       -0.469549    1.081043    0.407560
      4          6           0       -2.159584   -0.989386   -0.350232
      5          6           0       -0.855004   -1.263325    0.053257
      6          6           0        0.010255   -0.234286    0.443325
      7          1           0       -3.642172    0.537187   -0.685286
      8          1           0       -2.126234    2.383748   -0.005846
      9          1           0        0.186034    1.893627    0.704058
     10          1           0       -2.814140   -1.803735   -0.641489
     11          1           0       -0.504026   -2.290177    0.073483
     12          6           0        1.444433   -0.520879    0.850662
     13          5           0        2.380247   -0.416887   -0.414056
     14          1           0        1.766939    0.180699    1.625600
     15          1           0        1.506808   -1.532074    1.268636
     16          8           0        3.277631    0.598352   -0.483183
     17          1           0        3.784273    0.602688   -1.300957
     18          1           0        2.296074   -1.200352   -1.318227
 ---------------------------------------------------------------------

 SCF Done:  E(RHF) =  -370.348540821     A.U. after    2 cycles

 The electronic state is 1-A.
 Alpha  occ. eigenvalues --  -20.56636 -11.24979 -11.24010 -11.23982 -11.23530
 Alpha  occ. eigenvalues --  -11.23485 -11.23432 -11.21183  -7.61585  -1.46614
 Alpha  occ. eigenvalues --   -1.15276  -1.04428  -1.01126  -0.93656  -0.83137
 Alpha  occ. eigenvalues --   -0.80840  -0.75287  -0.70086  -0.66443  -0.64252
 Alpha  occ. eigenvalues --   -0.63560  -0.59362  -0.58312  -0.57343  -0.54333
 Alpha  occ. eigenvalues --   -0.52812  -0.50329  -0.49433  -0.49262  -0.45715
 Alpha  occ. eigenvalues --   -0.34225  -0.32812
 Alpha virt. eigenvalues --    0.03097   0.03519   0.03644   0.04171   0.04977
 Alpha virt. eigenvalues --    0.05093   0.06546   0.07239   0.08022   0.08630
 Alpha virt. eigenvalues --    0.09474   0.10052   0.10708   0.11181   0.11492

 Mulliken charges:
               1
     1  C    0.083398
     2  C    0.090766
     3  C    0.315457
     4  C    0.054715
     5  C    0.206177
     6  C    1.000347
     7  H   -0.213963
     8  H   -0.233587
     9  H   -0.316599
    10  H   -0.236333
    11  H   -0.312777
    12  C   -0.752781
    13  B    0.905787
    14  H   -0.089173
    15  H   -0.001264
    16  O   -1.019843
    17  H    0.534188
    18  H   -0.014515
 Sum of Mulliken charges =  -0.00000

 Dipole moment (field-independent basis, Debye):
    X=              0.7948    Y=             -0.3805    Z=             -0.9425  Tot=              1.2902

 Test job not archived.
 1\1\GINC-SE342\SP\RHF\Aug-CC-pVDZ\C7H9B1O1\OHZDE\09-Apr-2025\0\\#t hf
 aug-cc-pvdz iop(5/13=1,5/36=2,99/5=2) pseudo=read geom=check guess=(re
 ad,tcheck) scf=(maxcycle=1)\\title\\0,1\C,0,-2.625697,0.323252,-0.3749
 33\C,0,-1.77416,1.357915,0.006322\C,0,-0.469549,1.081043,0.40756\C,0,-
 2.159584,-0.989386,-0.350232\C,0,-0.855004,-1.263325,0.053257\C,0,0.01
 0255,-0.234286,0.443325\H,0,-3.642172,0.537187,-0.685286\H,0,-2.126234
 ,2.383748,-0.005846\H,0,0.186034,1.893627,0.704058\H,0,-2.81414,-1.803
 735,-0.641489\H,0,-0.504026,-2.290177,0.073483\C,0,1.444433,-0.520879,

 Normal termination of Gaussian 16 at Wed Apr  9 00:30:54 2025.
