 Gaussian 16, Revision C.01,

 ----------------------------------------------------------------------
 #t hf aug-cc-pvdz symm=none int=(grid=ultrafine) guess=(read,tcheck) s
 table=(opt,rrhf)
 ----------------------------------------------------------------------
 -----
 title
 -----
 Symbolic Z-matrix:
 Charge =  0 Multiplicity = 1

 SCF Done:  E(RHF) =  -836.076841886     A.U. after   15 cycles
 Normal termination of Gaussian 16 at Tue Apr  8 23:42:14 2025.
 Gaussian 16:  ES64L-G16RevC.01  3-Jul-2019

 ----------------------------------------------------------------------
 #t hf aug-cc-pvdz iop(5/13=1,5/36=2,99/5=2) pseudo=read geom=check gue
 ss=(read,tcheck) scf=(maxcycle=1)
 ----------------------------------------------------------------------
 -----
 title
 -----
 Structure from the checkpoint file:  "BDE49_nonexpt_1671_mol1.chk"
 Charge =  0 Multiplicity = 1

                         Standard orientation:
 ---------------------------------------------------------------------
 Center     Atomic      Atomic             Coordinates (Angstroms)
 Number     Number       Type             X           Y           Z
 ---------------------------------------------------------------------
      1         15           0        0.124817   -1.033315   -0.360546
      2         14           0        1.873905    0.335546    0.195884
      3          7           0       -1.230127    0.210153   -0.007137
      4          8           0       -1.033906    1.352294   -0.403236
      5          8           0       -2.248182   -0.195325    0.518961
      6          1           0        0.004142   -1.665089    0.898977
      7          1           0        2.182914    1.188100   -0.966533
      8          1           0        3.002117   -0.587870    0.461445
      9          1           0        1.571488    1.140119    1.396083
 ---------------------------------------------------------------------

 SCF Done:  E(RHF) =  -836.347972648     A.U. after    2 cycles

 The electronic state is 1-A.
 Alpha  occ. eigenvalues --  -84.34283 -69.57109 -20.59855 -20.59522 -15.77968
 Alpha  occ. eigenvalues --   -6.81261  -6.24170  -4.33847  -4.33290  -4.32698
 Alpha  occ. eigenvalues --   -3.99558  -3.99485  -3.99464  -1.67092  -1.51214
 Alpha  occ. eigenvalues --   -1.03393  -0.87086  -0.78043  -0.74920  -0.73766
 Alpha  occ. eigenvalues --   -0.71395  -0.54155  -0.52745  -0.51075  -0.48291
 Alpha  occ. eigenvalues --   -0.45821  -0.45274  -0.39072
 Alpha virt. eigenvalues --    0.02952   0.03740   0.04244   0.05778   0.06065
 Alpha virt. eigenvalues --    0.06323   0.07248   0.08470   0.08565   0.10139
 Alpha virt. eigenvalues --    0.11587   0.12200   0.13740   0.15170   0.16189

 Mulliken charges:
               1
     1  P   -0.357510
     2  Si   0.967349
     3  N    1.848726
     4  O   -1.170032
     5  O   -1.170448
     6  H    0.320713
     7  H   -0.153420
     8  H   -0.171621
     9  H   -0.113756
 Sum of Mulliken charges =  -0.00000

 Dipole moment (field-independent basis, Debye):
    X=              3.7645    Y=             -2.1505    Z=              0.0464  Tot=              4.3357

 Test job not archived.
 1\1\GINC-SE173\SP\RHF\Aug-CC-pVDZ\H4N1O2P1Si1\OHZDE\08-Apr-2025\0\\#t
 hf aug-cc-pvdz iop(5/13=1,5/36=2,99/5=2) pseudo=read geom=check guess=
 (read,tcheck) scf=(maxcycle=1)\\title\\0,1\P,0,0.124817,-1.033315,-0.3
 60546\Si,0,1.873905,0.335546,0.195884\N,0,-1.230127,0.210153,-0.007137
 \O,0,-1.033906,1.352294,-0.403236\O,0,-2.248182,-0.195325,0.518961\H,0
 ,0.004142,-1.665089,0.898977\H,0,2.182914,1.1881,-0.966533\H,0,3.00211
 7,-0.58787,0.461445\H,0,1.571488,1.140119,1.396083\\Version=ES64L-G16R
 evC.01\State=1-A\HF=-836.3479726\RMSD=2.039e-02\Dipole=1.4810804,-0.84

 Normal termination of Gaussian 16 at Tue Apr  8 23:42:17 2025.
