 Gaussian 16, Revision C.01,

 ----------------------------------------------------------------------
 #t hf aug-cc-pvdz symm=none int=(grid=ultrafine) guess=(read,tcheck) s
 table=(opt,rrhf)
 ----------------------------------------------------------------------
 -----
 title
 -----
 Symbolic Z-matrix:
 Charge =  0 Multiplicity = 1

 SCF Done:  E(RHF) =  -1655.69602100     A.U. after   13 cycles
 Normal termination of Gaussian 16 at Wed Apr  9 00:49:39 2025.
 Gaussian 16:  ES64L-G16RevC.01  3-Jul-2019

 ----------------------------------------------------------------------
 #t hf aug-cc-pvdz iop(5/13=1,5/36=2,99/5=2) pseudo=read geom=check gue
 ss=(read,tcheck) scf=(maxcycle=1)
 ----------------------------------------------------------------------
 -----
 title
 -----
 Structure from the checkpoint file:  "BDE49_nonexpt_895_mol1.chk"
 Charge =  0 Multiplicity = 1

                         Standard orientation:
 ---------------------------------------------------------------------
 Center     Atomic      Atomic             Coordinates (Angstroms)
 Number     Number       Type             X           Y           Z
 ---------------------------------------------------------------------
      1         16           0       -0.326052   -1.175403   -0.294238
      2          5           0        1.021512    0.044287   -0.046888
      3         16           0        2.681833   -0.633423    0.267688
      4         16           0        0.859005    1.840320   -0.102337
      5         16           0       -2.098845   -0.083202   -0.558383
      6          6           0       -2.713393    0.066126    1.157382
      7          1           0       -3.670991    0.586720    1.081128
      8          1           0       -2.027047    0.650475    1.768835
      9          1           0       -2.870741   -0.919719    1.591858
     10          1           0       -0.453542    1.826929   -0.430845
     11          1           0        2.340046   -1.935276    0.275504
 ---------------------------------------------------------------------

 SCF Done:  E(RHF) =  -1656.00656608     A.U. after    2 cycles

 The electronic state is 1-A.
 Alpha  occ. eigenvalues --  -93.99083 -93.98275 -93.96340 -93.95923 -11.28646
 Alpha  occ. eigenvalues --   -8.26971  -8.26394  -8.24624  -8.24260  -7.68493
 Alpha  occ. eigenvalues --   -6.24774  -6.24571  -6.24344  -6.24194  -6.23967
 Alpha  occ. eigenvalues --   -6.23818  -6.22458  -6.22321  -6.22142  -6.22084
 Alpha  occ. eigenvalues --   -6.21965  -6.21791  -1.12111  -1.06073  -1.01273
 Alpha  occ. eigenvalues --   -0.99233  -0.86285  -0.67244  -0.63075  -0.61969
 Alpha  occ. eigenvalues --   -0.58780  -0.55170  -0.53945  -0.51173  -0.46975
 Alpha  occ. eigenvalues --   -0.45994  -0.44713  -0.38482  -0.38130  -0.37878
 Alpha virt. eigenvalues --    0.03151   0.03959   0.04790   0.05102   0.06130
 Alpha virt. eigenvalues --    0.06650   0.07157   0.08140   0.08927   0.09485
 Alpha virt. eigenvalues --    0.09891   0.11187   0.11650   0.11983   0.13759

 Mulliken charges:
               1
     1  S   -0.380869
     2  B    1.291618
     3  S   -0.716955
     4  S   -0.627840
     5  S   -0.055261
     6  C   -0.681810
     7  H    0.196394
     8  H    0.118562
     9  H    0.218756
    10  H    0.372649
    11  H    0.264755
 Sum of Mulliken charges =  -0.00000

 Dipole moment (field-independent basis, Debye):
    X=             -2.2089    Y=             -0.3172    Z=              1.3741  Tot=              2.6207

 Test job not archived.
 1\1\GINC-SE115\SP\RHF\Aug-CC-pVDZ\C1H5B1S4\OHZDE\09-Apr-2025\0\\#t hf
 aug-cc-pvdz iop(5/13=1,5/36=2,99/5=2) pseudo=read geom=check guess=(re
 ad,tcheck) scf=(maxcycle=1)\\title\\0,1\S,0,-0.326052,-1.175403,-0.294
 238\B,0,1.021512,0.044287,-0.046888\S,0,2.681833,-0.633423,0.267688\S,
 0,0.859005,1.84032,-0.102337\S,0,-2.098845,-0.083202,-0.558383\C,0,-2.
 713393,0.066126,1.157382\H,0,-3.670991,0.58672,1.081128\H,0,-2.027047,
 0.650475,1.768835\H,0,-2.870741,-0.919719,1.591858\H,0,-0.453542,1.826
 929,-0.430845\H,0,2.340046,-1.935276,0.275504\\Version=ES64L-G16RevC.0

 Normal termination of Gaussian 16 at Wed Apr  9 00:49:45 2025.
