 Gaussian 16, Revision C.01,

 ----------------------------------------------------------------------
 #t hf aug-cc-pvdz symm=none int=(grid=ultrafine) guess=(read,tcheck) s
 table=(opt,rrhf)
 ----------------------------------------------------------------------
 -----
 title
 -----
 Symbolic Z-matrix:
 Charge =  0 Multiplicity = 1

 SCF Done:  E(RHF) =  -714.239055358     A.U. after   13 cycles
 Normal termination of Gaussian 16 at Tue Apr  8 23:00:00 2025.
 Gaussian 16:  ES64L-G16RevC.01  3-Jul-2019

 ----------------------------------------------------------------------
 #t hf aug-cc-pvdz iop(5/13=1,5/36=2,99/5=2) pseudo=read geom=check gue
 ss=(read,tcheck) scf=(maxcycle=1)
 ----------------------------------------------------------------------
 -----
 title
 -----
 Structure from the checkpoint file:  "BDE49_expt_1869_mol1.chk"
 Charge =  0 Multiplicity = 1

                         Standard orientation:
 ---------------------------------------------------------------------
 Center     Atomic      Atomic             Coordinates (Angstroms)
 Number     Number       Type             X           Y           Z
 ---------------------------------------------------------------------
      1          6           0        2.348467    0.867412   -1.265111
      2          6           0        2.111813    0.038257    0.000041
      3          1           0        3.381791    1.223321   -1.299388
      4          1           0        1.682610    1.730399   -1.285054
      5          1           0        2.159622    0.262819   -2.155402
      6          6           0        2.346309    0.857923    1.271740
      7          1           0        3.379597    1.213490    1.310463
      8          1           0        2.155902    0.246743    2.157192
      9          1           0        1.680485    1.720793    1.296945
     10          6           0        2.958334   -1.238741   -0.004045
     11          1           0        4.019223   -0.977620   -0.002321
     12          1           0        2.749435   -1.837148   -0.893384
     13          1           0        2.748164   -1.843706    0.880547
     14          8           0        0.769839   -0.502777   -0.003185
     15          8           0       -0.183124    0.620060    0.000173
     16         14           0       -1.752104   -0.024581   -0.000018
     17          6           0       -2.796214    1.529928    0.003953
     18          1           0       -2.597601    2.139434    0.889414
     19          1           0       -3.860190    1.272002    0.005238
     20          1           0       -2.600352    2.142005   -0.880350
     21          6           0       -2.030938   -1.048058   -1.542963
     22          1           0       -1.872129   -0.449376   -2.444286
     23          1           0       -3.051670   -1.442662   -1.574564
     24          1           0       -1.340804   -1.894888   -1.575957
     25          6           0       -2.028348   -1.054764    1.538924
     26          1           0       -1.871584   -0.459213    2.442677
     27          1           0       -1.335492   -1.899497    1.568597
     28          1           0       -3.047805   -1.452769    1.568743
 ---------------------------------------------------------------------

 SCF Done:  E(RHF) =  -714.726167080     A.U. after    2 cycles

 The electronic state is 1-A.
 Alpha  occ. eigenvalues --  -69.53401 -20.59637 -20.57010 -11.29399 -11.22598
 Alpha  occ. eigenvalues --  -11.21863 -11.21836 -11.20806 -11.20544 -11.20539
 Alpha  occ. eigenvalues --   -6.20096  -3.95542  -3.95405  -3.95362  -1.54351
 Alpha  occ. eigenvalues --   -1.27189  -1.05834  -0.97200  -0.94028  -0.93861
 Alpha  occ. eigenvalues --   -0.92808  -0.92590  -0.76297  -0.69311  -0.65183
 Alpha  occ. eigenvalues --   -0.64476  -0.61089  -0.59139  -0.58211  -0.56681
 Alpha  occ. eigenvalues --   -0.56562  -0.56093  -0.54990  -0.54555  -0.53486
 Alpha  occ. eigenvalues --   -0.53485  -0.52851  -0.52534  -0.52119  -0.48992
 Alpha  occ. eigenvalues --   -0.48684  -0.46444  -0.44115  -0.43478  -0.39990
 Alpha virt. eigenvalues --    0.03319   0.03672   0.03717   0.03851   0.05005
 Alpha virt. eigenvalues --    0.05468   0.05476   0.06214   0.06371   0.07455
 Alpha virt. eigenvalues --    0.07677   0.07916   0.08610   0.08627   0.09388

 Mulliken charges:
               1
     1  C    0.001812
     2  C   -0.726963
     3  H    0.195766
     4  H    0.211996
     5  H    0.210246
     6  C    0.001610
     7  H    0.195628
     8  H    0.210376
     9  H    0.212349
    10  C    0.040087
    11  H    0.224696
    12  H    0.210882
    13  H    0.211084
    14  O   -1.315023
    15  O   -1.500765
    16  Si   3.932207
    17  C   -0.639884
    18  H   -0.012482
    19  H   -0.045990
    20  H   -0.012474
    21  C   -0.686119
    22  H   -0.035014
    23  H   -0.031546
    24  H   -0.050095
    25  C   -0.685835
    26  H   -0.035346
    27  H   -0.049926
    28  H   -0.031278
 Sum of Mulliken charges =  -0.00000

 Dipole moment (field-independent basis, Debye):
    X=              0.1363    Y=             -0.1288    Z=              0.0029  Tot=              0.1875

 Test job not archived.
 1\1\GINC-SE166\SP\RHF\Aug-CC-pVDZ\C7H18O2Si1\OHZDE\08-Apr-2025\0\\#t h
 f aug-cc-pvdz iop(5/13=1,5/36=2,99/5=2) pseudo=read geom=check guess=(
 read,tcheck) scf=(maxcycle=1)\\title\\0,1\C,0,2.348467,-0.867412,1.265
 111\C,0,2.111813,-0.038257,-0.000041\H,0,3.381791,-1.223321,1.299388\H
 ,0,1.68261,-1.730399,1.285054\H,0,2.159622,-0.262819,2.155402\C,0,2.34
 6309,-0.857923,-1.27174\H,0,3.379597,-1.21349,-1.310463\H,0,2.155902,-
 0.246743,-2.157192\H,0,1.680485,-1.720793,-1.296945\C,0,2.958334,1.238
 741,0.004045\H,0,4.019223,0.97762,0.002321\H,0,2.749435,1.837148,0.893

 Normal termination of Gaussian 16 at Tue Apr  8 23:00:22 2025.
