 Gaussian 16, Revision C.01,

 ----------------------------------------------------------------------
 #t hf aug-cc-pvdz symm=none int=(grid=ultrafine) guess=(read,tcheck) s
 table=opt
 ----------------------------------------------------------------------
 -----
 title
 -----
 Symbolic Z-matrix:
 Charge =  0 Multiplicity = 2

 SCF Done:  E(UHF) =  -873.674140857     A.U. after   20 cycles
 Normal termination of Gaussian 16 at Tue Apr  8 23:53:00 2025.
 Gaussian 16:  ES64L-G16RevC.01  3-Jul-2019

 ----------------------------------------------------------------------
 #t hf aug-cc-pvdz iop(5/13=1,5/36=2,99/5=2) pseudo=read geom=check gue
 ss=(read,tcheck) scf=(maxcycle=1)
 ----------------------------------------------------------------------
 -----
 title
 -----
 Structure from the checkpoint file:  "BDE49_nonexpt_1929_mol3.chk"
 Charge =  0 Multiplicity = 2

                         Standard orientation:
 ---------------------------------------------------------------------
 Center     Atomic      Atomic             Coordinates (Angstroms)
 Number     Number       Type             X           Y           Z
 ---------------------------------------------------------------------
      1          6           0       -1.777186    0.823950    0.446406
      2         16           0       -1.015466   -0.425253   -0.442795
      3         16           0        0.911110   -0.570152    0.400999
      4          6           0        1.765977    0.867322   -0.340680
      5          1           0        2.767649    0.875976    0.095521
      6          1           0        1.251237    1.791324   -0.080652
      7          1           0        1.839279    0.758285   -1.421834
      8          1           0       -1.579168    0.955203    1.501304
      9          1           0       -2.542042    1.398056   -0.059963
 ---------------------------------------------------------------------

 SCF Done:  E(UHF) =  -873.880538134     A.U. after    2 cycles

 The electronic state is 2-A.
 Alpha  occ. eigenvalues --  -93.98297 -93.97464 -11.27704 -11.27472  -8.26250
 Alpha  occ. eigenvalues --   -8.25374  -6.24035  -6.23768  -6.23753  -6.23214
 Alpha  occ. eigenvalues --   -6.22960  -6.22725  -1.12700  -1.03939  -0.91310
 Alpha  occ. eigenvalues --   -0.81388  -0.63879  -0.61156  -0.60570  -0.56668
 Alpha  occ. eigenvalues --   -0.51169  -0.50045  -0.42462  -0.37390  -0.32409
 Alpha virt. eigenvalues --    0.03548   0.04151   0.04768   0.05981   0.06402
 Alpha virt. eigenvalues --    0.07958   0.08738   0.12277   0.12519   0.13364
 Alpha virt. eigenvalues --    0.14348   0.15120   0.15952   0.16196   0.16515

  Beta  occ. eigenvalues --  -93.98272 -93.97423 -11.27442 -11.25309  -8.26217
  Beta  occ. eigenvalues --   -8.25318  -6.24114  -6.23925  -6.23394  -6.23086
  Beta  occ. eigenvalues --   -6.22928  -6.22694  -1.11155  -1.01845  -0.88322
  Beta  occ. eigenvalues --   -0.78351  -0.62549  -0.60863  -0.60148  -0.55348
  Beta  occ. eigenvalues --   -0.50406  -0.46005  -0.38646  -0.36446
  Beta virt. eigenvalues --    0.03589   0.04225   0.04801   0.05546   0.06413
  Beta virt. eigenvalues --    0.06539   0.08455   0.10145   0.12596   0.12780
  Beta virt. eigenvalues --    0.13520   0.14517   0.15584   0.15978   0.16424

 Mulliken charges and spin densities:
               1          2
     1  C   -0.391094   1.232628
     2  S    0.233256  -0.053753
     3  S    0.099740   0.012935
     4  C   -0.680838   0.010668
     5  H    0.186786  -0.000480
     6  H    0.206083  -0.004255
     7  H    0.211072  -0.000655
     8  H    0.050599  -0.094409
     9  H    0.084396  -0.102679
 Sum of Mulliken charges =  -0.00000   1.00000

 Dipole moment (field-independent basis, Debye):
    X=              0.4312    Y=              2.1227    Z=              0.0071  Tot=              2.1661
                          Isotropic Fermi Contact Couplings
        Atom                 a.u.       MegaHertz       Gauss      10(-4) cm-1
     1  C(13)              0.20551     231.03538      82.43917      77.06511
     2  S(33)              0.04227      14.52021       5.18117       4.84342
     3  S(33)              0.05160      17.72303       6.32402       5.91176
     4  C(13)              0.00305       3.42682       1.22277       1.14306
     5  H(1)               0.00095       4.26089       1.52039       1.42128
     6  H(1)              -0.00036      -1.59424      -0.56887      -0.53178
     7  H(1)              -0.00029      -1.28602      -0.45888      -0.42897
     8  H(1)              -0.02181     -97.50620     -34.79264     -32.52457

 Normal termination of Gaussian 16 at Tue Apr  8 23:53:03 2025.
