 Gaussian 16, Revision C.01,

 ----------------------------------------------------------------------
 #t hf aug-cc-pvdz symm=none int=(grid=ultrafine) guess=(read,tcheck) s
 table=opt
 ----------------------------------------------------------------------
 -----
 title
 -----
 Symbolic Z-matrix:
 Charge =  0 Multiplicity = 2

 SCF Done:  E(UHF) =  -181.919728197     A.U. after   18 cycles

 1\1\GINC-SE127\Stability\UHF\Aug-CC-pVDZ\C4H10B1\OHZDE\09-Apr-2025\0\\
 #t hf aug-cc-pvdz symm=none int=(grid=ultrafine) guess=(read,tcheck) s
 table=opt\\title\\0,2\H,0,-0.360922,2.600062,-0.39117\B,0,-0.940707,1.
 559449,-0.470886\C,0,-0.675355,0.256264,0.312812\C,0,0.805447,0.021396
 ,0.716429\C,0,-1.372931,-1.018312,-0.20223\H,0,-0.94993,-1.345745,-1.1
 55134\H,0,-2.43841,-0.843122,-0.365121\H,0,-1.266457,-1.84357,0.509664
 \H,0,-1.205943,0.560986,1.244941\C,0,1.73602,-0.261555,-0.468035\H,0,0
 .853219,-0.817486,1.422276\H,0,1.169565,0.901631,1.255406\H,0,1.437682

 Normal termination of Gaussian 16 at Wed Apr  9 00:36:16 2025.
 Gaussian 16:  ES64L-G16RevC.01  3-Jul-2019

 ----------------------------------------------------------------------
 #t hf aug-cc-pvdz iop(5/13=1,5/36=2,99/5=2) pseudo=read geom=check gue
 ss=(read,tcheck) scf=(maxcycle=1)
 ----------------------------------------------------------------------
 -----
 title
 -----
 Structure from the checkpoint file:  "BDE49_nonexpt_470_mol2.chk"
 Charge =  0 Multiplicity = 2

                         Standard orientation:
 ---------------------------------------------------------------------
 Center     Atomic      Atomic             Coordinates (Angstroms)
 Number     Number       Type             X           Y           Z
 ---------------------------------------------------------------------
      1          1           0       -0.360922    2.600062   -0.391170
      2          5           0       -0.940707    1.559449   -0.470886
      3          6           0       -0.675355    0.256264    0.312812
      4          6           0        0.805447    0.021396    0.716429
      5          6           0       -1.372931   -1.018312   -0.202230
      6          1           0       -0.949930   -1.345745   -1.155134
      7          1           0       -2.438410   -0.843122   -0.365121
      8          1           0       -1.266457   -1.843570    0.509664
      9          1           0       -1.205943    0.560986    1.244941
     10          6           0        1.736020   -0.261555   -0.468035
     11          1           0        0.853219   -0.817486    1.422276
     12          1           0        1.169565    0.901631    1.255406
     13          1           0        1.437682   -1.159453   -1.015318
     14          1           0        2.764716   -0.411765   -0.129478
     15          1           0        1.740932    0.574463   -1.175487
 ---------------------------------------------------------------------

 SCF Done:  E(UHF) =  -182.120572015     A.U. after    2 cycles

 The electronic state is 2-A.
 Alpha  occ. eigenvalues --  -11.23447 -11.22608 -11.22568 -11.22242  -7.61165
 Alpha  occ. eigenvalues --   -1.07950  -0.98417  -0.88534  -0.80451  -0.66603
 Alpha  occ. eigenvalues --   -0.63072  -0.60592  -0.58517  -0.54581  -0.54233
 Alpha  occ. eigenvalues --   -0.51321  -0.47891  -0.47475  -0.45441  -0.32212
 Alpha virt. eigenvalues --    0.03302   0.03578   0.03890   0.04045   0.05588
 Alpha virt. eigenvalues --    0.06259   0.06445   0.06633   0.06871   0.09329
 Alpha virt. eigenvalues --    0.09829   0.10145   0.10575   0.11972   0.13749

  Beta  occ. eigenvalues --  -11.23342 -11.22616 -11.22508 -11.22259  -7.59410
  Beta  occ. eigenvalues --   -1.07605  -0.98234  -0.88190  -0.79543  -0.64622
  Beta  occ. eigenvalues --   -0.63001  -0.58927  -0.57771  -0.54542  -0.53896
  Beta  occ. eigenvalues --   -0.50885  -0.47522  -0.47001  -0.44625
  Beta virt. eigenvalues --    0.03329   0.03455   0.03674   0.04053   0.05895
  Beta virt. eigenvalues --    0.06225   0.06468   0.06725   0.06930   0.09323
  Beta virt. eigenvalues --    0.09782   0.10129   0.10613   0.11717   0.12162

 Mulliken charges and spin densities:
               1          2
     1  H    0.455618   0.017644
     2  B   -0.632003   1.026687
     3  C   -0.196471  -0.099308
     4  C   -0.289259   0.026186
     5  C   -0.347187   0.040702
     6  H    0.164751   0.002323
     7  H    0.097813   0.000454
     8  H    0.164594   0.001337
     9  H    0.275498  -0.022667
    10  C   -0.356672   0.003718
    11  H    0.134050   0.004600
    12  H    0.098745  -0.001010
    13  H    0.153963  -0.000920
    14  H    0.114685   0.000408
    15  H    0.161877  -0.000155
 Sum of Mulliken charges =  -0.00000   1.00000

 Dipole moment (field-independent basis, Debye):
    X=              0.5638    Y=             -0.5501    Z=              0.7575  Tot=              1.0929
                          Isotropic Fermi Contact Couplings
        Atom                 a.u.       MegaHertz       Gauss      10(-4) cm-1
     1  H(1)               0.00627      28.03792      10.00463       9.35244
     2  B(11)              0.24558     352.25754     125.69425     117.50047
     3  C(13)              0.00352       3.95403       1.41090       1.31892
     4  C(13)              0.02510      28.21295      10.06708       9.41083
     5  C(13)              0.01755      19.72477       7.03829       6.57947
     6  H(1)              -0.00035      -1.57639      -0.56250      -0.52583
     7  H(1)              -0.00032      -1.41767      -0.50586      -0.47288
     8  H(1)              -0.00006      -0.27415      -0.09782      -0.09145

 Normal termination of Gaussian 16 at Wed Apr  9 00:36:21 2025.
