 Gaussian 16, Revision C.01,

 ----------------------------------------------------------------------
 #t hf aug-cc-pvdz symm=none int=(grid=ultrafine) guess=(read,tcheck) s
 table=(opt,rrhf)
 ----------------------------------------------------------------------
 -----
 title
 -----
 Symbolic Z-matrix:
 Charge =  0 Multiplicity = 1

 SCF Done:  E(RHF) =  -879.597350799     A.U. after   14 cycles
 Normal termination of Gaussian 16 at Tue Apr  8 23:53:43 2025.
 Gaussian 16:  ES64L-G16RevC.01  3-Jul-2019

 ----------------------------------------------------------------------
 #t hf aug-cc-pvdz iop(5/13=1,5/36=2,99/5=2) pseudo=read geom=check gue
 ss=(read,tcheck) scf=(maxcycle=1)
 ----------------------------------------------------------------------
 -----
 title
 -----
 Structure from the checkpoint file:  "BDE49_nonexpt_1947_mol1.chk"
 Charge =  0 Multiplicity = 1

                         Standard orientation:
 ---------------------------------------------------------------------
 Center     Atomic      Atomic             Coordinates (Angstroms)
 Number     Number       Type             X           Y           Z
 ---------------------------------------------------------------------
      1         14           0       -2.332447   -0.213220   -0.364727
      2          6           0       -0.976802    0.093516    0.940327
      3          6           0        0.397555    0.117245    0.350715
      4         16           0        1.172037    1.471949   -0.173478
      5          8           0        0.886097   -1.124616    0.276306
      6          6           0        2.185071   -1.343500   -0.299731
      7          1           0        2.341827   -2.418220   -0.237081
      8          1           0        2.945470   -0.803561    0.266066
      9          1           0        2.202101   -1.005436   -1.336695
     10          1           0       -3.634702   -0.286126    0.337486
     11          1           0       -2.081164   -1.492172   -1.064914
     12          1           0       -2.357886    0.894479   -1.342557
     13          1           0       -1.047848   -0.710016    1.679874
     14          1           0       -1.189853    1.048307    1.421339
 ---------------------------------------------------------------------

 SCF Done:  E(RHF) =  -879.887936190     A.U. after    2 cycles

 The electronic state is 1-A.
 Alpha  occ. eigenvalues --  -93.91243 -69.54263 -20.61121 -11.38920 -11.30490
 Alpha  occ. eigenvalues --  -11.25061  -8.19563  -6.21299  -6.17418  -6.17145
 Alpha  occ. eigenvalues --   -6.16998  -3.96681  -3.96666  -3.96653  -1.53818
 Alpha  occ. eigenvalues --   -1.09700  -0.99514  -0.95698  -0.78359  -0.74208
 Alpha  occ. eigenvalues --   -0.68651  -0.67024  -0.65229  -0.58170  -0.57286
 Alpha  occ. eigenvalues --   -0.54515  -0.50374  -0.49198  -0.48652  -0.47323
 Alpha  occ. eigenvalues --   -0.37094  -0.34970
 Alpha virt. eigenvalues --    0.03291   0.03789   0.04134   0.04772   0.06009
 Alpha virt. eigenvalues --    0.06054   0.07001   0.07671   0.08352   0.09054
 Alpha virt. eigenvalues --    0.09296   0.10106   0.10686   0.11416   0.13764

 Mulliken charges:
               1
     1  Si   0.994985
     2  C   -0.924340
     3  C    0.960786
     4  S   -0.084422
     5  O   -1.419814
     6  C    0.286740
     7  H    0.002385
     8  H    0.189764
     9  H    0.185337
    10  H   -0.185378
    11  H   -0.156008
    12  H   -0.147327
    13  H    0.134436
    14  H    0.162857
 Sum of Mulliken charges =   0.00000

 Dipole moment (field-independent basis, Debye):
    X=             -0.4616    Y=             -2.5914    Z=              0.6629  Tot=              2.7144

 Test job not archived.
 1\1\GINC-SE080\SP\RHF\Aug-CC-pVDZ\C3H8O1S1Si1\OHZDE\08-Apr-2025\0\\#t
 hf aug-cc-pvdz iop(5/13=1,5/36=2,99/5=2) pseudo=read geom=check guess=
 (read,tcheck) scf=(maxcycle=1)\\title\\0,1\Si,0,-2.332447,-0.21322,-0.
 364727\C,0,-0.976802,0.093516,0.940327\C,0,0.397555,0.117245,0.350715\
 S,0,1.172037,1.471949,-0.173478\O,0,0.886097,-1.124616,0.276306\C,0,2.
 185071,-1.3435,-0.299731\H,0,2.341827,-2.41822,-0.237081\H,0,2.94547,-
 0.803561,0.266066\H,0,2.202101,-1.005436,-1.336695\H,0,-3.634702,-0.28
 6126,0.337486\H,0,-2.081164,-1.492172,-1.064914\H,0,-2.357886,0.894479

 Normal termination of Gaussian 16 at Tue Apr  8 23:53:47 2025.
