 Gaussian 16, Revision C.01,

 ----------------------------------------------------------------------
 #t hf aug-cc-pvdz symm=none int=(grid=ultrafine) guess=(read,tcheck) s
 table=(opt,rrhf)
 ----------------------------------------------------------------------
 -----
 title
 -----
 Symbolic Z-matrix:
 Charge =  0 Multiplicity = 1

 SCF Done:  E(RHF) =  -1331.43354881     A.U. after   16 cycles
 Normal termination of Gaussian 16 at Wed Apr  9 00:52:36 2025.
 Gaussian 16:  ES64L-G16RevC.01  3-Jul-2019

 ----------------------------------------------------------------------
 #t hf aug-cc-pvdz iop(5/13=1,5/36=2,99/5=2) pseudo=read geom=check gue
 ss=(read,tcheck) scf=(maxcycle=1)
 ----------------------------------------------------------------------
 -----
 title
 -----
 Structure from the checkpoint file:  "BDE49_nonexpt_944_mol1.chk"
 Charge =  0 Multiplicity = 1

                         Standard orientation:
 ---------------------------------------------------------------------
 Center     Atomic      Atomic             Coordinates (Angstroms)
 Number     Number       Type             X           Y           Z
 ---------------------------------------------------------------------
      1         17           0        2.623833   -0.888183   -0.205399
      2         17           0       -2.726794   -0.679354    0.072957
      3          8           0       -0.080347   -2.235819    0.217900
      4          8           0       -1.467410    2.128422   -0.340229
      5          7           0        1.086600   -0.206719    0.175902
      6          7           0       -1.115539   -0.152356   -0.060875
      7          6           0       -0.021750   -1.049095    0.118463
      8          6           0       -0.749773    1.175362   -0.234053
      9          6           0        0.788447    1.160762   -0.267420
     10          1           0        1.083794    1.287148   -1.316863
     11          6           0        1.410611    2.244479    0.600955
     12          1           0        1.132719    2.105173    1.647146
     13          1           0        1.054780    3.220560    0.268055
     14          1           0        2.498453    2.218874    0.518936
 ---------------------------------------------------------------------

 SCF Done:  E(RHF) =  -1331.98776860     A.U. after    2 cycles

 The electronic state is 1-A.
 Alpha  occ. eigenvalues -- -105.64024-105.63594 -20.56978 -20.56394 -15.62823
 Alpha  occ. eigenvalues --  -15.61481 -11.44299 -11.41528 -11.34036 -11.26682
 Alpha  occ. eigenvalues --  -10.68409 -10.68003  -7.85418  -7.84987  -7.84859
 Alpha  occ. eigenvalues --   -7.84828  -7.84479  -7.84441  -1.53073  -1.51785
 Alpha  occ. eigenvalues --   -1.37152  -1.28683  -1.12881  -1.08644  -1.04284
 Alpha  occ. eigenvalues --   -0.95915  -0.89079  -0.83956  -0.76181  -0.73554
 Alpha  occ. eigenvalues --   -0.70402  -0.69145  -0.66964  -0.66792  -0.64095
 Alpha  occ. eigenvalues --   -0.60820  -0.58440  -0.57424  -0.53620  -0.53453
 Alpha  occ. eigenvalues --   -0.51967  -0.51046  -0.50048  -0.46608  -0.45415
 Alpha  occ. eigenvalues --   -0.44211
 Alpha virt. eigenvalues --    0.03095   0.04007   0.04443   0.04838   0.05756
 Alpha virt. eigenvalues --    0.06774   0.08689   0.09086   0.09794   0.10465
 Alpha virt. eigenvalues --    0.11244   0.11318   0.12145   0.12735   0.13281

 Mulliken charges:
               1
     1  Cl   0.141335
     2  Cl   0.224850
     3  O   -1.109650
     4  O   -1.249879
     5  N    0.632761
     6  N    0.616133
     7  C    0.401235
     8  C    0.572020
     9  C   -1.026469
    10  H    0.190158
    11  C   -0.014944
    12  H    0.265892
    13  H    0.195655
    14  H    0.160903
 Sum of Mulliken charges =  -0.00000

 Dipole moment (field-independent basis, Debye):
    X=              2.1728    Y=              1.9156    Z=             -0.4080  Tot=              2.9252

 Test job not archived.
 1\1\GINC-SE179\SP\RHF\Aug-CC-pVDZ\C4H4Cl2N2O2\OHZDE\09-Apr-2025\0\\#t
 hf aug-cc-pvdz iop(5/13=1,5/36=2,99/5=2) pseudo=read geom=check guess=
 (read,tcheck) scf=(maxcycle=1)\\title\\0,1\Cl,0,2.623833,-0.888183,-0.
 205399\Cl,0,-2.726794,-0.679354,0.072957\O,0,-0.080347,-2.235819,0.217
 9\O,0,-1.46741,2.128422,-0.340229\N,0,1.0866,-0.206719,0.175902\N,0,-1
 .115539,-0.152356,-0.060875\C,0,-0.02175,-1.049095,0.118463\C,0,-0.749
 773,1.175362,-0.234053\C,0,0.788447,1.160762,-0.26742\H,0,1.083794,1.2
 87148,-1.316863\C,0,1.410611,2.244479,0.600955\H,0,1.132719,2.105173,1

 Normal termination of Gaussian 16 at Wed Apr  9 00:52:44 2025.
