 Gaussian 16, Revision C.01,

 ----------------------------------------------------------------------
 #t hf aug-cc-pvdz symm=none int=(grid=ultrafine) guess=(read,tcheck) s
 table=(opt,rrhf)
 ----------------------------------------------------------------------
 -----
 title
 -----
 Symbolic Z-matrix:
 Charge =  0 Multiplicity = 1

 SCF Done:  E(RHF) =  -559.786663731     A.U. after   16 cycles
 Normal termination of Gaussian 16 at Wed Apr  9 00:42:27 2025.
 Gaussian 16:  ES64L-G16RevC.01  3-Jul-2019

 ----------------------------------------------------------------------
 #t hf aug-cc-pvdz iop(5/13=1,5/36=2,99/5=2) pseudo=read geom=check gue
 ss=(read,tcheck) scf=(maxcycle=1)
 ----------------------------------------------------------------------
 -----
 title
 -----
 Structure from the checkpoint file:  "BDE49_nonexpt_665_mol1.chk"
 Charge =  0 Multiplicity = 1

                         Standard orientation:
 ---------------------------------------------------------------------
 Center     Atomic      Atomic             Coordinates (Angstroms)
 Number     Number       Type             X           Y           Z
 ---------------------------------------------------------------------
      1          9           0       -2.180357    1.843746   -0.029829
      2          7           0       -3.314270   -0.619298   -0.061105
      3          1           0       -3.705571   -1.473721    0.303315
      4          1           0       -3.833047    0.208294    0.190399
      5          5           0        2.436944    0.084202    0.003617
      6          8           0        2.906253    1.366881    0.072527
      7          1           0        3.868459    1.393384    0.054989
      8          6           0       -1.339548    0.769544   -0.019677
      9          8           0        3.371190   -0.921317   -0.063177
     10          1           0        2.995508   -1.800897   -0.142866
     11          6           0       -1.937242   -0.499237   -0.000096
     12          6           0       -1.071297   -1.601635    0.026059
     13          1           0       -1.492756   -2.601467    0.040408
     14          6           0        0.306343   -1.419418    0.027637
     15          1           0        0.928721   -2.310136    0.055431
     16          6           0        0.894098   -0.145974    0.003492
     17          6           0        0.021897    0.958605   -0.016126
     18          1           0        0.412014    1.969089   -0.026104
 ---------------------------------------------------------------------

 SCF Done:  E(RHF) =  -560.342103135     A.U. after    2 cycles

 The electronic state is 1-A.
 Alpha  occ. eigenvalues --  -26.47402 -20.55831 -20.54927 -15.52364 -11.32387
 Alpha  occ. eigenvalues --  -11.30473 -11.25979 -11.25483 -11.24784 -11.22218
 Alpha  occ. eigenvalues --   -7.63945  -1.59926  -1.47874  -1.43503  -1.24101
 Alpha  occ. eigenvalues --   -1.14532  -1.02680  -1.00825  -0.87020  -0.85256
 Alpha  occ. eigenvalues --   -0.77299  -0.75849  -0.74809  -0.72964  -0.69908
 Alpha  occ. eigenvalues --   -0.67207  -0.66851  -0.65480  -0.62090  -0.59362
 Alpha  occ. eigenvalues --   -0.58179  -0.57149  -0.55958  -0.55416  -0.52604
 Alpha  occ. eigenvalues --   -0.49301  -0.48992  -0.48081  -0.35570  -0.32353
 Alpha virt. eigenvalues --    0.02691   0.03221   0.04302   0.05097   0.05146
 Alpha virt. eigenvalues --    0.05791   0.07363   0.07798   0.08290   0.08903
 Alpha virt. eigenvalues --    0.10213   0.10500   0.10699   0.12454   0.12985

 Mulliken charges:
               1
     1  F   -1.112620
     2  N    0.819477
     3  H    0.015666
     4  H    0.049576
     5  B    1.345888
     6  O   -1.374966
     7  H    0.512543
     8  C    2.160912
     9  O   -1.541355
    10  H    0.639466
    11  C   -2.180198
    12  C    0.976756
    13  H   -0.280270
    14  C    0.194031
    15  H   -0.413062
    16  C    0.618004
    17  C   -0.142752
    18  H   -0.287098
 Sum of Mulliken charges =  -0.00000

 Dipole moment (field-independent basis, Debye):
    X=             -0.7927    Y=             -2.6736    Z=              0.8139  Tot=              2.9050

 Test job not archived.
 1\1\GINC-SE212\SP\RHF\Aug-CC-pVDZ\C6H7B1F1N1O2\OHZDE\09-Apr-2025\0\\#t
  hf aug-cc-pvdz iop(5/13=1,5/36=2,99/5=2) pseudo=read geom=check guess
 =(read,tcheck) scf=(maxcycle=1)\\title\\0,1\F,0,-2.180357,1.843746,-0.
 029829\N,0,-3.31427,-0.619298,-0.061105\H,0,-3.705571,-1.473721,0.3033
 15\H,0,-3.833047,0.208294,0.190399\B,0,2.436944,0.084202,0.003617\O,0,
 2.906253,1.366881,0.072527\H,0,3.868459,1.393384,0.054989\C,0,-1.33954
 8,0.769544,-0.019677\O,0,3.37119,-0.921317,-0.063177\H,0,2.995508,-1.8
 00897,-0.142866\C,0,-1.937242,-0.499237,-0.000096\C,0,-1.071297,-1.601

 Normal termination of Gaussian 16 at Wed Apr  9 00:42:37 2025.
