 Gaussian 16, Revision C.01,

 ----------------------------------------------------------------------
 #t hf aug-cc-pvdz symm=none int=(grid=ultrafine) guess=(read,tcheck) s
 table=(opt,rrhf)
 ----------------------------------------------------------------------
 -----
 title
 -----
 Symbolic Z-matrix:
 Charge =  0 Multiplicity = 1

 SCF Done:  E(RHF) =  -691.039238176     A.U. after   14 cycles
 Normal termination of Gaussian 16 at Tue Apr  8 22:57:57 2025.
 Gaussian 16:  ES64L-G16RevC.01  3-Jul-2019

 ----------------------------------------------------------------------
 #t hf aug-cc-pvdz iop(5/13=1,5/36=2,99/5=2) pseudo=read geom=check gue
 ss=(read,tcheck) scf=(maxcycle=1)
 ----------------------------------------------------------------------
 -----
 title
 -----
 Structure from the checkpoint file:  "BDE49_expt_1925_mol1.chk"
 Charge =  0 Multiplicity = 1

                         Standard orientation:
 ---------------------------------------------------------------------
 Center     Atomic      Atomic             Coordinates (Angstroms)
 Number     Number       Type             X           Y           Z
 ---------------------------------------------------------------------
      1          8           0       -0.398911   -0.000001   -0.859844
      2         17           0       -1.951878    0.000000   -0.063735
      3          6           0        0.752547    0.000000    0.041493
      4          6           0        1.892615   -0.000001   -0.985962
      5          1           0        1.838645   -0.886701   -1.619866
      6          1           0        2.852318   -0.000001   -0.463450
      7          1           0        1.838645    0.886699   -1.619868
      8          6           0        0.773301    1.269727    0.891589
      9          1           0        0.714564    2.154538    0.254323
     10          1           0        1.697695    1.318769    1.472764
     11          1           0       -0.065742    1.289485    1.589494
     12          6           0        0.773301   -1.269726    0.891591
     13          1           0        0.714563   -2.154538    0.254325
     14          1           0       -0.065743   -1.289483    1.589496
     15          1           0        1.697695   -1.318768    1.472766
 ---------------------------------------------------------------------

 SCF Done:  E(RHF) =  -691.361310373     A.U. after    2 cycles

 The electronic state is 1-A.
 Alpha  occ. eigenvalues -- -105.60511 -20.61513 -11.31278 -11.23654 -11.23350
 Alpha  occ. eigenvalues --  -11.23321 -10.64750  -7.81726  -7.81227  -7.81200
 Alpha  occ. eigenvalues --   -1.46262  -1.09547  -1.00804  -0.95431  -0.94847
 Alpha  occ. eigenvalues --   -0.77230  -0.66219  -0.65152  -0.64356  -0.58653
 Alpha  occ. eigenvalues --   -0.58309  -0.54896  -0.53867  -0.53421  -0.53386
 Alpha  occ. eigenvalues --   -0.49551  -0.48654  -0.45205  -0.42374
 Alpha virt. eigenvalues --    0.03564   0.04081   0.04132   0.04974   0.06576
 Alpha virt. eigenvalues --    0.06585   0.07116   0.07455   0.08703   0.09691
 Alpha virt. eigenvalues --    0.10349   0.13376   0.14486   0.14583   0.15541

 Mulliken charges:
               1
     1  O   -1.303699
     2  Cl   0.201899
     3  C   -0.937933
     4  C   -0.064142
     5  H    0.176493
     6  H    0.251334
     7  H    0.176496
     8  C    0.102847
     9  H    0.230832
    10  H    0.245417
    11  H    0.170681
    12  C    0.102842
    13  H    0.230834
    14  H    0.170683
    15  H    0.245416
 Sum of Mulliken charges =  -0.00000

 Dipole moment (field-independent basis, Debye):
    X=              2.1163    Y=              0.0000    Z=              1.0825  Tot=              2.3771

 Test job not archived.
 1\1\GINC-SE368\SP\RHF\Aug-CC-pVDZ\C4H9Cl1O1\OHZDE\08-Apr-2025\0\\#t hf
  aug-cc-pvdz iop(5/13=1,5/36=2,99/5=2) pseudo=read geom=check guess=(r
 ead,tcheck) scf=(maxcycle=1)\\title\\0,1\O,0,0.398911,0.000001,-0.8598
 44\Cl,0,1.951878,0.,-0.063735\C,0,-0.752547,0.,0.041493\C,0,-1.892615,
 0.000001,-0.985962\H,0,-1.838645,0.886701,-1.619866\H,0,-2.852318,0.00
 0001,-0.46345\H,0,-1.838645,-0.886699,-1.619868\C,0,-0.773301,-1.26972
 7,0.891589\H,0,-0.714564,-2.154538,0.254323\H,0,-1.697695,-1.318769,1.
 472764\H,0,0.065742,-1.289485,1.589494\C,0,-0.773301,1.269726,0.891591

 Normal termination of Gaussian 16 at Tue Apr  8 22:58:01 2025.
