 Gaussian 16, Revision C.01,

 ----------------------------------------------------------------------
 #t hf aug-cc-pvdz symm=none int=(grid=ultrafine) guess=(read,tcheck) s
 table=(opt,rrhf)
 ----------------------------------------------------------------------
 -----
 title
 -----
 Symbolic Z-matrix:
 Charge =  0 Multiplicity = 1

 SCF Done:  E(RHF) =  -341.292756012     A.U. after   17 cycles
 Normal termination of Gaussian 16 at Tue Apr  8 23:20:51 2025.
 Gaussian 16:  ES64L-G16RevC.01  3-Jul-2019

 ----------------------------------------------------------------------
 #t hf aug-cc-pvdz iop(5/13=1,5/36=2,99/5=2) pseudo=read geom=check gue
 ss=(read,tcheck) scf=(maxcycle=1)
 ----------------------------------------------------------------------
 -----
 title
 -----
 Structure from the checkpoint file:  "BDE49_nonexpt_1157_mol1.chk"
 Charge =  0 Multiplicity = 1

                         Standard orientation:
 ---------------------------------------------------------------------
 Center     Atomic      Atomic             Coordinates (Angstroms)
 Number     Number       Type             X           Y           Z
 ---------------------------------------------------------------------
      1          9           0       -1.585653    0.813969    0.080553
      2          8           0       -1.153571   -0.589252   -0.254969
      3          6           0        1.062171   -0.099111   -0.015289
      4          8           0        2.087428    0.427648   -0.073516
      5          7           0        0.061000   -0.776889    0.284948
 ---------------------------------------------------------------------

 SCF Done:  E(RHF) =  -341.612128289     A.U. after    2 cycles

 The electronic state is 1-A.
 Alpha  occ. eigenvalues --  -26.52404 -20.76192 -20.67660 -15.62394 -11.48070
 Alpha  occ. eigenvalues --   -1.68154  -1.61989  -1.47225  -1.24320  -0.85756
 Alpha  occ. eigenvalues --   -0.79594  -0.76531  -0.75202  -0.68735  -0.66915
 Alpha  occ. eigenvalues --   -0.63006  -0.60962  -0.53487  -0.48673
 Alpha virt. eigenvalues --    0.04258   0.05831   0.08400   0.08974   0.09068
 Alpha virt. eigenvalues --    0.11333   0.14523   0.17115   0.17728   0.18547
 Alpha virt. eigenvalues --    0.22517   0.23045   0.23484   0.24736   0.25765

 Mulliken charges:
               1
     1  F   -0.340325
     2  O   -0.523009
     3  C    0.439601
     4  O   -0.629849
     5  N    1.053581
 Sum of Mulliken charges =  -0.00000

 Dipole moment (field-independent basis, Debye):
    X=              1.2759    Y=              0.0187    Z=             -0.7047  Tot=              1.4577

 Test job not archived.
 1\1\GINC-SE393\SP\RHF\Aug-CC-pVDZ\C1F1N1O2\OHZDE\08-Apr-2025\0\\#t hf
 aug-cc-pvdz iop(5/13=1,5/36=2,99/5=2) pseudo=read geom=check guess=(re
 ad,tcheck) scf=(maxcycle=1)\\title\\0,1\F,0,-1.585653,0.813969,0.08055
 3\O,0,-1.153571,-0.589252,-0.254969\C,0,1.062171,-0.099111,-0.015289\O
 ,0,2.087428,0.427648,-0.073516\N,0,0.061,-0.776889,0.284948\\Version=E
 S64L-G16RevC.01\State=1-A\HF=-341.6121283\RMSD=1.254e-02\Dipole=0.5019
 811,0.007373,-0.2772645\Quadrupole=-0.8262164,0.0168769,0.8093395,-0.2
 147347,0.1331256,0.4998148\PG=C01 [X(C1F1N1O2)]\\@

 Normal termination of Gaussian 16 at Tue Apr  8 23:20:52 2025.
