 Gaussian 16, Revision C.01,

 ----------------------------------------------------------------------
 #t hf aug-cc-pvdz symm=none int=(grid=ultrafine) guess=(read,tcheck) s
 table=(opt,rrhf)
 ----------------------------------------------------------------------
 -----
 title
 -----
 Symbolic Z-matrix:
 Charge =  0 Multiplicity = 1

 SCF Done:  E(RHF) =  -373.082803180     A.U. after   15 cycles

 1\1\GINC-SE083\Stability\RHF\Aug-CC-pVDZ\C9H13B1\OHZDE\09-Apr-2025\0\\
 #t hf aug-cc-pvdz symm=none int=(grid=ultrafine) guess=(read,tcheck) s
 table=(opt,rrhf)\\title\\0,1\C,0,0.017198,0.003389,-0.017814\C,0,-0.71
 1059,1.207938,-0.036745\C,0,-2.10079,1.212008,-0.088387\C,0,-2.809209,
 0.012657,-0.102465\C,0,-2.11178,-1.191087,-0.059226\C,0,-0.720984,-1.1
 9577,-0.0109\B,0,1.483752,-0.172637,1.633805\H,0,-2.631545,2.157161,-0
 .117358\H,0,-3.892534,0.017051,-0.143054\H,0,-2.649571,-2.132604,-0.06
 3191\H,0,-0.204154,-2.145527,0.021959\H,0,-0.187694,2.154317,-0.026824

 Normal termination of Gaussian 16 at Wed Apr  9 00:32:41 2025.
 Gaussian 16:  ES64L-G16RevC.01  3-Jul-2019

 ----------------------------------------------------------------------
 #t hf aug-cc-pvdz iop(5/13=1,5/36=2,99/5=2) pseudo=read geom=check gue
 ss=(read,tcheck) scf=(maxcycle=1)
 ----------------------------------------------------------------------
 -----
 title
 -----
 Structure from the checkpoint file:  "BDE49_nonexpt_347_mol1.chk"
 Charge =  0 Multiplicity = 1

                         Standard orientation:
 ---------------------------------------------------------------------
 Center     Atomic      Atomic             Coordinates (Angstroms)
 Number     Number       Type             X           Y           Z
 ---------------------------------------------------------------------
      1          6           0        0.017198    0.003389   -0.017814
      2          6           0       -0.711059    1.207938   -0.036745
      3          6           0       -2.100790    1.212008   -0.088387
      4          6           0       -2.809209    0.012657   -0.102465
      5          6           0       -2.111780   -1.191087   -0.059226
      6          6           0       -0.720984   -1.195770   -0.010900
      7          5           0        1.483752   -0.172637    1.633805
      8          1           0       -2.631545    2.157161   -0.117358
      9          1           0       -3.892534    0.017051   -0.143054
     10          1           0       -2.649571   -2.132604   -0.063191
     11          1           0       -0.204154   -2.145527    0.021959
     12          1           0       -0.187694    2.154317   -0.026824
     13          6           0        1.560667   -0.011230    0.073557
     14          6           0        2.201531    1.300932   -0.411002
     15          1           0        1.901360    2.163032    0.186904
     16          1           0        1.957095    1.505668   -1.459499
     17          1           0        3.289597    1.225822   -0.333203
     18          6           0        2.186499   -1.195044   -0.687609
     19          1           0        1.959954   -1.144519   -1.758332
     20          1           0        1.853401   -2.163918   -0.313591
     21          1           0        3.274198   -1.169844   -0.575678
     22          1           0        1.405268    0.792303    2.330841
     23          1           0        1.433433   -1.258514    2.125545
 ---------------------------------------------------------------------

 SCF Done:  E(RHF) =  -373.478970591     A.U. after    2 cycles

 The electronic state is 1-A.
 Alpha  occ. eigenvalues --  -11.25744 -11.24664 -11.24639 -11.24572 -11.24501
 Alpha  occ. eigenvalues --  -11.24481 -11.22795 -11.22545 -11.22514  -7.58693
 Alpha  occ. eigenvalues --   -1.16421  -1.08576  -1.02056  -0.99823  -0.93369
 Alpha  occ. eigenvalues --   -0.86621  -0.83390  -0.78972  -0.71383  -0.68426
 Alpha  occ. eigenvalues --   -0.65051  -0.63575  -0.61735  -0.60360  -0.58340
 Alpha  occ. eigenvalues --   -0.56579  -0.54053  -0.53643  -0.52071  -0.51954
 Alpha  occ. eigenvalues --   -0.49090  -0.48707  -0.45807  -0.43240  -0.34860
 Alpha  occ. eigenvalues --   -0.33678
 Alpha virt. eigenvalues --    0.02949   0.03284   0.03300   0.04290   0.04575
 Alpha virt. eigenvalues --    0.04868   0.05625   0.05891   0.06764   0.07429
 Alpha virt. eigenvalues --    0.07676   0.08038   0.09560   0.09733   0.10613

 Mulliken charges:
               1
     1  C    1.632524
     2  C    0.079408
     3  C   -0.032524
     4  C    0.131495
     5  C   -0.053741
     6  C    0.145248
     7  B   -0.849411
     8  H   -0.259084
     9  H   -0.222155
    10  H   -0.262984
    11  H   -0.370010
    12  H   -0.368103
    13  C   -1.133182
    14  C   -0.040543
    15  H    0.158681
    16  H    0.253484
    17  H    0.071965
    18  C   -0.164931
    19  H    0.223842
    20  H    0.122075
    21  H    0.130594
    22  H    0.429633
    23  H    0.377719
 Sum of Mulliken charges =  -0.00000

 Dipole moment (field-independent basis, Debye):
    X=             -0.2876    Y=              0.0658    Z=             -0.6392  Tot=              0.7040

 Test job not archived.
 1\1\GINC-SE083\SP\RHF\Aug-CC-pVDZ\C9H13B1\OHZDE\09-Apr-2025\0\\#t hf a
 ug-cc-pvdz iop(5/13=1,5/36=2,99/5=2) pseudo=read geom=check guess=(rea
 d,tcheck) scf=(maxcycle=1)\\title\\0,1\C,0,0.017198,0.003389,-0.017814
 \C,0,-0.711059,1.207938,-0.036745\C,0,-2.10079,1.212008,-0.088387\C,0,
 -2.809209,0.012657,-0.102465\C,0,-2.11178,-1.191087,-0.059226\C,0,-0.7
 20984,-1.19577,-0.0109\B,0,1.483752,-0.172637,1.633805\H,0,-2.631545,2
 .157161,-0.117358\H,0,-3.892534,0.017051,-0.143054\H,0,-2.649571,-2.13
 2604,-0.063191\H,0,-0.204154,-2.145527,0.021959\H,0,-0.187694,2.154317

 Normal termination of Gaussian 16 at Wed Apr  9 00:33:08 2025.
