 Gaussian 16, Revision C.01,

 ----------------------------------------------------------------------
 #t hf aug-cc-pvdz symm=none int=(grid=ultrafine) guess=(read,tcheck) s
 table=opt
 ----------------------------------------------------------------------
 -----
 title
 -----
 Symbolic Z-matrix:
 Charge =  0 Multiplicity = 2

 SCF Done:  E(UHF) =  -312.185769614     A.U. after   17 cycles
 Normal termination of Gaussian 16 at Tue Apr  8 23:19:50 2025.
 Gaussian 16:  ES64L-G16RevC.01  3-Jul-2019

 ----------------------------------------------------------------------
 #t hf aug-cc-pvdz iop(5/13=1,5/36=2,99/5=2) pseudo=read geom=check gue
 ss=(read,tcheck) scf=(maxcycle=1)
 ----------------------------------------------------------------------
 -----
 title
 -----
 Structure from the checkpoint file:  "BDE49_nonexpt_1109_mol2.chk"
 Charge =  0 Multiplicity = 2

                         Standard orientation:
 ---------------------------------------------------------------------
 Center     Atomic      Atomic             Coordinates (Angstroms)
 Number     Number       Type             X           Y           Z
 ---------------------------------------------------------------------
      1          8           0       -0.760611    1.107884    0.000000
      2          6           0        0.206327    0.205653    0.000000
      3          9           0        0.206327   -0.606513    1.091013
      4          9           0        0.206327   -0.606513   -1.091013
      5          1           0        1.133052    0.820253    0.000000
 ---------------------------------------------------------------------

 SCF Done:  E(UHF) =  -312.471097663     A.U. after    2 cycles

 The electronic state is 2-A'.
 Alpha  occ. eigenvalues --  -26.50360 -26.50357 -20.68082 -11.49523  -1.69042
 Alpha  occ. eigenvalues --   -1.60378  -1.56416  -0.95633  -0.83817  -0.79362
 Alpha  occ. eigenvalues --   -0.78391  -0.69471  -0.66670  -0.64129  -0.62759
 Alpha  occ. eigenvalues --   -0.58398  -0.56678
 Alpha virt. eigenvalues --    0.03557   0.08518   0.08983   0.09009   0.15772
 Alpha virt. eigenvalues --    0.19923   0.21511   0.22176   0.24546   0.25167
 Alpha virt. eigenvalues --    0.30433   0.31400   0.31941   0.32458   0.32897

  Beta  occ. eigenvalues --  -26.50293 -26.50291 -20.64106 -11.49821  -1.67972
  Beta  occ. eigenvalues --   -1.60157  -1.43863  -0.93258  -0.80005  -0.78688
  Beta  occ. eigenvalues --   -0.76059  -0.66479  -0.64946  -0.62538  -0.57595
  Beta  occ. eigenvalues --   -0.54344
  Beta virt. eigenvalues --    0.02367   0.03832   0.08639   0.09060   0.09759
  Beta virt. eigenvalues --    0.15966   0.20039   0.22205   0.24203   0.24572
  Beta virt. eigenvalues --    0.25535   0.30775   0.31586   0.32617   0.32897

 Mulliken charges and spin densities:
               1          2
     1  O   -0.713886   1.046099
     2  C    1.908108  -0.130956
     3  F   -0.644839   0.011737
     4  F   -0.644839   0.011737
     5  H    0.095457   0.061383
 Sum of Mulliken charges =  -0.00000   1.00000

 Dipole moment (field-independent basis, Debye):
    X=              1.0906    Y=              1.0612    Z=             -0.0000  Tot=              1.5218
                          Isotropic Fermi Contact Couplings
        Atom                 a.u.       MegaHertz       Gauss      10(-4) cm-1
     1  O(17)              0.24732    -149.92579     -53.49725     -50.00986
     2  C(13)             -0.04340     -48.78582     -17.40799     -16.27320
     3  F(19)              0.00686      28.88392      10.30650       9.63464
     4  F(19)              0.00686      28.88392      10.30650       9.63464
     5  H(1)               0.02906     129.90466      46.35321      43.33153
 --------------------------------------------------------
       Center         ----  Spin Dipole Couplings  ----
                      3XX-RR        3YY-RR        3ZZ-RR

 Normal termination of Gaussian 16 at Tue Apr  8 23:19:52 2025.
