 Gaussian 16, Revision C.01,

 ----------------------------------------------------------------------
 #t hf aug-cc-pvdz symm=none int=(grid=ultrafine) guess=(read,tcheck) s
 table=(opt,rrhf)
 ----------------------------------------------------------------------
 -----
 title
 -----
 Symbolic Z-matrix:
 Charge =  0 Multiplicity = 1

 SCF Done:  E(RHF) =  -1036.13132700     A.U. after   13 cycles

 1\1\GINC-SE455\Stability\RHF\Aug-CC-pVDZ\C3H6Cl2\OHZDE\08-Apr-2025\0\\
 #t hf aug-cc-pvdz symm=none int=(grid=ultrafine) guess=(read,tcheck) s
 table=(opt,rrhf)\\title\\0,1\C,0,0.448731,1.685719,0.145654\H,0,0.6345
 78,1.736385,1.220884\H,0,-0.522757,2.139942,-0.063523\H,0,1.219059,2.2
 62314,-0.367319\C,0,0.450463,0.245938,-0.336134\C,0,-0.560691,-0.66444
 7,0.347411\Cl,0,2.096477,-0.507364,-0.020336\H,0,-0.480993,-0.606164,1
 .431432\Cl,0,-2.258782,-0.176792,-0.08362\H,0,0.327043,0.189633,-1.416
 777\H,0,-0.448774,-1.694711,0.020963\\Version=ES64L-G16RevC.01\HF=-103

 Normal termination of Gaussian 16 at Tue Apr  8 22:30:23 2025.
 Gaussian 16:  ES64L-G16RevC.01  3-Jul-2019

 ----------------------------------------------------------------------
 #t hf aug-cc-pvdz iop(5/13=1,5/36=2,99/5=2) pseudo=read geom=check gue
 ss=(read,tcheck) scf=(maxcycle=1)
 ----------------------------------------------------------------------
 -----
 title
 -----
 Structure from the checkpoint file:  "BDE49_expt_1028_mol1.chk"
 Charge =  0 Multiplicity = 1

                         Standard orientation:
 ---------------------------------------------------------------------
 Center     Atomic      Atomic             Coordinates (Angstroms)
 Number     Number       Type             X           Y           Z
 ---------------------------------------------------------------------
      1          6           0        0.448731    1.685719    0.145654
      2          1           0        0.634578    1.736385    1.220884
      3          1           0       -0.522757    2.139942   -0.063523
      4          1           0        1.219059    2.262314   -0.367319
      5          6           0        0.450463    0.245938   -0.336134
      6          6           0       -0.560691   -0.664447    0.347411
      7         17           0        2.096477   -0.507364   -0.020336
      8          1           0       -0.480993   -0.606164    1.431432
      9         17           0       -2.258782   -0.176792   -0.083620
     10          1           0        0.327043    0.189633   -1.416777
     11          1           0       -0.448774   -1.694711    0.020963
 ---------------------------------------------------------------------

 SCF Done:  E(RHF) =  -1036.41287968     A.U. after    2 cycles

 The electronic state is 1-A.
 Alpha  occ. eigenvalues -- -105.56802-105.56377 -11.33053 -11.32339 -11.25142
 Alpha  occ. eigenvalues --  -10.61595 -10.61171  -7.78531  -7.78167  -7.78154
 Alpha  occ. eigenvalues --   -7.78098  -7.77746  -7.77734  -1.16271  -1.07858
 Alpha  occ. eigenvalues --   -0.99599  -0.93356  -0.81931  -0.68609  -0.64053
 Alpha  occ. eigenvalues --   -0.62694  -0.57966  -0.55732  -0.54835  -0.51158
 Alpha  occ. eigenvalues --   -0.46950  -0.45587  -0.45435  -0.44741
 Alpha virt. eigenvalues --    0.03886   0.04262   0.04417   0.05625   0.06469
 Alpha virt. eigenvalues --    0.07087   0.08670   0.10118   0.13053   0.13288
 Alpha virt. eigenvalues --    0.14026   0.15117   0.15282   0.16088   0.16678

 Mulliken charges:
               1
     1  C   -0.179509
     2  H    0.212843
     3  H    0.231493
     4  H    0.153141
     5  C   -0.647864
     6  C   -0.272053
     7  Cl  -0.083023
     8  H    0.276328
     9  Cl  -0.077872
    10  H    0.157309
    11  H    0.229207
 Sum of Mulliken charges =  -0.00000

 Dipole moment (field-independent basis, Debye):
    X=              0.0085    Y=              0.6588    Z=              0.1294  Tot=              0.6714

 Test job not archived.
 1\1\GINC-SE455\SP\RHF\Aug-CC-pVDZ\C3H6Cl2\OHZDE\08-Apr-2025\0\\#t hf a
 ug-cc-pvdz iop(5/13=1,5/36=2,99/5=2) pseudo=read geom=check guess=(rea
 d,tcheck) scf=(maxcycle=1)\\title\\0,1\C,0,0.448731,1.685719,0.145654\
 H,0,0.634578,1.736385,1.220884\H,0,-0.522757,2.139942,-0.063523\H,0,1.
 219059,2.262314,-0.367319\C,0,0.450463,0.245938,-0.336134\C,0,-0.56069
 1,-0.664447,0.347411\Cl,0,2.096477,-0.507364,-0.020336\H,0,-0.480993,-
 0.606164,1.431432\Cl,0,-2.258782,-0.176792,-0.08362\H,0,0.327043,0.189
 633,-1.416777\H,0,-0.448774,-1.694711,0.020963\\Version=ES64L-G16RevC.

 Normal termination of Gaussian 16 at Tue Apr  8 22:30:27 2025.
