 Gaussian 16, Revision C.01,

 ----------------------------------------------------------------------
 #t hf aug-cc-pvdz symm=none int=(grid=ultrafine) guess=(read,tcheck) s
 table=opt
 ----------------------------------------------------------------------
 -----
 title
 -----
 Symbolic Z-matrix:
 Charge =  0 Multiplicity = 2

 SCF Done:  E(UHF) =  -292.761048444     A.U. after   15 cycles
 Normal termination of Gaussian 16 at Tue Apr  8 23:54:44 2025.
 Gaussian 16:  ES64L-G16RevC.01  3-Jul-2019

 ----------------------------------------------------------------------
 #t hf aug-cc-pvdz iop(5/13=1,5/36=2,99/5=2) pseudo=read geom=check gue
 ss=(read,tcheck) scf=(maxcycle=1)
 ----------------------------------------------------------------------
 -----
 title
 -----
 Structure from the checkpoint file:  "BDE49_nonexpt_1959_mol2.chk"
 Charge =  0 Multiplicity = 2

                         Standard orientation:
 ---------------------------------------------------------------------
 Center     Atomic      Atomic             Coordinates (Angstroms)
 Number     Number       Type             X           Y           Z
 ---------------------------------------------------------------------
      1          6           0        0.753121    1.813269   -0.000082
      2          5           0        0.005103    0.467784   -0.000016
      3          8           0       -1.362541    0.506116   -0.000021
      4          8           0        0.604986   -0.767449    0.000020
      5          6           0       -2.127906   -0.695263    0.000022
      6          1           0       -3.180510   -0.410254    0.000011
      7          1           0       -1.914622   -1.299746    0.886437
      8          1           0       -1.914622   -1.299811   -0.886349
      9          6           0        2.015104   -0.936320    0.000014
     10          1           0        2.218294   -2.008036    0.000048
     11          1           0        2.472130   -0.492937    0.890743
     12          1           0        2.472118   -0.492996   -0.890751
     13          1           0        1.833539    1.914795    0.000105
     14          1           0        0.206679    2.750617    0.000122
 ---------------------------------------------------------------------

 SCF Done:  E(UHF) =  -293.062346008     A.U. after    2 cycles

 The electronic state is 2-A.
 Alpha  occ. eigenvalues --  -20.54233 -20.53326 -11.29126 -11.27679 -11.23389
 Alpha  occ. eigenvalues --   -7.62413  -1.47392  -1.43409  -0.96933  -0.94498
 Alpha  occ. eigenvalues --   -0.91743  -0.72227  -0.68021  -0.64809  -0.64783
 Alpha  occ. eigenvalues --   -0.61609  -0.59431  -0.56868  -0.55149  -0.49363
 Alpha  occ. eigenvalues --   -0.48599  -0.47023  -0.44140  -0.38616
 Alpha virt. eigenvalues --    0.03507   0.04171   0.04331   0.04625   0.06266
 Alpha virt. eigenvalues --    0.06359   0.07184   0.07735   0.08707   0.09776
 Alpha virt. eigenvalues --    0.10079   0.10889   0.14306   0.14425   0.15732

  Beta  occ. eigenvalues --  -20.54142 -20.53154 -11.29131 -11.27695 -11.21343
  Beta  occ. eigenvalues --   -7.62539  -1.47118  -1.43065  -0.94756  -0.93707
  Beta  occ. eigenvalues --   -0.86268  -0.71922  -0.67822  -0.64316  -0.64212
  Beta  occ. eigenvalues --   -0.61253  -0.59274  -0.55701  -0.54194  -0.48399
  Beta  occ. eigenvalues --   -0.48060  -0.46398  -0.43041
  Beta virt. eigenvalues --    0.03550   0.03668   0.04242   0.04340   0.06287
  Beta virt. eigenvalues --    0.06371   0.06704   0.07361   0.07772   0.09520
  Beta virt. eigenvalues --    0.09840   0.10165   0.10896   0.14340   0.14808

 Mulliken charges and spin densities:
               1          2
     1  C   -0.260753   1.196582
     2  B    1.679445  -0.136491
     3  O   -1.376557   0.064907
     4  O   -1.122417   0.007952
     5  C    0.462234  -0.007079
     6  H   -0.037881   0.000271
     7  H    0.115504   0.002120
     8  H    0.115503   0.002120
     9  C    0.432962   0.002934
    10  H   -0.061632   0.000319
    11  H    0.122907  -0.000483
    12  H    0.122936  -0.000483
    13  H   -0.077776  -0.065610
    14  H   -0.114476  -0.067059
 Sum of Mulliken charges =  -0.00000   1.00000

 Dipole moment (field-independent basis, Debye):
    X=              1.3781    Y=             -0.6078    Z=              0.0003  Tot=              1.5062
                          Isotropic Fermi Contact Couplings
        Atom                 a.u.       MegaHertz       Gauss      10(-4) cm-1
     1  C(13)              0.15423     173.38679      61.86872      57.83561
     2  B(11)             -0.02583     -37.05649     -13.22268     -12.36071
     3  O(17)              0.01221      -7.40336      -2.64170      -2.46950
     4  O(17)              0.00846      -5.12811      -1.82984      -1.71055
     5  C(13)             -0.00285      -3.19873      -1.14139      -1.06698
     6  H(1)               0.00005       0.24062       0.08586       0.08026
     7  H(1)               0.00056       2.51148       0.89616       0.83774
     8  H(1)               0.00056       2.51187       0.89630       0.83787

 Normal termination of Gaussian 16 at Tue Apr  8 23:54:49 2025.
