 Gaussian 16, Revision C.01,

 ----------------------------------------------------------------------
 #t hf aug-cc-pvdz symm=none int=(grid=ultrafine) guess=(read,tcheck) s
 table=(opt,rrhf)
 ----------------------------------------------------------------------
 -----
 title
 -----
 Symbolic Z-matrix:
 Charge =  0 Multiplicity = 1

 SCF Done:  E(RHF) =  -758.503998746     A.U. after   16 cycles
 Normal termination of Gaussian 16 at Tue Apr  8 23:32:08 2025.
 Gaussian 16:  ES64L-G16RevC.01  3-Jul-2019

 ----------------------------------------------------------------------
 #t hf aug-cc-pvdz iop(5/13=1,5/36=2,99/5=2) pseudo=read geom=check gue
 ss=(read,tcheck) scf=(maxcycle=1)
 ----------------------------------------------------------------------
 -----
 title
 -----
 Structure from the checkpoint file:  "BDE49_nonexpt_1394_mol1.chk"
 Charge =  0 Multiplicity = 1

                         Standard orientation:
 ---------------------------------------------------------------------
 Center     Atomic      Atomic             Coordinates (Angstroms)
 Number     Number       Type             X           Y           Z
 ---------------------------------------------------------------------
      1          6           0       -1.478581   -1.473791   -0.005664
      2          6           0       -2.703900   -0.809896    0.007630
      3          6           0       -2.763329    0.584618    0.015881
      4          6           0       -1.589980    1.336979    0.007723
      5          6           0       -0.355039    0.690353    0.014335
      6          6           0       -0.322129   -0.708084   -0.002314
      7          1           0       -1.412387   -2.554253   -0.016600
      8          1           0       -1.638899    2.419982    0.000566
      9          1           0       -3.620328   -1.388411    0.007276
     10          1           0       -3.724326    1.084815    0.021414
     11          8           0        0.917695   -1.313324   -0.014025
     12         15           0        1.336908    1.361664   -0.108984
     13          6           0        1.975315   -0.415224   -0.005698
     14          8           0        3.104092   -0.788619    0.034508
     15          1           0        1.593880    1.598717    1.266883
 ---------------------------------------------------------------------

 SCF Done:  E(RHF) =  -758.958276217     A.U. after    2 cycles

 The electronic state is 1-A.
 Alpha  occ. eigenvalues --  -84.31349 -20.62029 -20.55886 -11.41039 -11.33503
 Alpha  occ. eigenvalues --  -11.27612 -11.27170 -11.27054 -11.26388 -11.26023
 Alpha  occ. eigenvalues --   -6.78459  -4.31392  -4.30854  -4.30302  -1.56904
 Alpha  occ. eigenvalues --   -1.48630  -1.17961  -1.06240  -1.04073  -0.96047
 Alpha  occ. eigenvalues --   -0.87270  -0.83994  -0.80575  -0.72076  -0.70062
 Alpha  occ. eigenvalues --   -0.69118  -0.66893  -0.64475  -0.62900  -0.59187
 Alpha  occ. eigenvalues --   -0.57639  -0.55010  -0.54136  -0.52085  -0.49236
 Alpha  occ. eigenvalues --   -0.43381  -0.40556  -0.36150  -0.34101
 Alpha virt. eigenvalues --    0.02769   0.03257   0.03947   0.05082   0.05640
 Alpha virt. eigenvalues --    0.06557   0.07646   0.08177   0.09418   0.09664
 Alpha virt. eigenvalues --    0.10094   0.10757   0.11621   0.12341   0.13179

 Mulliken charges:
               1
     1  C    0.204400
     2  C    0.277313
     3  C    0.248576
     4  C    0.283656
     5  C   -0.124644
     6  C    1.032204
     7  H   -0.259337
     8  H   -0.225279
     9  H   -0.205989
    10  H   -0.216482
    11  O   -1.864983
    12  P    0.184223
    13  C    1.370627
    14  O   -1.296043
    15  H    0.591757
 Sum of Mulliken charges =  -0.00000

 Dipole moment (field-independent basis, Debye):
    X=             -3.9594    Y=              2.0460    Z=              0.2905  Tot=              4.4662

 Test job not archived.
 1\1\GINC-SE232\SP\RHF\Aug-CC-pVDZ\C7H5O2P1\OHZDE\08-Apr-2025\0\\#t hf
 aug-cc-pvdz iop(5/13=1,5/36=2,99/5=2) pseudo=read geom=check guess=(re
 ad,tcheck) scf=(maxcycle=1)\\title\\0,1\C,0,-1.478581,-1.473791,-0.005
 664\C,0,-2.7039,-0.809895,0.00763\C,0,-2.763329,0.584619,0.015881\C,0,
 -1.58998,1.336979,0.007723\C,0,-0.355039,0.690353,0.014335\C,0,-0.3221
 29,-0.708084,-0.002314\H,0,-1.412388,-2.554253,-0.0166\H,0,-1.638899,2
 .419982,0.000566\H,0,-3.620328,-1.38841,0.007276\H,0,-3.724326,1.08481
 6,0.021414\O,0,0.917695,-1.313324,-0.014025\P,0,1.336908,1.361664,-0.1

 Normal termination of Gaussian 16 at Tue Apr  8 23:32:17 2025.
