 Gaussian 16, Revision C.01,

 ----------------------------------------------------------------------
 #t hf aug-cc-pvdz symm=none int=(grid=ultrafine) guess=(read,tcheck) s
 table=opt
 ----------------------------------------------------------------------
 -----
 title
 -----
 Symbolic Z-matrix:
 Charge =  0 Multiplicity = 2

 SCF Done:  E(UHF) =  -2522.82844911     A.U. after   24 cycles

 1\1\GINC-SE365\Stability\UHF\Aug-CC-pVDZ\C2Cl5O2\OHZDE\08-Apr-2025\0\\
 #t hf aug-cc-pvdz symm=none int=(grid=ultrafine) guess=(read,tcheck) s
 table=opt\\title\\0,2\C,0,0.772984,-0.188849,-0.093014\O,0,1.24624,0.4
 57594,-1.325254\O,0,1.63876,1.702688,-1.179495\C,0,-0.782427,0.076482,
 0.044961\Cl,0,1.105892,-1.905858,-0.388978\Cl,0,-1.08146,1.82247,0.271
 794\Cl,0,-1.608861,-0.45889,-1.448115\Cl,0,-1.432329,-0.825301,1.44471
 \Cl,0,1.662444,0.390634,1.316254\\Version=ES64L-G16RevC.01\HF=-2522.82
 84491\S2=0.761924\S2-1=0.\S2A=0.750108\RMSD=7.682e-09\Dipole=-0.083358

 Normal termination of Gaussian 16 at Tue Apr  8 23:10:28 2025.
 Gaussian 16:  ES64L-G16RevC.01  3-Jul-2019

 ----------------------------------------------------------------------
 #t hf aug-cc-pvdz iop(5/13=1,5/36=2,99/5=2) pseudo=read geom=check gue
 ss=(read,tcheck) scf=(maxcycle=1)
 ----------------------------------------------------------------------
 -----
 title
 -----
 Structure from the checkpoint file:  "BDE49_expt_627_mol2.chk"
 Charge =  0 Multiplicity = 2

                         Standard orientation:
 ---------------------------------------------------------------------
 Center     Atomic      Atomic             Coordinates (Angstroms)
 Number     Number       Type             X           Y           Z
 ---------------------------------------------------------------------
      1          6           0        0.772984   -0.188849   -0.093014
      2          8           0        1.246240    0.457594   -1.325254
      3          8           0        1.638760    1.702688   -1.179495
      4          6           0       -0.782427    0.076482    0.044961
      5         17           0        1.105891   -1.905858   -0.388978
      6         17           0       -1.081460    1.822470    0.271794
      7         17           0       -1.608861   -0.458890   -1.448115
      8         17           0       -1.432329   -0.825301    1.444710
      9         17           0        1.662444    0.390634    1.316254
 ---------------------------------------------------------------------

 SCF Done:  E(UHF) =  -2523.41402483     A.U. after    2 cycles

 The electronic state is 2-A.
 Alpha  occ. eigenvalues -- -105.61487-105.61335-105.61309-105.61285-105.61107
 Alpha  occ. eigenvalues --  -20.70443 -20.69999 -11.48883 -11.48337 -10.66345
 Alpha  occ. eigenvalues --  -10.66188 -10.66140 -10.66107 -10.65927  -7.83313
 Alpha  occ. eigenvalues --   -7.83147  -7.83091  -7.83062  -7.82880  -7.82854
 Alpha  occ. eigenvalues --   -7.82845  -7.82695  -7.82687  -7.82655  -7.82636
 Alpha  occ. eigenvalues --   -7.82614  -7.82606  -7.82434  -7.82425  -1.73670
 Alpha  occ. eigenvalues --   -1.33778  -1.23947  -1.16314  -1.10275  -1.08685
 Alpha  occ. eigenvalues --   -1.07640  -0.94726  -0.82929  -0.79162  -0.74591
 Alpha  occ. eigenvalues --   -0.73269  -0.69153  -0.66875  -0.65129  -0.60615
 Alpha  occ. eigenvalues --   -0.55422  -0.55118  -0.52862  -0.52761  -0.52253
 Alpha  occ. eigenvalues --   -0.51426  -0.50853  -0.49402  -0.48557  -0.47858
 Alpha  occ. eigenvalues --   -0.47447  -0.46572
 Alpha virt. eigenvalues --    0.05616   0.07033   0.07185   0.08101   0.08978
 Alpha virt. eigenvalues --    0.09284   0.10472   0.11063   0.11886   0.12744
 Alpha virt. eigenvalues --    0.13276   0.13924   0.15659   0.16142   0.16809

  Beta  occ. eigenvalues -- -105.61485-105.61337-105.61304-105.61284-105.61107
  Beta  occ. eigenvalues --  -20.69255 -20.66353 -11.48963 -11.48317 -10.66344
  Beta  occ. eigenvalues --  -10.66189 -10.66134 -10.66105 -10.65927  -7.83297
  Beta  occ. eigenvalues --   -7.83147  -7.83090  -7.83056  -7.82882  -7.82856
  Beta  occ. eigenvalues --   -7.82846  -7.82696  -7.82692  -7.82636  -7.82633
  Beta  occ. eigenvalues --   -7.82614  -7.82606  -7.82433  -7.82425  -1.67712
  Beta  occ. eigenvalues --   -1.28416  -1.21336  -1.14644  -1.10079  -1.08580
  Beta  occ. eigenvalues --   -1.07599  -0.94208  -0.81843  -0.73964  -0.71798
  Beta  occ. eigenvalues --   -0.71662  -0.66382  -0.65045  -0.60170  -0.58667
  Beta  occ. eigenvalues --   -0.54538  -0.52995  -0.52412  -0.51557  -0.51307
  Beta  occ. eigenvalues --   -0.50954  -0.49542  -0.48439  -0.47486  -0.47216
  Beta  occ. eigenvalues --   -0.46537
  Beta virt. eigenvalues --    0.05499   0.07015   0.07203   0.07558   0.08199
  Beta virt. eigenvalues --    0.09069   0.09420   0.10810   0.11425   0.11920
  Beta virt. eigenvalues --    0.12950   0.13640   0.14062   0.15772   0.16298

 Mulliken charges and spin densities:
               1          2
     1  C    0.971181  -0.028846
     2  O   -0.591377   0.054999
     3  O   -0.231690   0.962441
     4  C   -0.759331   0.013572
     5  Cl   0.080048   0.000057
     6  Cl   0.173204  -0.002212
     7  Cl   0.155888  -0.000499
     8  Cl   0.106888   0.001092
     9  Cl   0.095190  -0.000604
 Sum of Mulliken charges =  -0.00000   1.00000

 Dipole moment (field-independent basis, Debye):
    X=             -0.1750    Y=             -0.2751    Z=              0.5950  Tot=              0.6785
                          Isotropic Fermi Contact Couplings
        Atom                 a.u.       MegaHertz       Gauss      10(-4) cm-1
     1  C(13)             -0.01527     -17.16373      -6.12445      -5.72520
     2  O(17)              0.07275     -44.10283     -15.73698     -14.71112
     3  O(17)              0.26783    -162.35778     -57.93329     -54.15673
     4  C(13)              0.00461       5.17869       1.84789       1.72743
     5  Cl(35)            -0.00063      -0.27779      -0.09912      -0.09266
     6  Cl(35)             0.00430       1.88509       0.67265       0.62880
     7  Cl(35)             0.00040       0.17756       0.06336       0.05923
     8  Cl(35)             0.00025       0.11136       0.03974       0.03715

 Normal termination of Gaussian 16 at Tue Apr  8 23:10:34 2025.
