 Gaussian 16, Revision C.01,

 ----------------------------------------------------------------------
 #t hf aug-cc-pvdz symm=none int=(grid=ultrafine) guess=(read,tcheck) s
 table=(opt,rrhf)
 ----------------------------------------------------------------------
 -----
 title
 -----
 Symbolic Z-matrix:
 Charge =  0 Multiplicity = 1

 SCF Done:  E(RHF) =  -823.859046540     A.U. after   11 cycles
 Normal termination of Gaussian 16 at Tue Apr  8 22:44:57 2025.
 Gaussian 16:  ES64L-G16RevC.01  3-Jul-2019

 ----------------------------------------------------------------------
 #t hf aug-cc-pvdz iop(5/13=1,5/36=2,99/5=2) pseudo=read geom=check gue
 ss=(read,tcheck) scf=(maxcycle=1)
 ----------------------------------------------------------------------
 -----
 title
 -----
 Structure from the checkpoint file:  "BDE49_expt_1526_mol1.chk"
 Charge =  0 Multiplicity = 1

                         Standard orientation:
 ---------------------------------------------------------------------
 Center     Atomic      Atomic             Coordinates (Angstroms)
 Number     Number       Type             X           Y           Z
 ---------------------------------------------------------------------
      1          6           0       -1.204347    0.695324    0.000000
      2          6           0        0.000000    1.390630    0.000000
      3          6           0        1.204347    0.695324    0.000000
      4          6           0       -1.204347   -0.695325    0.000000
      5          6           0        0.000000   -1.390630    0.000000
      6          6           0        1.204347   -0.695324    0.000000
      7          9           0       -2.359353    1.362211    0.000000
      8          9           0        0.000000    2.724327    0.000000
      9          9           0        2.359352    1.362212    0.000000
     10          9           0        2.359352   -1.362212    0.000000
     11          9           0       -2.359353   -1.362211    0.000000
     12          9           0        0.000000   -2.724327    0.000000
 ---------------------------------------------------------------------

 SCF Done:  E(RHF) =  -824.619594074     A.U. after    2 cycles

 The electronic state is 1-A'.
 Alpha  occ. eigenvalues --  -26.52964 -26.52962 -26.52962 -26.52960 -26.52960
 Alpha  occ. eigenvalues --  -26.52960 -11.39953 -11.39941 -11.39941 -11.39836
 Alpha  occ. eigenvalues --  -11.39836 -11.39826  -1.67727  -1.66885  -1.66885
 Alpha  occ. eigenvalues --   -1.65361  -1.65360  -1.64535  -1.23144  -1.08840
 Alpha  occ. eigenvalues --   -1.08839  -0.94150  -0.94149  -0.86570  -0.82928
 Alpha  occ. eigenvalues --   -0.81392  -0.76808  -0.76766  -0.76766  -0.76211
 Alpha  occ. eigenvalues --   -0.76211  -0.73446  -0.73445  -0.70508  -0.70508
 Alpha  occ. eigenvalues --   -0.69719  -0.68388  -0.68387  -0.67119  -0.63008
 Alpha  occ. eigenvalues --   -0.63008  -0.59860  -0.54436  -0.39596  -0.39595
 Alpha virt. eigenvalues --    0.05383   0.07079   0.07079   0.08542   0.08542
 Alpha virt. eigenvalues --    0.08701   0.08701   0.09487   0.11500   0.12068
 Alpha virt. eigenvalues --    0.12068   0.12843   0.14944   0.15247   0.15247

 Mulliken charges:
               1
     1  C    0.939508
     2  C    0.939498
     3  C    0.939510
     4  C    0.939495
     5  C    0.939514
     6  C    0.939495
     7  F   -0.939490
     8  F   -0.939530
     9  F   -0.939490
    10  F   -0.939489
    11  F   -0.939489
    12  F   -0.939531
 Sum of Mulliken charges =  -0.00000

 Dipole moment (field-independent basis, Debye):
    X=              0.0000    Y=             -0.0000    Z=              0.0000  Tot=              0.0000

 Test job not archived.
 1\1\GINC-SE339\SP\RHF\Aug-CC-pVDZ\C6F6\OHZDE\08-Apr-2025\0\\#t hf aug-
 cc-pvdz iop(5/13=1,5/36=2,99/5=2) pseudo=read geom=check guess=(read,t
 check) scf=(maxcycle=1)\\title\\0,1\C,0,-1.204347,-0.695324,0.\C,0,0.,
 -1.39063,0.\C,0,1.204347,-0.695324,0.\C,0,-1.204347,0.695325,0.\C,0,0.
 ,1.39063,0.\C,0,1.204347,0.695324,0.\F,0,-2.359353,-1.362211,0.\F,0,0.
 ,-2.724327,0.\F,0,2.359352,-1.362212,0.\F,0,2.359352,1.362212,0.\F,0,-
 2.359353,1.362211,0.\F,0,0.,2.724327,0.\\Version=ES64L-G16RevC.01\Stat
 e=1-A'\HF=-824.6195941\RMSD=2.702e-02\Dipole=0.0000008,0.0000007,0.\Qu

 Normal termination of Gaussian 16 at Tue Apr  8 22:45:08 2025.
