 Gaussian 16, Revision C.01,

 ----------------------------------------------------------------------
 #t hf aug-cc-pvdz symm=none int=(grid=ultrafine) guess=(read,tcheck) s
 table=opt
 ----------------------------------------------------------------------
 -----
 title
 -----
 Symbolic Z-matrix:
 Charge =  0 Multiplicity = 2

 SCF Done:  E(UHF) =  -497.462947157     A.U. after   20 cycles
 Normal termination of Gaussian 16 at Tue Apr  8 23:51:33 2025.
 Gaussian 16:  ES64L-G16RevC.01  3-Jul-2019

 ----------------------------------------------------------------------
 #t hf aug-cc-pvdz iop(5/13=1,5/36=2,99/5=2) pseudo=read geom=check gue
 ss=(read,tcheck) scf=(maxcycle=1)
 ----------------------------------------------------------------------
 -----
 title
 -----
 Structure from the checkpoint file:  "BDE49_nonexpt_1893_mol2.chk"
 Charge =  0 Multiplicity = 2

                         Standard orientation:
 ---------------------------------------------------------------------
 Center     Atomic      Atomic             Coordinates (Angstroms)
 Number     Number       Type             X           Y           Z
 ---------------------------------------------------------------------
      1         14           0       -1.858579   -0.311002   -0.084921
      2          6           0       -0.040725    0.303420   -0.004373
      3          1           0       -2.046559   -1.672388    0.491369
      4          1           0       -2.742257    0.677669    0.568908
      5          8           0        0.175899    1.506744    0.008396
      6          7           0        0.946616   -0.641750   -0.020128
      7          6           0        2.362814   -0.302206    0.018297
      8          1           0        0.680749   -1.611802    0.044361
      9          1           0        2.447003    0.771128   -0.142192
     10          1           0        2.905495   -0.830195   -0.769761
     11          1           0        2.809637   -0.549380    0.986397
 ---------------------------------------------------------------------

 SCF Done:  E(UHF) =  -497.702323886     A.U. after    2 cycles

 The electronic state is 2-A.
 Alpha  occ. eigenvalues --  -69.55402 -20.51615 -15.53393 -11.35015 -11.27302
 Alpha  occ. eigenvalues --   -6.22604  -3.98575  -3.97650  -3.97634  -1.45878
 Alpha  occ. eigenvalues --   -1.23999  -0.97729  -0.83468  -0.79492  -0.67932
 Alpha  occ. eigenvalues --   -0.65855  -0.64357  -0.56737  -0.56167  -0.55053
 Alpha  occ. eigenvalues --   -0.50855  -0.42538  -0.40996  -0.34749
 Alpha virt. eigenvalues --    0.02956   0.04214   0.05039   0.05182   0.06158
 Alpha virt. eigenvalues --    0.06259   0.06916   0.08288   0.09484   0.10756
 Alpha virt. eigenvalues --    0.12435   0.12836   0.14243   0.14565   0.15111

  Beta  occ. eigenvalues --  -69.54825 -20.51382 -15.53353 -11.35083 -11.27306
  Beta  occ. eigenvalues --   -6.21736  -3.97248  -3.97227  -3.96346  -1.45398
  Beta  occ. eigenvalues --   -1.23859  -0.97631  -0.83009  -0.77069  -0.66954
  Beta  occ. eigenvalues --   -0.64842  -0.64156  -0.56460  -0.56067  -0.54033
  Beta  occ. eigenvalues --   -0.50083  -0.41427  -0.40137
  Beta virt. eigenvalues --    0.01157   0.03044   0.04427   0.05117   0.05329
  Beta virt. eigenvalues --    0.06353   0.06791   0.07740   0.08607   0.09725
  Beta virt. eigenvalues --    0.11311   0.13003   0.13176   0.14512   0.15249

 Mulliken charges and spin densities:
               1          2
     1  Si   0.634064   0.993760
     2  C    0.180854  -0.058523
     3  H   -0.163956  -0.004501
     4  H   -0.137003   0.005669
     5  O   -1.119923   0.059561
     6  N    0.519517   0.006880
     7  C   -0.336663   0.002789
     8  H    0.100793  -0.006019
     9  H    0.072674  -0.000260
    10  H    0.113428   0.000495
    11  H    0.136216   0.000149
 Sum of Mulliken charges =  -0.00000   1.00000

 Dipole moment (field-independent basis, Debye):
    X=              0.5117    Y=             -3.3874    Z=              0.1606  Tot=              3.4295
                          Isotropic Fermi Contact Couplings
        Atom                 a.u.       MegaHertz       Gauss      10(-4) cm-1
     1  Si(29)             0.57779    -513.49719    -183.22856    -171.28422
     2  C(13)             -0.00356      -3.99761      -1.42645      -1.33346
     3  H(1)               0.00064       2.85329       1.01812       0.95175
     4  H(1)               0.00036       1.59420       0.56885       0.53177
     5  O(17)              0.01795     -10.88116      -3.88267      -3.62957
     6  N(14)              0.00323       1.04399       0.37252       0.34824
     7  C(13)             -0.00056      -0.63380      -0.22616      -0.21141
     8  H(1)              -0.00016      -0.73653      -0.26281      -0.24568

 1\1\GINC-SE424\SP\UHF\Aug-CC-pVDZ\C2H6N1O1Si1(2)\OHZDE\08-Apr-2025\0\\
 #t hf aug-cc-pvdz iop(5/13=1,5/36=2,99/5=2) pseudo=read geom=check gue
 ss=(read,tcheck) scf=(maxcycle=1)\\title\\0,2\Si,0,-1.858579,-0.311002
 ,-0.084921\C,0,-0.040725,0.30342,-0.004373\H,0,-2.046559,-1.672388,0.4
 91369\H,0,-2.742257,0.677669,0.568908\O,0,0.175899,1.506744,0.008396\N
 ,0,0.946616,-0.64175,-0.020128\C,0,2.362814,-0.302206,0.018297\H,0,0.6
 80749,-1.611802,0.044361\H,0,2.447003,0.771128,-0.142192\H,0,2.905495,
 -0.830195,-0.769761\H,0,2.809637,-0.54938,0.986397\\Version=ES64L-G16R

 Normal termination of Gaussian 16 at Tue Apr  8 23:51:37 2025.
