 Gaussian 16, Revision C.01,

 ----------------------------------------------------------------------
 #t hf aug-cc-pvdz symm=none int=(grid=ultrafine) guess=(read,tcheck) s
 table=(opt,rrhf)
 ----------------------------------------------------------------------
 -----
 title
 -----
 Symbolic Z-matrix:
 Charge =  0 Multiplicity = 1

 SCF Done:  E(RHF) =  -558.070955176     A.U. after   12 cycles
 Normal termination of Gaussian 16 at Tue Apr  8 23:58:45 2025.
 Gaussian 16:  ES64L-G16RevC.01  3-Jul-2019

 ----------------------------------------------------------------------
 #t hf aug-cc-pvdz iop(5/13=1,5/36=2,99/5=2) pseudo=read geom=check gue
 ss=(read,tcheck) scf=(maxcycle=1)
 ----------------------------------------------------------------------
 -----
 title
 -----
 Structure from the checkpoint file:  "BDE49_nonexpt_2070_mol1.chk"
 Charge =  0 Multiplicity = 1

                         Standard orientation:
 ---------------------------------------------------------------------
 Center     Atomic      Atomic             Coordinates (Angstroms)
 Number     Number       Type             X           Y           Z
 ---------------------------------------------------------------------
      1         14           0       -1.742863   -0.698368    0.064782
      2          6           0        0.029405   -0.200143   -0.489106
      3          8           0        0.893057   -0.775184    0.471581
      4          8           0        0.278740    1.176985   -0.699089
      5          6           0        2.252588   -0.869412    0.047973
      6          1           0        2.344919   -1.538705   -0.817281
      7          1           0        2.816001   -1.283236    0.883920
      8          1           0        2.653107    0.113734   -0.215395
      9          6           0        0.011081    2.017631    0.418446
     10          1           0        0.364778    3.012658    0.149390
     11          1           0        0.535839    1.673262    1.314441
     12          1           0       -1.064362    2.074057    0.632897
     13          1           0        0.224381   -0.642056   -1.477061
     14          1           0       -1.963443   -0.433065    1.503415
     15          1           0       -1.897684   -2.147958   -0.192245
     16          1           0       -2.746262    0.045598   -0.732842
 ---------------------------------------------------------------------

 SCF Done:  E(RHF) =  -558.383605986     A.U. after    2 cycles

 The electronic state is 1-A.
 Alpha  occ. eigenvalues --  -69.52762 -20.55438 -20.55172 -11.32748 -11.28343
 Alpha  occ. eigenvalues --  -11.28325  -6.19916  -3.95284  -3.95273  -3.95259
 Alpha  occ. eigenvalues --   -1.49660  -1.43349  -0.98297  -0.94007  -0.84889
 Alpha  occ. eigenvalues --   -0.74309  -0.69566  -0.68052  -0.64675  -0.61342
 Alpha  occ. eigenvalues --   -0.60642  -0.57367  -0.52798  -0.52019  -0.48713
 Alpha  occ. eigenvalues --   -0.48625  -0.45099  -0.43758  -0.40841
 Alpha virt. eigenvalues --    0.03677   0.03996   0.04172   0.04443   0.06176
 Alpha virt. eigenvalues --    0.06525   0.06713   0.07174   0.08215   0.09226
 Alpha virt. eigenvalues --    0.09818   0.10494   0.11308   0.13260   0.14264

 Mulliken charges:
               1
     1  Si   0.770119
     2  C    1.166004
     3  O   -1.261278
     4  O   -1.360721
     5  C    0.183909
     6  H    0.125144
     7  H   -0.010490
     8  H    0.201252
     9  C    0.252017
    10  H   -0.002212
    11  H    0.191056
    12  H    0.153070
    13  H    0.013960
    14  H   -0.112225
    15  H   -0.198381
    16  H   -0.111226
 Sum of Mulliken charges =  -0.00000

 Dipole moment (field-independent basis, Debye):
    X=              0.6384    Y=              0.1568    Z=              0.0856  Tot=              0.6629

 Test job not archived.
 1\1\GINC-SE460\SP\RHF\Aug-CC-pVDZ\C3H10O2Si1\OHZDE\08-Apr-2025\0\\#t h
 f aug-cc-pvdz iop(5/13=1,5/36=2,99/5=2) pseudo=read geom=check guess=(
 read,tcheck) scf=(maxcycle=1)\\title\\0,1\Si,0,-1.742863,-0.698369,0.0
 64782\C,0,0.029405,-0.200143,-0.489106\O,0,0.893057,-0.775184,0.471581
 \O,0,0.278739,1.176985,-0.699089\C,0,2.252588,-0.869411,0.047973\H,0,2
 .34492,-1.538704,-0.817281\H,0,2.816001,-1.283235,0.88392\H,0,2.653107
 ,0.113735,-0.215395\C,0,0.01108,2.017631,0.418446\H,0,0.364777,3.01265
 8,0.14939\H,0,0.535838,1.673262,1.314441\H,0,-1.064363,2.074056,0.6328

 Normal termination of Gaussian 16 at Tue Apr  8 23:58:50 2025.
