 Gaussian 16, Revision C.01,

 ----------------------------------------------------------------------
 #t hf aug-cc-pvdz symm=none int=(grid=ultrafine) guess=(read,tcheck) s
 table=(opt,rrhf)
 ----------------------------------------------------------------------
 -----
 title
 -----
 Symbolic Z-matrix:
 Charge =  0 Multiplicity = 1

 SCF Done:  E(RHF) =  -1308.14415419     A.U. after   11 cycles
 Normal termination of Gaussian 16 at Tue Apr  8 23:48:14 2025.
 Gaussian 16:  ES64L-G16RevC.01  3-Jul-2019

 ----------------------------------------------------------------------
 #t hf aug-cc-pvdz iop(5/13=1,5/36=2,99/5=2) pseudo=read geom=check gue
 ss=(read,tcheck) scf=(maxcycle=1)
 ----------------------------------------------------------------------
 -----
 title
 -----
 Structure from the checkpoint file:  "BDE49_nonexpt_1808_mol1.chk"
 Charge =  0 Multiplicity = 1

                         Standard orientation:
 ---------------------------------------------------------------------
 Center     Atomic      Atomic             Coordinates (Angstroms)
 Number     Number       Type             X           Y           Z
 ---------------------------------------------------------------------
      1         14           0       -0.000002    0.391191    0.407103
      2          9           0       -0.000200    1.773051   -0.382214
      3         17           0        1.678928   -0.649556   -0.120672
      4         17           0       -1.678817   -0.649713   -0.120660
      5          1           0       -0.000061    0.653442    1.843125
 ---------------------------------------------------------------------

 SCF Done:  E(RHF) =  -1308.42050252     A.U. after    2 cycles

 The electronic state is 1-A.
 Alpha  occ. eigenvalues -- -105.58823-105.58822 -69.68333 -26.48696 -10.63913
 Alpha  occ. eigenvalues --  -10.63904  -7.80794  -7.80790  -7.80455  -7.80454
 Alpha  occ. eigenvalues --   -7.80452  -7.80451  -6.34115  -4.09525  -4.09458
 Alpha  occ. eigenvalues --   -4.09272  -1.60225  -1.10476  -1.07082  -0.78952
 Alpha  occ. eigenvalues --   -0.68644  -0.67976  -0.66683  -0.57228  -0.57172
 Alpha  occ. eigenvalues --   -0.52056  -0.50185  -0.49430  -0.48836
 Alpha virt. eigenvalues --    0.04897   0.05391   0.05433   0.05794   0.09500
 Alpha virt. eigenvalues --    0.12437   0.12520   0.14261   0.14740   0.15599
 Alpha virt. eigenvalues --    0.15638   0.17613   0.19050   0.19061   0.20920

 Mulliken charges:
               1
     1  Si   1.915854
     2  F   -0.816294
     3  Cl  -0.468948
     4  Cl  -0.468962
     5  H   -0.161650
 Sum of Mulliken charges =  -0.00000

 Dipole moment (field-independent basis, Debye):
    X=              0.0003    Y=             -0.0003    Z=              1.2411  Tot=              1.2411

 Test job not archived.
 1\1\GINC-SE247\SP\RHF\Aug-CC-pVDZ\Cl2F1H1Si1\OHZDE\08-Apr-2025\0\\#t h
 f aug-cc-pvdz iop(5/13=1,5/36=2,99/5=2) pseudo=read geom=check guess=(
 read,tcheck) scf=(maxcycle=1)\\title\\0,1\Si,0,-0.000002,0.391191,0.40
 7103\F,0,-0.0002,1.773051,-0.382214\Cl,0,1.678928,-0.649556,-0.120672\
 Cl,0,-1.678817,-0.649713,-0.12066\H,0,-0.000061,0.653442,1.843125\\Ver
 sion=ES64L-G16RevC.01\State=1-A\HF=-1308.4205025\RMSD=3.377e-03\Dipole
 =0.0001296,-0.0001364,0.4882773\Quadrupole=-0.2374435,-1.0283355,1.265
 779,0.000148,-0.0000914,1.0852354\PG=C01 [X(Cl2F1H1Si1)]\\@

 Normal termination of Gaussian 16 at Tue Apr  8 23:48:15 2025.
