 Gaussian 16, Revision C.01,

 ----------------------------------------------------------------------
 #t hf aug-cc-pvdz symm=none int=(grid=ultrafine) guess=(read,tcheck) s
 table=(opt,rrhf)
 ----------------------------------------------------------------------
 -----
 title
 -----
 Symbolic Z-matrix:
 Charge =  0 Multiplicity = 1

 SCF Done:  E(RHF) =  -477.790313448     A.U. after   14 cycles
 Normal termination of Gaussian 16 at Wed Apr  9 00:41:09 2025.
 Gaussian 16:  ES64L-G16RevC.01  3-Jul-2019

 ----------------------------------------------------------------------
 #t hf aug-cc-pvdz iop(5/13=1,5/36=2,99/5=2) pseudo=read geom=check gue
 ss=(read,tcheck) scf=(maxcycle=1)
 ----------------------------------------------------------------------
 -----
 title
 -----
 Structure from the checkpoint file:  "BDE49_nonexpt_668_mol1.chk"
 Charge =  0 Multiplicity = 1

                         Standard orientation:
 ---------------------------------------------------------------------
 Center     Atomic      Atomic             Coordinates (Angstroms)
 Number     Number       Type             X           Y           Z
 ---------------------------------------------------------------------
      1          8           0       -0.610309   -0.476958   -0.695782
      2          5           0       -1.668278    0.136395   -0.002067
      3          8           0       -2.818826   -0.579453    0.047957
      4          8           0       -1.589308    1.357399    0.571989
      5          8           0        0.582806    0.336159   -0.667716
      6          6           0        1.572586   -0.260092    0.099035
      7          6           0        2.841143    0.538624   -0.071423
      8          1           0        3.525797   -0.040450   -0.695796
      9          1           0        3.303473    0.670318    0.906951
     10          1           0        2.665471    1.504186   -0.543441
     11          8           0        1.415928   -1.238884    0.758184
     12          1           0       -0.740191    1.778133    0.409101
     13          1           0       -2.737864   -1.451455   -0.349215
 ---------------------------------------------------------------------

 SCF Done:  E(RHF) =  -478.258800062     A.U. after    2 cycles

 The electronic state is 1-A.
 Alpha  occ. eigenvalues --  -20.67149 -20.63582 -20.56945 -20.56584 -20.56278
 Alpha  occ. eigenvalues --  -11.41847 -11.27730  -7.68734  -1.64374  -1.51227
 Alpha  occ. eigenvalues --   -1.48872  -1.46104  -1.34181  -1.04213  -0.83328
 Alpha  occ. eigenvalues --   -0.80279  -0.76212  -0.72396  -0.71339  -0.68772
 Alpha  occ. eigenvalues --   -0.65008  -0.62887  -0.60978  -0.59713  -0.57873
 Alpha  occ. eigenvalues --   -0.55613  -0.54464  -0.51790  -0.50594  -0.48811
 Alpha  occ. eigenvalues --   -0.46658
 Alpha virt. eigenvalues --    0.02835   0.04369   0.04605   0.04822   0.06416
 Alpha virt. eigenvalues --    0.06685   0.06936   0.09807   0.10302   0.11196
 Alpha virt. eigenvalues --    0.12451   0.12834   0.14509   0.14851   0.15172

 Mulliken charges:
               1
     1  O   -0.571375
     2  B    2.053710
     3  O   -1.271072
     4  O   -1.174950
     5  O   -0.765042
     6  C    1.838429
     7  C   -0.571896
     8  H    0.266344
     9  H    0.241840
    10  H    0.159215
    11  O   -1.186556
    12  H    0.546965
    13  H    0.434387
 Sum of Mulliken charges =  -0.00000

 Dipole moment (field-independent basis, Debye):
    X=              3.0465    Y=              1.3584    Z=             -1.5108  Tot=              3.6618

 Test job not archived.
 1\1\GINC-SE365\SP\RHF\Aug-CC-pVDZ\C2H5B1O5\OHZDE\09-Apr-2025\0\\#t hf
 aug-cc-pvdz iop(5/13=1,5/36=2,99/5=2) pseudo=read geom=check guess=(re
 ad,tcheck) scf=(maxcycle=1)\\title\\0,1\O,0,0.610309,-0.476958,0.69578
 2\B,0,1.668278,0.136395,0.002067\O,0,2.818826,-0.579453,-0.047957\O,0,
 1.589308,1.357399,-0.571989\O,0,-0.582806,0.336159,0.667716\C,0,-1.572
 586,-0.260092,-0.099035\C,0,-2.841143,0.538624,0.071423\H,0,-3.525797,
 -0.04045,0.695796\H,0,-3.303473,0.670318,-0.906951\H,0,-2.665471,1.504
 186,0.543441\O,0,-1.415928,-1.238884,-0.758184\H,0,0.740191,1.778133,-

 Normal termination of Gaussian 16 at Wed Apr  9 00:41:13 2025.
