 Gaussian 16, Revision C.01,

 ----------------------------------------------------------------------
 #t hf aug-cc-pvdz symm=none int=(grid=ultrafine) guess=(read,tcheck) s
 table=opt
 ----------------------------------------------------------------------
 -----
 title
 -----
 Symbolic Z-matrix:
 Charge =  0 Multiplicity = 2

 SCF Done:  E(UHF) =  -306.361592070     A.U. after   20 cycles
 Normal termination of Gaussian 16 at Tue Apr  8 22:44:06 2025.
 Gaussian 16:  ES64L-G16RevC.01  3-Jul-2019

 ----------------------------------------------------------------------
 #t hf aug-cc-pvdz iop(5/13=1,5/36=2,99/5=2) pseudo=read geom=check gue
 ss=(read,tcheck) scf=(maxcycle=1)
 ----------------------------------------------------------------------
 -----
 title
 -----
 Structure from the checkpoint file:  "BDE49_expt_1474_mol2.chk"
 Charge =  0 Multiplicity = 2

                         Standard orientation:
 ---------------------------------------------------------------------
 Center     Atomic      Atomic             Coordinates (Angstroms)
 Number     Number       Type             X           Y           Z
 ---------------------------------------------------------------------
      1          8           0       -1.972131   -0.000000   -0.196463
      2          8           0       -0.833566   -0.000008   -0.851343
      3          6           0        0.369445    0.000000    0.048916
      4          6           0        0.316707    1.269091    0.892524
      5          1           0        0.327354    2.156674    0.255815
      6          1           0        1.181575    1.310833    1.559170
      7          1           0       -0.591430    1.281883    1.496213
      8          6           0        0.316696   -1.269066    0.892559
      9          1           0        0.327336   -2.156667    0.255875
     10          1           0        1.181564   -1.310797    1.559207
     11          1           0       -0.591441   -1.281834    1.496248
     12          6           0        1.524063   -0.000018   -0.945104
     13          1           0        1.486475    0.886325   -1.582001
     14          1           0        1.486468   -0.886378   -1.581976
     15          1           0        2.476215   -0.000015   -0.409476
 ---------------------------------------------------------------------

 SCF Done:  E(UHF) =  -306.677528680     A.U. after    2 cycles

 The electronic state is 2-A.
 Alpha  occ. eigenvalues --  -20.64916 -20.63214 -11.31163 -11.23853 -11.23540
 Alpha  occ. eigenvalues --  -11.23512  -1.67278  -1.25517  -1.07604  -0.95719
 Alpha  occ. eigenvalues --   -0.95669  -0.78728  -0.73261  -0.68778  -0.67423
 Alpha  occ. eigenvalues --   -0.62771  -0.60474  -0.57242  -0.55978  -0.55615
 Alpha  occ. eigenvalues --   -0.53656  -0.51619  -0.50094  -0.45662  -0.45550
 Alpha virt. eigenvalues --    0.03523   0.04048   0.04113   0.04953   0.06584
 Alpha virt. eigenvalues --    0.06645   0.07213   0.07367   0.09686   0.10967
 Alpha virt. eigenvalues --    0.14201   0.14324   0.15030   0.15316   0.15799

  Beta  occ. eigenvalues --  -20.62240 -20.60961 -11.31238 -11.23856 -11.23524
  Beta  occ. eigenvalues --  -11.23496  -1.60902  -1.17703  -1.05453  -0.95580
  Beta  occ. eigenvalues --   -0.95575  -0.77795  -0.67978  -0.65875  -0.64011
  Beta  occ. eigenvalues --   -0.59941  -0.57800  -0.56240  -0.55372  -0.53639
  Beta  occ. eigenvalues --   -0.52508  -0.49821  -0.47334  -0.42796
  Beta virt. eigenvalues --    0.03526   0.04051   0.04119   0.04960   0.06574
  Beta virt. eigenvalues --    0.06646   0.07217   0.07260   0.09664   0.10985
  Beta virt. eigenvalues --    0.12027   0.14258   0.14418   0.15059   0.15369

 Mulliken charges and spin densities:
               1          2
     1  O   -0.341435   0.932967
     2  O   -0.763835   0.083140
     3  C   -0.836295   0.004543
     4  C   -0.000967   0.000164
     5  H    0.203028  -0.002070
     6  H    0.250309  -0.001428
     7  H    0.225780  -0.008542
     8  C   -0.000970   0.000164
     9  H    0.203028  -0.002070
    10  H    0.250310  -0.001428
    11  H    0.225781  -0.008542
    12  C   -0.050032   0.002584
    13  H    0.183779   0.001072
    14  H    0.183778   0.001072
    15  H    0.267741  -0.001625
 Sum of Mulliken charges =  -0.00000   1.00000

 Dipole moment (field-independent basis, Debye):
    X=              2.3990    Y=              0.0000    Z=              1.1222  Tot=              2.6485
                          Isotropic Fermi Contact Couplings
        Atom                 a.u.       MegaHertz       Gauss      10(-4) cm-1
     1  O(17)              0.26926    -163.22385     -58.24233     -54.44561
     2  O(17)              0.09656     -58.53479     -20.88667     -19.52510
     3  C(13)             -0.01116     -12.54942      -4.47794      -4.18604
     4  C(13)              0.00060       0.67154       0.23962       0.22400
     5  H(1)              -0.00019      -0.83168      -0.29676      -0.27742
     6  H(1)              -0.00068      -3.04977      -1.08824      -1.01729
     7  H(1)              -0.00015      -0.68998      -0.24620      -0.23015
     8  C(13)              0.00060       0.67149       0.23960       0.22398

 Normal termination of Gaussian 16 at Tue Apr  8 22:44:11 2025.
