 Gaussian 16, Revision C.01,

 ----------------------------------------------------------------------
 #t hf aug-cc-pvdz symm=none int=(grid=ultrafine) guess=(read,tcheck) s
 table=opt
 ----------------------------------------------------------------------
 -----
 title
 -----
 Symbolic Z-matrix:
 Charge =  0 Multiplicity = 2

 SCF Done:  E(UHF) =  -1756.11225395     A.U. after   24 cycles
 Normal termination of Gaussian 16 at Wed Apr  9 00:55:20 2025.
 Gaussian 16:  ES64L-G16RevC.01  3-Jul-2019

 ----------------------------------------------------------------------
 #t hf aug-cc-pvdz iop(5/13=1,5/36=2,99/5=2) pseudo=read geom=check gue
 ss=(read,tcheck) scf=(maxcycle=1)
 ----------------------------------------------------------------------
 -----
 title
 -----
 Structure from the checkpoint file:  "BDE49_nonexpt_927_mol2.chk"
 Charge =  0 Multiplicity = 2

                         Standard orientation:
 ---------------------------------------------------------------------
 Center     Atomic      Atomic             Coordinates (Angstroms)
 Number     Number       Type             X           Y           Z
 ---------------------------------------------------------------------
      1         17           0       -2.596536   -1.581877   -0.848722
      2         17           0       -2.295790    0.356175    1.276011
      3          8           0        1.232630    3.003586   -0.267843
      4          6           0        1.271792    1.905965   -1.204780
      5          1           0        2.290513    1.586846   -1.436507
      6          1           0        0.742416    2.145657   -2.135163
      7          6           0        0.472375    0.997490   -0.234450
      8          7           0       -1.402998   -0.619518    0.064993
      9          6           0       -0.715558    0.286827   -0.884477
     10          1           0       -0.337650   -0.380993   -1.662923
     11          1           0       -1.404941    1.004903   -1.339800
     12          6           0        0.239920    2.323973    0.533847
     13          1           0       -0.757103    2.752187    0.391592
     14          1           0        0.491869    2.330707    1.597569
     15          6           0        1.387049    0.035771    0.535598
     16          7           0        1.924911   -0.934315   -0.403398
     17         17           0        2.920453   -2.069814    0.412806
     18          1           0        0.841884   -0.469546    1.341756
     19          1           0        2.206956    0.601988    0.999004
 ---------------------------------------------------------------------

 SCF Done:  E(UHF) =  -1756.71306506     A.U. after    2 cycles

 The electronic state is 2-A.
 Alpha  occ. eigenvalues -- -105.61422-105.61344-105.60319 -20.55559 -15.65379
 Alpha  occ. eigenvalues --  -15.61531 -11.30861 -11.30753 -11.30613 -11.29281
 Alpha  occ. eigenvalues --  -11.27985 -10.65942 -10.65844 -10.64932  -7.82884
 Alpha  occ. eigenvalues --   -7.82795  -7.82438  -7.82401  -7.82324  -7.82295
 Alpha  occ. eigenvalues --   -7.81673  -7.81612  -7.81410  -1.47794  -1.29724
 Alpha  occ. eigenvalues --   -1.28416  -1.11318  -1.07011  -1.03787  -1.00197
 Alpha  occ. eigenvalues --   -0.95982  -0.90490  -0.88093  -0.77688  -0.73589
 Alpha  occ. eigenvalues --   -0.71860  -0.69823  -0.69144  -0.66935  -0.66720
 Alpha  occ. eigenvalues --   -0.62993  -0.61380  -0.59549  -0.58649  -0.56678
 Alpha  occ. eigenvalues --   -0.55861  -0.52294  -0.50746  -0.49795  -0.48776
 Alpha  occ. eigenvalues --   -0.47189  -0.47117  -0.46232  -0.45747  -0.44451
 Alpha  occ. eigenvalues --   -0.42792
 Alpha virt. eigenvalues --    0.03267   0.03644   0.04159   0.04355   0.05018
 Alpha virt. eigenvalues --    0.06018   0.06281   0.06391   0.07284   0.07821
 Alpha virt. eigenvalues --    0.08716   0.09996   0.11145   0.11721   0.12694

  Beta  occ. eigenvalues -- -105.61422-105.61345-105.60332 -20.55552 -15.65379
  Beta  occ. eigenvalues --  -15.57827 -11.30864 -11.30760 -11.30624 -11.29590
  Beta  occ. eigenvalues --  -11.27962 -10.65942 -10.65844 -10.64944  -7.82886
  Beta  occ. eigenvalues --   -7.82796  -7.82437  -7.82400  -7.82324  -7.82295
  Beta  occ. eigenvalues --   -7.82097  -7.81418  -7.81264  -1.47781  -1.29123
  Beta  occ. eigenvalues --   -1.21262  -1.11022  -1.07011  -1.03341  -0.99300
  Beta  occ. eigenvalues --   -0.95975  -0.88969  -0.85574  -0.77174  -0.71614
  Beta  occ. eigenvalues --   -0.71540  -0.69323  -0.67366  -0.65550  -0.62607
  Beta  occ. eigenvalues --   -0.61362  -0.60677  -0.58521  -0.58142  -0.56283
  Beta  occ. eigenvalues --   -0.51996  -0.50560  -0.49922  -0.49538  -0.48607
  Beta  occ. eigenvalues --   -0.47175  -0.46896  -0.45034  -0.44442  -0.42782
  Beta virt. eigenvalues --    0.03265   0.03622   0.04065   0.04361   0.04591
  Beta virt. eigenvalues --    0.05052   0.06081   0.06359   0.06673   0.07648
  Beta virt. eigenvalues --    0.07925   0.09105   0.10167   0.11168   0.11922

 Mulliken charges and spin densities:
               1          2
     1  Cl   0.073419  -0.000188
     2  Cl  -0.004453  -0.000075
     3  O   -1.295275   0.001059
     4  C    0.796952  -0.011293
     5  H    0.157524   0.002093
     6  H    0.020247  -0.000464
     7  C   -0.833670   0.031612
     8  N    0.193975   0.000061
     9  C   -0.537026   0.006767
    10  H    0.281027  -0.001689
    11  H    0.055952  -0.000002
    12  C    0.903671  -0.001591
    13  H    0.046407   0.000195
    14  H    0.119723   0.002037
    15  C   -0.540357  -0.166804
    16  N    0.241458   1.109560
    17  Cl   0.036568  -0.058055
    18  H    0.179272   0.040185
    19  H    0.104587   0.046595
 Sum of Mulliken charges =  -0.00000   1.00000

 Dipole moment (field-independent basis, Debye):
    X=             -0.6783    Y=              0.8094    Z=             -0.0840  Tot=              1.0594
                          Isotropic Fermi Contact Couplings
        Atom                 a.u.       MegaHertz       Gauss      10(-4) cm-1
     1  Cl(35)            -0.00004      -0.01791      -0.00639      -0.00597
     2  Cl(35)             0.00012       0.05103       0.01821       0.01702
     3  O(17)              0.00075      -0.45469      -0.16224      -0.15167
     4  C(13)             -0.00169      -1.89703      -0.67691      -0.63278
     5  H(1)               0.00015       0.66743       0.23815       0.22263
     6  H(1)               0.00001       0.06288       0.02244       0.02097
     7  C(13)              0.00368       4.13648       1.47600       1.37978
     8  N(14)             -0.00046      -0.14978      -0.05344      -0.04996

 1\1\GINC-SE132\SP\UHF\Aug-CC-pVDZ\C5H8Cl3N2O1(2)\OHZDE\09-Apr-2025\0\\
 #t hf aug-cc-pvdz iop(5/13=1,5/36=2,99/5=2) pseudo=read geom=check gue
 ss=(read,tcheck) scf=(maxcycle=1)\\title\\0,2\Cl,0,-2.596536,-1.581877
 ,-0.848722\Cl,0,-2.29579,0.356175,1.276011\O,0,1.23263,3.003586,-0.267
 843\C,0,1.271792,1.905965,-1.20478\H,0,2.290513,1.586846,-1.436507\H,0
 ,0.742416,2.145657,-2.135163\C,0,0.472375,0.99749,-0.23445\N,0,-1.4029
 98,-0.619518,0.064993\C,0,-0.715558,0.286827,-0.884477\H,0,-0.33765,-0
 .380993,-1.662923\H,0,-1.404941,1.004903,-1.3398\C,0,0.23992,2.323973,

 Normal termination of Gaussian 16 at Wed Apr  9 00:55:36 2025.
