 Gaussian 16, Revision C.01,

 ----------------------------------------------------------------------
 #t hf aug-cc-pvdz symm=none int=(grid=ultrafine) guess=(read,tcheck) s
 table=(opt,rrhf)
 ----------------------------------------------------------------------
 -----
 title
 -----
 Symbolic Z-matrix:
 Charge =  0 Multiplicity = 1

 SCF Done:  E(RHF) =  -556.654562836     A.U. after   13 cycles
 Normal termination of Gaussian 16 at Wed Apr  9 00:43:57 2025.
 Gaussian 16:  ES64L-G16RevC.01  3-Jul-2019

 ----------------------------------------------------------------------
 #t hf aug-cc-pvdz iop(5/13=1,5/36=2,99/5=2) pseudo=read geom=check gue
 ss=(read,tcheck) scf=(maxcycle=1)
 ----------------------------------------------------------------------
 -----
 title
 -----
 Structure from the checkpoint file:  "BDE49_nonexpt_747_mol1.chk"
 Charge =  0 Multiplicity = 1

                         Standard orientation:
 ---------------------------------------------------------------------
 Center     Atomic      Atomic             Coordinates (Angstroms)
 Number     Number       Type             X           Y           Z
 ---------------------------------------------------------------------
      1         15           0       -0.838613   -0.788495   -0.267166
      2          5           0        0.896255    0.061773   -0.017414
      3          8           0        1.966527   -0.748092    0.202562
      4          8           0        1.111781    1.410236   -0.129694
      5          6           0       -2.004900    0.582328    0.258923
      6          1           0       -1.715085    1.089010    1.181351
      7          1           0       -3.004747    0.165190    0.391624
      8          1           0       -2.076601    1.317901   -0.547568
      9          1           0        0.314007    1.927094   -0.266183
     10          1           0        2.791431   -0.250126    0.254745
     11          1           0       -0.808148   -1.521632    0.944101
 ---------------------------------------------------------------------

 SCF Done:  E(RHF) =  -556.919671160     A.U. after    2 cycles

 The electronic state is 1-A.
 Alpha  occ. eigenvalues --  -84.25379 -20.56990 -20.55941 -11.24800  -7.65506
 Alpha  occ. eigenvalues --   -6.72661  -4.25128  -4.25091  -4.24389  -1.48940
 Alpha  occ. eigenvalues --   -1.44615  -0.98981  -0.82445  -0.76758  -0.72373
 Alpha  occ. eigenvalues --   -0.62663  -0.59310  -0.57513  -0.57143  -0.56188
 Alpha  occ. eigenvalues --   -0.49918  -0.47598  -0.43582  -0.32672
 Alpha virt. eigenvalues --    0.03141   0.04218   0.04605   0.05163   0.06438
 Alpha virt. eigenvalues --    0.07189   0.07374   0.08514   0.09579   0.10429
 Alpha virt. eigenvalues --    0.11230   0.12846   0.14308   0.15602   0.16890

 Mulliken charges:
               1
     1  P   -0.481597
     2  B    1.915278
     3  O   -1.225316
     4  O   -1.190811
     5  C   -0.737064
     6  H    0.070684
     7  H    0.021352
     8  H    0.119483
     9  H    0.647059
    10  H    0.521559
    11  H    0.339372
 Sum of Mulliken charges =   0.00000

 Dipole moment (field-independent basis, Debye):
    X=             -0.6699    Y=              1.9235    Z=              0.4639  Tot=              2.0890

 Test job not archived.
 1\1\GINC-SE253\SP\RHF\Aug-CC-pVDZ\C1H6B1O2P1\OHZDE\09-Apr-2025\0\\#t h
 f aug-cc-pvdz iop(5/13=1,5/36=2,99/5=2) pseudo=read geom=check guess=(
 read,tcheck) scf=(maxcycle=1)\\title\\0,1\P,0,-0.838613,-0.788495,-0.2
 67166\B,0,0.896255,0.061773,-0.017414\O,0,1.966527,-0.748092,0.202562\
 O,0,1.111781,1.410236,-0.129694\C,0,-2.0049,0.582329,0.258923\H,0,-1.7
 15085,1.089011,1.181351\H,0,-3.004747,0.165191,0.391624\H,0,-2.076601,
 1.317902,-0.547568\H,0,0.314008,1.927094,-0.266183\H,0,2.791431,-0.250
 127,0.254745\H,0,-0.808148,-1.521632,0.944101\\Version=ES64L-G16RevC.0

 Normal termination of Gaussian 16 at Wed Apr  9 00:44:00 2025.
