 Gaussian 16, Revision C.01,

 ----------------------------------------------------------------------
 #t hf aug-cc-pvdz symm=none int=(grid=ultrafine) guess=(read,tcheck) s
 table=(opt,rrhf)
 ----------------------------------------------------------------------
 -----
 title
 -----
 Symbolic Z-matrix:
 Charge =  0 Multiplicity = 1

 SCF Done:  E(RHF) =  -214.045274843     A.U. after   13 cycles
 Normal termination of Gaussian 16 at Wed Apr  9 00:35:48 2025.
 Gaussian 16:  ES64L-G16RevC.01  3-Jul-2019

 ----------------------------------------------------------------------
 #t hf aug-cc-pvdz iop(5/13=1,5/36=2,99/5=2) pseudo=read geom=check gue
 ss=(read,tcheck) scf=(maxcycle=1)
 ----------------------------------------------------------------------
 -----
 title
 -----
 Structure from the checkpoint file:  "BDE49_nonexpt_476_mol1.chk"
 Charge =  0 Multiplicity = 1

                         Standard orientation:
 ---------------------------------------------------------------------
 Center     Atomic      Atomic             Coordinates (Angstroms)
 Number     Number       Type             X           Y           Z
 ---------------------------------------------------------------------
      1          1           0       -2.021207   -0.627344   -1.035789
      2          1           0       -2.021129   -0.627345    1.035815
      3          5           0       -1.457766   -0.491468   -0.000008
      4          6           0        0.011487    0.038630   -0.000071
      5          8           0        0.103787    1.249562    0.000016
      6          8           0        1.070410   -0.785830    0.000031
      7          1           0        1.868664   -0.229603    0.000063
 ---------------------------------------------------------------------

 SCF Done:  E(RHF) =  -214.254707669     A.U. after    2 cycles

 The electronic state is 1-A.
 Alpha  occ. eigenvalues --  -20.61413 -20.54960 -11.38487  -7.63661  -1.55671
 Alpha  occ. eigenvalues --   -1.45965  -0.90187  -0.76563  -0.71439  -0.64674
 Alpha  occ. eigenvalues --   -0.64088  -0.56242  -0.53246  -0.47885  -0.44112
 Alpha virt. eigenvalues --    0.03075   0.03995   0.04275   0.04769   0.06901
 Alpha virt. eigenvalues --    0.08733   0.09811   0.10774   0.13311   0.14748
 Alpha virt. eigenvalues --    0.15475   0.15540   0.19756   0.21057   0.21562

 Mulliken charges:
               1
     1  H    0.299859
     2  H    0.299841
     3  B   -0.499431
     4  C    1.722770
     5  O   -1.067936
     6  O   -1.080135
     7  H    0.325031
 Sum of Mulliken charges =  -0.00000

 Dipole moment (field-independent basis, Debye):
    X=              0.2864    Y=             -1.6500    Z=             -0.0001  Tot=              1.6747

 Test job not archived.
 1\1\GINC-SE187\SP\RHF\Aug-CC-pVDZ\C1H3B1O2\OHZDE\09-Apr-2025\0\\#t hf
 aug-cc-pvdz iop(5/13=1,5/36=2,99/5=2) pseudo=read geom=check guess=(re
 ad,tcheck) scf=(maxcycle=1)\\title\\0,1\H,0,2.021207,-0.627344,1.03578
 9\H,0,2.021129,-0.627345,-1.035815\B,0,1.457766,-0.491468,0.000008\C,0
 ,-0.011487,0.03863,0.000071\O,0,-0.103787,1.249562,-0.000016\O,0,-1.07
 041,-0.78583,-0.000031\H,0,-1.868664,-0.229603,-0.000063\\Version=ES64
 L-G16RevC.01\State=1-A\HF=-214.2547077\RMSD=1.028e-02\Dipole=-0.112681
 ,-0.6491688,0.0000356\Quadrupole=3.3222233,-3.2134881,-0.1087353,-0.75

 Normal termination of Gaussian 16 at Wed Apr  9 00:35:51 2025.
