 Gaussian 16, Revision C.01,

 ----------------------------------------------------------------------
 #t hf aug-cc-pvdz symm=none int=(grid=ultrafine) guess=(read,tcheck) s
 table=(opt,rrhf)
 ----------------------------------------------------------------------
 -----
 title
 -----
 Symbolic Z-matrix:
 Charge =  0 Multiplicity = 1

 SCF Done:  E(RHF) =  -513.792200550     A.U. after   13 cycles
 Normal termination of Gaussian 16 at Tue Apr  8 23:52:23 2025.
 Gaussian 16:  ES64L-G16RevC.01  3-Jul-2019

 ----------------------------------------------------------------------
 #t hf aug-cc-pvdz iop(5/13=1,5/36=2,99/5=2) pseudo=read geom=check gue
 ss=(read,tcheck) scf=(maxcycle=1)
 ----------------------------------------------------------------------
 -----
 title
 -----
 Structure from the checkpoint file:  "BDE49_nonexpt_1919_mol1.chk"
 Charge =  0 Multiplicity = 1

                         Standard orientation:
 ---------------------------------------------------------------------
 Center     Atomic      Atomic             Coordinates (Angstroms)
 Number     Number       Type             X           Y           Z
 ---------------------------------------------------------------------
      1         14           0        0.428435    0.689153    0.000064
      2          6           0       -0.785703   -0.772244   -0.000006
      3          6           0       -2.164907   -0.315772   -0.000198
      4          7           0       -3.244109    0.091313    0.000137
      5          6           0        2.129951   -0.047115    0.000204
      6          1           0        0.283170    1.497566    1.221170
      7          1           0        0.283416    1.497484   -1.221124
      8          7           0        3.181317   -0.526392   -0.000280
      9          1           0       -0.600657   -1.393396    0.881653
     10          1           0       -0.600521   -1.393459   -0.881589
 ---------------------------------------------------------------------

 SCF Done:  E(RHF) =  -514.041594666     A.U. after    2 cycles

 The electronic state is 1-A.
 Alpha  occ. eigenvalues --  -69.60622 -15.54835 -15.53005 -11.30918 -11.30417
 Alpha  occ. eigenvalues --  -11.28367  -6.27524  -4.02971  -4.02862  -4.02833
 Alpha  occ. eigenvalues --   -1.25497  -1.25150  -1.06813  -0.84653  -0.72782
 Alpha  occ. eigenvalues --   -0.67654  -0.66852  -0.62184  -0.60538  -0.57991
 Alpha  occ. eigenvalues --   -0.56297  -0.53310  -0.51676  -0.50988  -0.48640
 Alpha virt. eigenvalues --    0.02574   0.03290   0.03718   0.04521   0.05868
 Alpha virt. eigenvalues --    0.06331   0.08048   0.08223   0.09321   0.09746
 Alpha virt. eigenvalues --    0.10654   0.12587   0.12778   0.13517   0.13647

 Mulliken charges:
               1
     1  Si   1.254260
     2  C   -0.211416
     3  C   -1.574248
     4  N    0.844452
     5  C   -1.288321
     6  H   -0.138133
     7  H   -0.138106
     8  N    0.785381
     9  H    0.233081
    10  H    0.233050
 Sum of Mulliken charges =   0.00000

 Dipole moment (field-independent basis, Debye):
    X=              0.4518    Y=              0.0310    Z=              0.0003  Tot=              0.4529

 Test job not archived.
 1\1\GINC-SE403\SP\RHF\Aug-CC-pVDZ\C3H4N2Si1\OHZDE\08-Apr-2025\0\\#t hf
  aug-cc-pvdz iop(5/13=1,5/36=2,99/5=2) pseudo=read geom=check guess=(r
 ead,tcheck) scf=(maxcycle=1)\\title\\0,1\Si,0,-0.428435,0.689153,-0.00
 0064\C,0,0.785703,-0.772244,0.000006\C,0,2.164907,-0.315772,0.000198\N
 ,0,3.244109,0.091313,-0.000137\C,0,-2.129951,-0.047115,-0.000204\H,0,-
 0.28317,1.497566,-1.22117\H,0,-0.283416,1.497484,1.221124\N,0,-3.18131
 7,-0.526392,0.00028\H,0,0.600657,-1.393396,-0.881653\H,0,0.600521,-1.3
 93459,0.881589\\Version=ES64L-G16RevC.01\State=1-A\HF=-514.0415947\RMS

 Normal termination of Gaussian 16 at Tue Apr  8 23:52:26 2025.
