 Gaussian 16, Revision C.01,

 ----------------------------------------------------------------------
 #t hf aug-cc-pvdz symm=none int=(grid=ultrafine) guess=(read,tcheck) s
 table=opt
 ----------------------------------------------------------------------
 -----
 title
 -----
 Symbolic Z-matrix:
 Charge =  0 Multiplicity = 2

 SCF Done:  E(UHF) =  -55.5747590373     A.U. after   12 cycles
 Normal termination of Gaussian 16 at Tue Apr  8 22:39:22 2025.
 Gaussian 16:  ES64L-G16RevC.01  3-Jul-2019

 ----------------------------------------------------------------------
 #t hf aug-cc-pvdz iop(5/13=1,5/36=2,99/5=2) pseudo=read geom=check gue
 ss=(read,tcheck) scf=(maxcycle=1)
 ----------------------------------------------------------------------
 -----
 title
 -----
 Structure from the checkpoint file:  "BDE49_expt_1293_mol3.chk"
 Charge =  0 Multiplicity = 2

                         Standard orientation:
 ---------------------------------------------------------------------
 Center     Atomic      Atomic             Coordinates (Angstroms)
 Number     Number       Type             X           Y           Z
 ---------------------------------------------------------------------
      1          7           0        0.000000   -0.000000    0.143949
      2          1           0        0.000000    0.802054   -0.503821
      3          1           0       -0.000000   -0.802054   -0.503821
 ---------------------------------------------------------------------

 SCF Done:  E(UHF) =  -55.6288346398     A.U. after    2 cycles

 The electronic state is 2-B1.
 Alpha  occ. eigenvalues --  -15.54367  -1.17307  -0.68115  -0.56463  -0.55296
 Alpha virt. eigenvalues --    0.03029   0.06217   0.15918   0.16175   0.18845
 Alpha virt. eigenvalues --    0.20896   0.27217   0.29995   0.35995   0.36407
 Alpha virt. eigenvalues --    0.39541   0.52615   0.58782   0.61128   0.67262

  Beta  occ. eigenvalues --  -15.50988  -1.04827  -0.65301  -0.50461
  Beta virt. eigenvalues --    0.03235   0.05907   0.06269   0.16253   0.19537
  Beta virt. eigenvalues --    0.20954   0.21635   0.27685   0.30508   0.36898
  Beta virt. eigenvalues --    0.37053   0.43015   0.52605   0.60419   0.61689

 Mulliken charges and spin densities:
               1          2
     1  N    0.006538   1.135907
     2  H   -0.003269  -0.067953
     3  H   -0.003269  -0.067953
 Sum of Mulliken charges =   0.00000   1.00000

 Dipole moment (field-independent basis, Debye):
    X=             -0.0000    Y=              0.0000    Z=             -1.9927  Tot=              1.9927
                          Isotropic Fermi Contact Couplings
        Atom                 a.u.       MegaHertz       Gauss      10(-4) cm-1
     1  N(14)              0.26944      87.05714      31.06415      29.03914
     2  H(1)              -0.02187     -97.77275     -34.88775     -32.61348
     3  H(1)              -0.02187     -97.77275     -34.88775     -32.61348
 --------------------------------------------------------
       Center         ----  Spin Dipole Couplings  ----
                      3XX-RR        3YY-RR        3ZZ-RR
 --------------------------------------------------------
     1   Atom        2.232540     -1.092832     -1.139708

 Normal termination of Gaussian 16 at Tue Apr  8 22:39:23 2025.
