 Gaussian 16, Revision C.01,

 ----------------------------------------------------------------------
 #t hf aug-cc-pvdz symm=none int=(grid=ultrafine) guess=(read,tcheck) s
 table=(opt,rrhf)
 ----------------------------------------------------------------------
 -----
 title
 -----
 Symbolic Z-matrix:
 Charge =  0 Multiplicity = 1

 SCF Done:  E(RHF) =  -1083.17185683     A.U. after   18 cycles
 Normal termination of Gaussian 16 at Tue Apr  8 23:33:10 2025.
 Gaussian 16:  ES64L-G16RevC.01  3-Jul-2019

 ----------------------------------------------------------------------
 #t hf aug-cc-pvdz iop(5/13=1,5/36=2,99/5=2) pseudo=read geom=check gue
 ss=(read,tcheck) scf=(maxcycle=1)
 ----------------------------------------------------------------------
 -----
 title
 -----
 Structure from the checkpoint file:  "BDE49_nonexpt_1393_mol1.chk"
 Charge =  0 Multiplicity = 1

                         Standard orientation:
 ---------------------------------------------------------------------
 Center     Atomic      Atomic             Coordinates (Angstroms)
 Number     Number       Type             X           Y           Z
 ---------------------------------------------------------------------
      1          6           0        1.961472   -1.430428    0.050819
      2          6           0        3.253564   -0.927287    0.163692
      3          6           0        3.471088    0.451734    0.146699
      4          6           0        2.392938    1.315364    0.030249
      5          6           0        1.076558    0.826389   -0.061707
      6          6           0        0.863957   -0.571105   -0.049110
      7         15           0       -0.806636   -1.259545   -0.336636
      8          6           0       -1.913161    0.157220   -0.013346
      9          1           0        4.477693    0.845880    0.221777
     10          1           0        4.091026   -1.609382    0.255521
     11          1           0        2.555895    2.387901    0.016103
     12         16           0       -3.525108   -0.114252    0.234155
     13          6           0       -0.025308    1.768633   -0.132555
     14          6           0       -1.352551    1.483616   -0.107770
     15          1           0        0.257628    2.816997   -0.166500
     16          1           0       -2.067776    2.299753   -0.101452
     17          1           0        1.806676   -2.504730    0.041841
     18          1           0       -0.991218   -1.960028    0.873941
 ---------------------------------------------------------------------

 SCF Done:  E(RHF) =  -1083.62069355     A.U. after    2 cycles

 The electronic state is 1-A.
 Alpha  occ. eigenvalues --  -93.92239 -84.29756 -11.33012 -11.29214 -11.27798
 Alpha  occ. eigenvalues --  -11.27725 -11.27107 -11.26998 -11.26771 -11.26682
 Alpha  occ. eigenvalues --  -11.26472  -8.20394  -6.76949  -6.18215  -6.18012
 Alpha  occ. eigenvalues --   -6.17811  -4.29985  -4.29749  -4.28796  -1.19375
 Alpha  occ. eigenvalues --   -1.13764  -1.07416  -1.04991  -1.01204  -0.92346
 Alpha  occ. eigenvalues --   -0.87734  -0.84238  -0.82865  -0.73183  -0.70730
 Alpha  occ. eigenvalues --   -0.69530  -0.64591  -0.63171  -0.61734  -0.59428
 Alpha  occ. eigenvalues --   -0.56581  -0.54942  -0.53687  -0.51268  -0.48651
 Alpha  occ. eigenvalues --   -0.47542  -0.41336  -0.39236  -0.34662  -0.33553
 Alpha  occ. eigenvalues --   -0.30518
 Alpha virt. eigenvalues --    0.00356   0.02561   0.02892   0.03598   0.04823
 Alpha virt. eigenvalues --    0.05528   0.06536   0.07334   0.07707   0.07882
 Alpha virt. eigenvalues --    0.07985   0.09229   0.09801   0.10344   0.10747

 Mulliken charges:
               1
     1  C   -0.030237
     2  C   -0.137444
     3  C   -0.092913
     4  C    0.308621
     5  C    0.908324
     6  C    0.148783
     7  P    0.753322
     8  C   -1.003243
     9  H   -0.230911
    10  H   -0.227635
    11  H   -0.307943
    12  S   -0.147951
    13  C    0.263649
    14  C    0.054139
    15  H   -0.327959
    16  H   -0.209802
    17  H   -0.273905
    18  H    0.553105
 Sum of Mulliken charges =  -0.00000

 Dipole moment (field-independent basis, Debye):
    X=              5.3422    Y=              0.8259    Z=              0.0567  Tot=              5.4059

 Test job not archived.
 1\1\GINC-SE218\SP\RHF\Aug-CC-pVDZ\C9H7P1S1\OHZDE\08-Apr-2025\0\\#t hf
 aug-cc-pvdz iop(5/13=1,5/36=2,99/5=2) pseudo=read geom=check guess=(re
 ad,tcheck) scf=(maxcycle=1)\\title\\0,1\C,0,1.961472,-1.430428,0.05081
 9\C,0,3.253564,-0.927287,0.163692\C,0,3.471088,0.451734,0.146699\C,0,2
 .392938,1.315364,0.030249\C,0,1.076558,0.826389,-0.061707\C,0,0.863957
 ,-0.571105,-0.04911\P,0,-0.806636,-1.259545,-0.336636\C,0,-1.913161,0.
 15722,-0.013346\H,0,4.477693,0.84588,0.221777\H,0,4.091026,-1.609382,0
 .255521\H,0,2.555895,2.387901,0.016103\S,0,-3.525108,-0.114252,0.23415

 Normal termination of Gaussian 16 at Tue Apr  8 23:33:22 2025.
