 Gaussian 16, Revision C.01,

 ----------------------------------------------------------------------
 #t hf aug-cc-pvdz symm=none int=(grid=ultrafine) guess=(read,tcheck) s
 table=(opt,rrhf)
 ----------------------------------------------------------------------
 -----
 title
 -----
 Symbolic Z-matrix:
 Charge =  0 Multiplicity = 1

 SCF Done:  E(RHF) =  -859.248816937     A.U. after   15 cycles
 Normal termination of Gaussian 16 at Tue Apr  8 23:42:39 2025.
 Gaussian 16:  ES64L-G16RevC.01  3-Jul-2019

 ----------------------------------------------------------------------
 #t hf aug-cc-pvdz iop(5/13=1,5/36=2,99/5=2) pseudo=read geom=check gue
 ss=(read,tcheck) scf=(maxcycle=1)
 ----------------------------------------------------------------------
 -----
 title
 -----
 Structure from the checkpoint file:  "BDE49_nonexpt_1689_mol1.chk"
 Charge =  0 Multiplicity = 1

                         Standard orientation:
 ---------------------------------------------------------------------
 Center     Atomic      Atomic             Coordinates (Angstroms)
 Number     Number       Type             X           Y           Z
 ---------------------------------------------------------------------
      1          6           0       -1.527299    0.314633    0.043762
      2         14           0       -0.185716   -0.980825    0.545197
      3          8           0       -1.404953    1.467982    0.364916
      4          8           0       -2.597582   -0.066511   -0.711592
      5         15           0        1.842365   -0.506687   -0.355033
      6          6           0        1.991925    1.317319    0.040559
      7          1           0        2.796907    1.727483   -0.572745
      8          1           0        2.283182    1.419888    1.087831
      9          1           0        1.075618    1.881033   -0.128227
     10          1           0       -2.565531   -1.019225   -0.862877
     11          1           0        1.325536   -0.395521   -1.673646
     12          1           0       -0.606979   -2.331574    0.088917
     13          1           0       -0.111667   -0.953704    2.020958
 ---------------------------------------------------------------------

 SCF Done:  E(RHF) =  -859.555962020     A.U. after    2 cycles

 The electronic state is 1-A.
 Alpha  occ. eigenvalues --  -84.27895 -69.56499 -20.60800 -20.54753 -11.38769
 Alpha  occ. eigenvalues --  -11.24904  -6.75087  -6.23580  -4.27381  -4.27302
 Alpha  occ. eigenvalues --   -4.26769  -3.98907  -3.98893  -3.98874  -1.54493
 Alpha  occ. eigenvalues --   -1.45969  -0.99509  -0.86945  -0.82672  -0.77693
 Alpha  occ. eigenvalues --   -0.67544  -0.65816  -0.62741  -0.59057  -0.58802
 Alpha  occ. eigenvalues --   -0.56605  -0.52303  -0.48431  -0.47720  -0.43428
 Alpha  occ. eigenvalues --   -0.42901  -0.34200
 Alpha virt. eigenvalues --    0.02967   0.03947   0.04303   0.04768   0.05748
 Alpha virt. eigenvalues --    0.06567   0.07506   0.08083   0.09130   0.09360
 Alpha virt. eigenvalues --    0.10005   0.10744   0.11421   0.11585   0.13291

 Mulliken charges:
               1
     1  C    1.353746
     2  Si   1.158589
     3  O   -1.039531
     4  O   -1.174665
     5  P   -0.403906
     6  C   -0.730519
     7  H    0.097842
     8  H    0.124908
     9  H    0.098385
    10  H    0.425074
    11  H    0.413997
    12  H   -0.187297
    13  H   -0.136624
 Sum of Mulliken charges =  -0.00000

 Dipole moment (field-independent basis, Debye):
    X=              1.3304    Y=             -2.7502    Z=             -0.4716  Tot=              3.0912

 Test job not archived.
 1\1\GINC-SE072\SP\RHF\Aug-CC-pVDZ\C2H7O2P1Si1\OHZDE\08-Apr-2025\0\\#t
 hf aug-cc-pvdz iop(5/13=1,5/36=2,99/5=2) pseudo=read geom=check guess=
 (read,tcheck) scf=(maxcycle=1)\\title\\0,1\C,0,-1.527299,0.314633,0.04
 3762\Si,0,-0.185716,-0.980825,0.545197\O,0,-1.404953,1.467982,0.364916
 \O,0,-2.597582,-0.066511,-0.711592\P,0,1.842365,-0.506687,-0.355033\C,
 0,1.991925,1.317319,0.040559\H,0,2.796907,1.727484,-0.572745\H,0,2.283
 182,1.419889,1.087831\H,0,1.075618,1.881033,-0.128227\H,0,-2.565531,-1
 .019225,-0.862877\H,0,1.325536,-0.395521,-1.673646\H,0,-0.606979,-2.33

 Normal termination of Gaussian 16 at Tue Apr  8 23:42:44 2025.
