 Gaussian 16, Revision C.01,

 ----------------------------------------------------------------------
 #t hf aug-cc-pvdz symm=none int=(grid=ultrafine) guess=(read,tcheck) s
 table=(opt,rrhf)
 ----------------------------------------------------------------------
 -----
 title
 -----
 Symbolic Z-matrix:
 Charge =  0 Multiplicity = 1

 SCF Done:  E(RHF) =  -990.565412448     A.U. after   16 cycles
 Normal termination of Gaussian 16 at Tue Apr  8 23:11:43 2025.
 Gaussian 16:  ES64L-G16RevC.01  3-Jul-2019

 ----------------------------------------------------------------------
 #t hf aug-cc-pvdz iop(5/13=1,5/36=2,99/5=2) pseudo=read geom=check gue
 ss=(read,tcheck) scf=(maxcycle=1)
 ----------------------------------------------------------------------
 -----
 title
 -----
 Structure from the checkpoint file:  "BDE49_expt_494_mol1.chk"
 Charge =  0 Multiplicity = 1

                         Standard orientation:
 ---------------------------------------------------------------------
 Center     Atomic      Atomic             Coordinates (Angstroms)
 Number     Number       Type             X           Y           Z
 ---------------------------------------------------------------------
      1          6           0       -2.128184   -1.120912   -0.050928
      2          6           0       -0.742378   -0.992384   -0.052889
      3          6           0       -2.938419    0.006300    0.001219
      4          6           0       -2.375912    1.276510    0.052367
      5          6           0       -0.993763    1.406674    0.050278
      6          6           0       -0.157903    0.280767   -0.001964
      7          1           0       -0.109335   -1.864545   -0.087941
      8          1           0       -2.575601   -2.105878   -0.089686
      9          1           0       -3.009243    2.153137    0.093213
     10          1           0       -0.558479    2.400751    0.089642
     11          7           0        1.229739    0.511990   -0.006781
     12          6           0        2.251946   -0.431192   -0.011015
     13          8           0        2.046398   -1.634496    0.026362
     14          7           0        3.525270    0.105248   -0.072951
     15          1           0        1.487930    1.482937    0.038813
     16          6           0        4.656432   -0.798338    0.098016
     17          1           0        4.289614   -1.819591    0.045423
     18          1           0        5.146456   -0.645491    1.067438
     19          1           0        5.392064   -0.637608   -0.695811
     20          6           0        3.807077    1.531691   -0.071566
     21          1           0        3.628981    2.004732    0.904458
     22          1           0        3.225481    2.057020   -0.835469
     23          1           0        4.857639    1.678550   -0.322345
     24         17           0       -4.688537   -0.170789    0.003435
 ---------------------------------------------------------------------

 SCF Done:  E(RHF) =  -991.183039014     A.U. after    2 cycles

 The electronic state is 1-A.
 Alpha  occ. eigenvalues -- -105.56534 -20.50562 -15.54855 -15.53266 -11.39511
 Alpha  occ. eigenvalues --  -11.30280 -11.29981 -11.29455 -11.27040 -11.26002
 Alpha  occ. eigenvalues --  -11.25557 -11.25498 -11.24183 -10.61317  -7.78283
 Alpha  occ. eigenvalues --   -7.77892  -7.77871  -1.46918  -1.28623  -1.24089
 Alpha  occ. eigenvalues --   -1.17369  -1.08749  -1.03398  -1.00235  -0.99692
 Alpha  occ. eigenvalues --   -0.95090  -0.87685  -0.84585  -0.80340  -0.77455
 Alpha  occ. eigenvalues --   -0.73938  -0.69093  -0.68102  -0.66393  -0.65603
 Alpha  occ. eigenvalues --   -0.62737  -0.62082  -0.61284  -0.60850  -0.58805
 Alpha  occ. eigenvalues --   -0.58559  -0.55592  -0.54825  -0.53980  -0.52751
 Alpha  occ. eigenvalues --   -0.50361  -0.45988  -0.44960  -0.44089  -0.41015
 Alpha  occ. eigenvalues --   -0.36005  -0.32172
 Alpha virt. eigenvalues --    0.02231   0.03250   0.04020   0.04217   0.04803
 Alpha virt. eigenvalues --    0.04902   0.05874   0.06367   0.06996   0.07672
 Alpha virt. eigenvalues --    0.09093   0.09582   0.09735   0.10431   0.10836

 Mulliken charges:
               1
     1  C    0.596837
     2  C    0.910308
     3  C   -0.140023
     4  C    0.437910
     5  C    0.764212
     6  C   -1.883920
     7  H   -0.350341
     8  H   -0.173591
     9  H   -0.181027
    10  H   -0.433253
    11  N    1.065742
    12  C   -0.409147
    13  O   -1.457666
    14  N    1.215195
    15  H    0.188994
    16  C   -0.156188
    17  H    0.031009
    18  H    0.212758
    19  H    0.154128
    20  C   -0.397479
    21  H    0.206381
    22  H    0.170010
    23  H   -0.033817
    24  Cl  -0.337029
 Sum of Mulliken charges =  -0.00000

 Dipole moment (field-independent basis, Debye):
    X=              4.2420    Y=              3.7985    Z=              0.0909  Tot=              5.6949

 Test job not archived.
 1\1\GINC-SE461\SP\RHF\Aug-CC-pVDZ\C9H11Cl1N2O1\OHZDE\08-Apr-2025\0\\#t
  hf aug-cc-pvdz iop(5/13=1,5/36=2,99/5=2) pseudo=read geom=check guess
 =(read,tcheck) scf=(maxcycle=1)\\title\\0,1\C,0,-2.128184,-1.120912,-0
 .050928\C,0,-0.742378,-0.992384,-0.052889\C,0,-2.938419,0.0063,0.00121
 9\C,0,-2.375912,1.27651,0.052367\C,0,-0.993763,1.406674,0.050278\C,0,-
 0.157903,0.280767,-0.001964\H,0,-0.109335,-1.864545,-0.087941\H,0,-2.5
 75601,-2.105878,-0.089686\H,0,-3.009243,2.153137,0.093213\H,0,-0.55847
 9,2.400751,0.089642\N,0,1.229739,0.51199,-0.006781\C,0,2.251946,-0.431

 Normal termination of Gaussian 16 at Tue Apr  8 23:12:02 2025.
