 Gaussian 16, Revision C.01,

 ----------------------------------------------------------------------
 #t hf aug-cc-pvdz symm=none int=(grid=ultrafine) guess=(read,tcheck) s
 table=opt
 ----------------------------------------------------------------------
 -----
 title
 -----
 Symbolic Z-matrix:
 Charge =  0 Multiplicity = 2

 SCF Done:  E(UHF) =  -389.555679944     A.U. after   13 cycles

 1\1\GINC-SE396\Stability\UHF\Aug-CC-pVDZ\F1H2Si1\OHZDE\08-Apr-2025\0\\
 #t hf aug-cc-pvdz symm=none int=(grid=ultrafine) guess=(read,tcheck) s
 table=opt\\title\\0,2\Si,0,-0.056603,-0.545753,0.\F,0,-0.056603,1.0707
 42,0.\H,0,0.650939,-0.99807,1.226739\H,0,0.650939,-0.99807,-1.226739\\
 Version=ES64L-G16RevC.01\HF=-389.5556799\S2=0.753319\S2-1=0.\S2A=0.750
 004\RMSD=8.838e-09\Dipole=0.0063572,-0.6056984,0.\Quadrupole=0.2820724
 ,-0.67952,0.3974476,-0.0144759,0.,0.\PG=Unknown\\@
 The archive entry for this job was punched.

 Normal termination of Gaussian 16 at Tue Apr  8 23:47:12 2025.
 Gaussian 16:  ES64L-G16RevC.01  3-Jul-2019

 ----------------------------------------------------------------------
 #t hf aug-cc-pvdz iop(5/13=1,5/36=2,99/5=2) pseudo=read geom=check gue
 ss=(read,tcheck) scf=(maxcycle=1)
 ----------------------------------------------------------------------
 -----
 title
 -----
 Structure from the checkpoint file:  "BDE49_nonexpt_1789_mol2.chk"
 Charge =  0 Multiplicity = 2

                         Standard orientation:
 ---------------------------------------------------------------------
 Center     Atomic      Atomic             Coordinates (Angstroms)
 Number     Number       Type             X           Y           Z
 ---------------------------------------------------------------------
      1         14           0       -0.056603   -0.545753   -0.000000
      2          9           0       -0.056603    1.070742    0.000000
      3          1           0        0.650939   -0.998070    1.226739
      4          1           0        0.650939   -0.998070   -1.226739
 ---------------------------------------------------------------------

 SCF Done:  E(UHF) =  -389.675326412     A.U. after    2 cycles

 The electronic state is 2-A'.
 Alpha  occ. eigenvalues --  -69.59797 -26.45610  -6.26400  -4.02188  -4.01493
 Alpha  occ. eigenvalues --   -4.01273  -1.56702  -0.78117  -0.65388  -0.64764
 Alpha  occ. eigenvalues --   -0.62709  -0.50411  -0.36284
 Alpha virt. eigenvalues --    0.04169   0.04860   0.05835   0.06441   0.08880
 Alpha virt. eigenvalues --    0.13610   0.14852   0.17370   0.18448   0.21718
 Alpha virt. eigenvalues --    0.24820   0.25660   0.31538   0.32021   0.32351

  Beta  occ. eigenvalues --  -69.59233 -26.45302  -6.25510  -4.01149  -4.00920
  Beta  occ. eigenvalues --   -4.00109  -1.55907  -0.75111  -0.64427  -0.62956
  Beta  occ. eigenvalues --   -0.60338  -0.48899
  Beta virt. eigenvalues --    0.01770   0.04507   0.05246   0.05962   0.08820
  Beta virt. eigenvalues --    0.09179   0.14723   0.16304   0.20114   0.21316
  Beta virt. eigenvalues --    0.22474   0.26035   0.26854   0.32128   0.32763

 Mulliken charges and spin densities:
               1          2
     1  Si   1.186587   0.885567
     2  F   -0.762579   0.010632
     3  H   -0.212004   0.051900
     4  H   -0.212004   0.051900
 Sum of Mulliken charges =   0.00000   1.00000

 Dipole moment (field-independent basis, Debye):
    X=              0.0572    Y=             -1.3822    Z=             -0.0000  Tot=              1.3834
                          Isotropic Fermi Contact Couplings
        Atom                 a.u.       MegaHertz       Gauss      10(-4) cm-1
     1  Si(29)             0.72391    -643.35783    -229.56607    -214.60107
     2  F(19)              0.04602     193.62429      69.08996      64.58611
     3  H(1)               0.01572      70.26797      25.07336      23.43887
     4  H(1)               0.01572      70.26797      25.07336      23.43887
 --------------------------------------------------------
       Center         ----  Spin Dipole Couplings  ----
                      3XX-RR        3YY-RR        3ZZ-RR
 --------------------------------------------------------

 Normal termination of Gaussian 16 at Tue Apr  8 23:47:13 2025.
