 Gaussian 16, Revision C.01,

 ----------------------------------------------------------------------
 #t hf aug-cc-pvdz symm=none int=(grid=ultrafine) guess=(read,tcheck) s
 table=opt
 ----------------------------------------------------------------------
 -----
 title
 -----
 Symbolic Z-matrix:
 Charge =  0 Multiplicity = 2

 SCF Done:  E(UHF) =  -592.223807732     A.U. after   17 cycles
 Normal termination of Gaussian 16 at Tue Apr  8 23:59:44 2025.
 Gaussian 16:  ES64L-G16RevC.01  3-Jul-2019

 ----------------------------------------------------------------------
 #t hf aug-cc-pvdz iop(5/13=1,5/36=2,99/5=2) pseudo=read geom=check gue
 ss=(read,tcheck) scf=(maxcycle=1)
 ----------------------------------------------------------------------
 -----
 title
 -----
 Structure from the checkpoint file:  "BDE49_nonexpt_2073_mol2.chk"
 Charge =  0 Multiplicity = 2

                         Standard orientation:
 ---------------------------------------------------------------------
 Center     Atomic      Atomic             Coordinates (Angstroms)
 Number     Number       Type             X           Y           Z
 ---------------------------------------------------------------------
      1         14           0        2.280645   -0.089292    0.000148
      2          8           0        0.706605   -0.710176   -0.000065
      3          6           0       -0.388385    0.069783   -0.000274
      4          8           0       -0.375090    1.274732   -0.000093
      5          8           0       -1.474080   -0.703977   -0.000064
      6          6           0       -2.726907    0.006426    0.000106
      7          1           0       -2.810586    0.631997    0.889671
      8          1           0       -3.492902   -0.765241    0.000261
      9          1           0       -2.810864    0.631918   -0.889489
     10          1           0        2.508613    0.704841    1.231357
     11          1           0        2.508989    0.704690   -1.231090
 ---------------------------------------------------------------------

 SCF Done:  E(UHF) =  -592.549035900     A.U. after    2 cycles

 The electronic state is 2-A.
 Alpha  occ. eigenvalues --  -69.58825 -20.60458 -20.58906 -20.54249 -11.45158
 Alpha  occ. eigenvalues --  -11.30657  -6.25423  -4.01322  -4.00575  -4.00377
 Alpha  occ. eigenvalues --   -1.58960  -1.48808  -1.46111  -0.99462  -0.85526
 Alpha  occ. eigenvalues --   -0.76947  -0.73046  -0.70486  -0.69073  -0.61959
 Alpha  occ. eigenvalues --   -0.61910  -0.56710  -0.54284  -0.53351  -0.47910
 Alpha  occ. eigenvalues --   -0.47014  -0.46834  -0.36193
 Alpha virt. eigenvalues --    0.03600   0.04060   0.05263   0.05340   0.05531
 Alpha virt. eigenvalues --    0.06707   0.07436   0.09299   0.10539   0.13383
 Alpha virt. eigenvalues --    0.13522   0.13766   0.14546   0.14590   0.15718

  Beta  occ. eigenvalues --  -69.58238 -20.60458 -20.58797 -20.54263 -11.45073
  Beta  occ. eigenvalues --  -11.30655  -6.24504  -4.00191  -4.00000  -3.99155
  Beta  occ. eigenvalues --   -1.58857  -1.48659  -1.46026  -0.99304  -0.84305
  Beta  occ. eigenvalues --   -0.76260  -0.72229  -0.70436  -0.66957  -0.61783
  Beta  occ. eigenvalues --   -0.61772  -0.55979  -0.54002  -0.52708  -0.47270
  Beta  occ. eigenvalues --   -0.46894  -0.46785
  Beta virt. eigenvalues --    0.02165   0.03691   0.04556   0.05303   0.05603
  Beta virt. eigenvalues --    0.05830   0.06831   0.08902   0.09505   0.10638
  Beta virt. eigenvalues --    0.13525   0.13974   0.14582   0.14603   0.15007

 Mulliken charges and spin densities:
               1          2
     1  Si   1.036074   1.032177
     2  O   -1.323385  -0.152026
     3  C    2.190211   0.035647
     4  O   -0.909580  -0.005593
     5  O   -1.169404  -0.003848
     6  C    0.185188  -0.001056
     7  H    0.162248  -0.000261
     8  H   -0.002821   0.000005
     9  H    0.162237  -0.000261
    10  H   -0.165369   0.047614
    11  H   -0.165398   0.047603
 Sum of Mulliken charges =  -0.00000   1.00000

 Dipole moment (field-independent basis, Debye):
    X=             -0.6654    Y=             -0.5315    Z=             -0.0000  Tot=              0.8516
                          Isotropic Fermi Contact Couplings
        Atom                 a.u.       MegaHertz       Gauss      10(-4) cm-1
     1  Si(29)             0.71994    -639.83412    -228.30872    -213.42569
     2  O(17)              0.07466     -45.26123     -16.15033     -15.09752
     3  C(13)              0.01978      22.23115       7.93263       7.41551
     4  O(17)             -0.00040       0.24545       0.08758       0.08187
     5  O(17)              0.00089      -0.54203      -0.19341      -0.18080
     6  C(13)              0.00045       0.51146       0.18250       0.17060
     7  H(1)              -0.00002      -0.08940      -0.03190      -0.02982
     8  H(1)               0.00002       0.09771       0.03487       0.03259

 Normal termination of Gaussian 16 at Tue Apr  8 23:59:48 2025.
