 Gaussian 16, Revision C.01,

 ----------------------------------------------------------------------
 #t hf aug-cc-pvdz symm=none int=(grid=ultrafine) guess=(read,tcheck) s
 table=opt
 ----------------------------------------------------------------------
 -----
 title
 -----
 Symbolic Z-matrix:
 Charge =  0 Multiplicity = 2

 SCF Done:  E(UHF) =  -495.554109437     A.U. after   15 cycles
 Normal termination of Gaussian 16 at Tue Apr  8 23:42:15 2025.
 Gaussian 16:  ES64L-G16RevC.01  3-Jul-2019

 ----------------------------------------------------------------------
 #t hf aug-cc-pvdz iop(5/13=1,5/36=2,99/5=2) pseudo=read geom=check gue
 ss=(read,tcheck) scf=(maxcycle=1)
 ----------------------------------------------------------------------
 -----
 title
 -----
 Structure from the checkpoint file:  "BDE49_nonexpt_1686_mol2.chk"
 Charge =  0 Multiplicity = 2

                         Standard orientation:
 ---------------------------------------------------------------------
 Center     Atomic      Atomic             Coordinates (Angstroms)
 Number     Number       Type             X           Y           Z
 ---------------------------------------------------------------------
      1         14           0       -0.039397   -0.055882   -0.392783
      2          7           0        0.711742    1.379235    0.191637
      3          8           0       -1.612015   -0.080825    0.119207
      4          1           0        0.326580    2.278759   -0.060547
      5          1           0        1.722300    1.410795    0.219876
      6          1           0       -1.765394    0.140825    1.045692
      7          8           0        0.921829   -1.241138    0.261273
      8          1           0        0.807360   -2.126964   -0.091362
 ---------------------------------------------------------------------

 SCF Done:  E(UHF) =  -495.789142076     A.U. after    2 cycles

 The electronic state is 2-A.
 Alpha  occ. eigenvalues --  -69.59247 -20.55224 -20.54738 -15.48825  -6.25433
 Alpha  occ. eigenvalues --   -4.01110  -4.00601  -4.00484  -1.44775  -1.42747
 Alpha  occ. eigenvalues --   -1.15256  -0.77940  -0.72085  -0.68775  -0.64290
 Alpha  occ. eigenvalues --   -0.58742  -0.57023  -0.52136  -0.49297  -0.48317
 Alpha  occ. eigenvalues --   -0.33892
 Alpha virt. eigenvalues --    0.03529   0.04635   0.05528   0.06182   0.07005
 Alpha virt. eigenvalues --    0.07486   0.08760   0.12867   0.16149   0.17865
 Alpha virt. eigenvalues --    0.17988   0.19352   0.20217   0.21820   0.22037

  Beta  occ. eigenvalues --  -69.58707 -20.54819 -20.54490 -15.48354  -6.24526
  Beta  occ. eigenvalues --   -4.00272  -4.00159  -3.99340  -1.43752  -1.41848
  Beta  occ. eigenvalues --   -1.13860  -0.76102  -0.71087  -0.68029  -0.63402
  Beta  occ. eigenvalues --   -0.57232  -0.54652  -0.51385  -0.48761  -0.45726
  Beta virt. eigenvalues --    0.02252   0.04780   0.05628   0.06050   0.06731
  Beta virt. eigenvalues --    0.07597   0.08004   0.08965   0.15475   0.16654
  Beta virt. eigenvalues --    0.18242   0.19290   0.20246   0.20535   0.22319

 Mulliken charges and spin densities:
               1          2
     1  Si   2.025143   0.924815
     2  N   -0.152376   0.103505
     3  O   -1.336771  -0.042505
     4  H   -0.010936  -0.013445
     5  H   -0.038934  -0.007718
     6  H    0.403769   0.015399
     7  O   -1.296577   0.041830
     8  H    0.406682  -0.021881
 Sum of Mulliken charges =  -0.00000   1.00000

 Dipole moment (field-independent basis, Debye):
    X=              0.5384    Y=              0.3717    Z=             -0.0714  Tot=              0.6582
                          Isotropic Fermi Contact Couplings
        Atom                 a.u.       MegaHertz       Gauss      10(-4) cm-1
     1  Si(29)             0.93310    -829.27443    -295.90574    -276.61618
     2  N(14)              0.07531      24.33461       8.68319       8.11715
     3  O(17)              0.12802     -77.60528     -27.69149     -25.88634
     4  H(1)              -0.00242     -10.81526      -3.85915      -3.60758
     5  H(1)              -0.00237     -10.57779      -3.77442      -3.52837
     6  H(1)               0.00826      36.89949      13.16666      12.30835
     7  O(17)              0.05011     -30.37800     -10.83962     -10.13301
     8  H(1)              -0.00142      -6.33718      -2.26127      -2.11386

 Normal termination of Gaussian 16 at Tue Apr  8 23:42:18 2025.
