 Gaussian 16, Revision C.01,

 ----------------------------------------------------------------------
 #t hf aug-cc-pvdz symm=none int=(grid=ultrafine) guess=(read,tcheck) s
 table=(opt,rrhf)
 ----------------------------------------------------------------------
 -----
 title
 -----
 Symbolic Z-matrix:
 Charge =  0 Multiplicity = 1

 SCF Done:  E(RHF) =  -480.461290005     A.U. after   15 cycles
 Normal termination of Gaussian 16 at Wed Apr  9 00:42:51 2025.
 Gaussian 16:  ES64L-G16RevC.01  3-Jul-2019

 ----------------------------------------------------------------------
 #t hf aug-cc-pvdz iop(5/13=1,5/36=2,99/5=2) pseudo=read geom=check gue
 ss=(read,tcheck) scf=(maxcycle=1)
 ----------------------------------------------------------------------
 -----
 title
 -----
 Structure from the checkpoint file:  "BDE49_nonexpt_729_mol1.chk"
 Charge =  0 Multiplicity = 1

                         Standard orientation:
 ---------------------------------------------------------------------
 Center     Atomic      Atomic             Coordinates (Angstroms)
 Number     Number       Type             X           Y           Z
 ---------------------------------------------------------------------
      1          6           0       -1.014729    0.448950   -0.172429
      2          5           0        1.949916    0.599300    0.261317
      3          8           0       -2.043139    0.037208    0.290421
      4         15           0        0.561775   -0.519819   -0.226164
      5          1           0        2.892415    0.155581    0.829947
      6          1           0        1.930096    1.724510   -0.121716
      7          1           0       -0.931561    1.443600   -0.660324
      8          1           0        0.366334   -1.514275    0.749174
 ---------------------------------------------------------------------

 SCF Done:  E(RHF) =  -480.642732083     A.U. after    2 cycles

 The electronic state is 1-A.
 Alpha  occ. eigenvalues --  -84.28121 -20.56534 -11.36689  -7.63152  -6.75849
 Alpha  occ. eigenvalues --   -4.28486  -4.28384  -4.27435  -1.49682  -0.95339
 Alpha  occ. eigenvalues --   -0.81312  -0.71598  -0.66637  -0.61162  -0.55483
 Alpha  occ. eigenvalues --   -0.53322  -0.49284  -0.40629  -0.34813
 Alpha virt. eigenvalues --    0.02842   0.03571   0.03742   0.04919   0.06949
 Alpha virt. eigenvalues --    0.07081   0.07978   0.08648   0.10224   0.11501
 Alpha virt. eigenvalues --    0.12295   0.12505   0.13543   0.14567   0.15347

 Mulliken charges:
               1
     1  C    0.273608
     2  B   -0.235397
     3  O   -1.001996
     4  P   -0.146519
     5  H    0.304349
     6  H    0.293188
     7  H    0.111725
     8  H    0.401042
 Sum of Mulliken charges =  -0.00000

 Dipole moment (field-independent basis, Debye):
    X=              2.1861    Y=              0.4574    Z=             -0.4584  Tot=              2.2800

 Test job not archived.
 1\1\GINC-SE073\SP\RHF\Aug-CC-pVDZ\C1H4B1O1P1\OHZDE\09-Apr-2025\0\\#t h
 f aug-cc-pvdz iop(5/13=1,5/36=2,99/5=2) pseudo=read geom=check guess=(
 read,tcheck) scf=(maxcycle=1)\\title\\0,1\C,0,-1.014729,0.44895,-0.172
 429\B,0,1.949916,0.5993,0.261317\O,0,-2.043139,0.037209,0.290421\P,0,0
 .561775,-0.519819,-0.226164\H,0,2.892415,0.15558,0.829947\H,0,1.930097
 ,1.72451,-0.121716\H,0,-0.931561,1.4436,-0.660324\H,0,0.366334,-1.5142
 75,0.749174\\Version=ES64L-G16RevC.01\State=1-A\HF=-480.6427321\RMSD=3
 .273e-02\Dipole=0.8600965,0.1799481,-0.1803553\Quadrupole=-3.746079,2.

 Normal termination of Gaussian 16 at Wed Apr  9 00:42:53 2025.
