 Gaussian 16, Revision C.01,

 ----------------------------------------------------------------------
 #t hf aug-cc-pvdz symm=none int=(grid=ultrafine) guess=(read,tcheck) s
 table=(opt,rrhf)
 ----------------------------------------------------------------------
 -----
 title
 -----
 Symbolic Z-matrix:
 Charge =  0 Multiplicity = 1

 SCF Done:  E(RHF) =  -530.608652643     A.U. after   13 cycles
 Normal termination of Gaussian 16 at Wed Apr  9 00:53:00 2025.
 Gaussian 16:  ES64L-G16RevC.01  3-Jul-2019

 ----------------------------------------------------------------------
 #t hf aug-cc-pvdz iop(5/13=1,5/36=2,99/5=2) pseudo=read geom=check gue
 ss=(read,tcheck) scf=(maxcycle=1)
 ----------------------------------------------------------------------
 -----
 title
 -----
 Structure from the checkpoint file:  "BDE49_nonexpt_990_mol1.chk"
 Charge =  0 Multiplicity = 1

                         Standard orientation:
 ---------------------------------------------------------------------
 Center     Atomic      Atomic             Coordinates (Angstroms)
 Number     Number       Type             X           Y           Z
 ---------------------------------------------------------------------
      1         16           0        1.659353    0.146084    0.000000
      2          7           0        0.000000    0.482857    0.000000
      3          6           0       -0.889696   -0.424312    0.000000
      4          6           0       -2.347406   -0.077638    0.000000
      5          1           0       -0.633212   -1.493266    0.000000
      6          1           0       -2.478477    1.004280    0.000000
      7          1           0       -2.842851   -0.501129    0.880689
      8          1           0       -2.842851   -0.501129   -0.880689
      9          1           0        1.670351   -1.214394    0.000000
 ---------------------------------------------------------------------

 SCF Done:  E(RHF) =  -530.808205644     A.U. after    2 cycles

 The electronic state is 1-A'.
 Alpha  occ. eigenvalues --  -93.98169 -15.53315 -11.30370 -11.24838  -8.25954
 Alpha  occ. eigenvalues --   -6.23810  -6.23592  -6.23364  -1.25558  -1.04559
 Alpha  occ. eigenvalues --   -0.96227  -0.79476  -0.69466  -0.63297  -0.60364
 Alpha  occ. eigenvalues --   -0.55990  -0.52262  -0.49573  -0.46053  -0.35392
 Alpha virt. eigenvalues --    0.03406   0.04300   0.05129   0.05303   0.07099
 Alpha virt. eigenvalues --    0.08478   0.09268   0.10719   0.12052   0.13790
 Alpha virt. eigenvalues --    0.14922   0.15549   0.15835   0.15932   0.16721

 Mulliken charges:
               1
     1  S    0.058970
     2  N    0.310414
     3  C   -0.711315
     4  C   -0.487120
     5  H   -0.109823
     6  H    0.176846
     7  H    0.222805
     8  H    0.222805
     9  H    0.316418
 Sum of Mulliken charges =  -0.00000

 Dipole moment (field-independent basis, Debye):
    X=             -1.8057    Y=             -2.7925    Z=             -0.0000  Tot=              3.3255

 Test job not archived.
 1\1\GINC-SE070\SP\RHF\Aug-CC-pVDZ\C2H5N1S1\OHZDE\09-Apr-2025\0\\#t hf
 aug-cc-pvdz iop(5/13=1,5/36=2,99/5=2) pseudo=read geom=check guess=(re
 ad,tcheck) scf=(maxcycle=1)\\title\\0,1\S,0,1.659353,0.146083,0.\N,0,0
 .,0.482857,0.\C,0,-0.889696,-0.424312,0.\C,0,-2.347406,-0.077637,0.\H,
 0,-0.633213,-1.493266,0.\H,0,-2.478477,1.004281,0.\H,0,-2.842851,-0.50
 1128,0.880689\H,0,-2.842851,-0.501128,-0.880689\H,0,1.670351,-1.214395
 ,0.\\Version=ES64L-G16RevC.01\State=1-A'\HF=-530.8082056\RMSD=1.550e-0
 2\Dipole=-0.7104212,-1.0986614,0.\Quadrupole=1.9755451,0.2626956,-2.23

 Normal termination of Gaussian 16 at Wed Apr  9 00:53:02 2025.
