 Gaussian 16, Revision C.01,

 ----------------------------------------------------------------------
 #t hf aug-cc-pvdz symm=none int=(grid=ultrafine) guess=(read,tcheck) s
 table=(opt,rrhf)
 ----------------------------------------------------------------------
 -----
 title
 -----
 Symbolic Z-matrix:
 Charge =  0 Multiplicity = 1

 SCF Done:  E(RHF) =  -332.459804661     A.U. after   12 cycles
 Normal termination of Gaussian 16 at Wed Apr  9 00:22:50 2025.
 Gaussian 16:  ES64L-G16RevC.01  3-Jul-2019

 ----------------------------------------------------------------------
 #t hf aug-cc-pvdz iop(5/13=1,5/36=2,99/5=2) pseudo=read geom=check gue
 ss=(read,tcheck) scf=(maxcycle=1)
 ----------------------------------------------------------------------
 -----
 title
 -----
 Structure from the checkpoint file:  "BDE49_nonexpt_265_mol1.chk"
 Charge =  0 Multiplicity = 1

                         Standard orientation:
 ---------------------------------------------------------------------
 Center     Atomic      Atomic             Coordinates (Angstroms)
 Number     Number       Type             X           Y           Z
 ---------------------------------------------------------------------
      1          6           0       -0.388193   -0.723417    0.000006
      2          5           0       -1.792794    0.001032    0.000010
      3          8           0       -2.924203   -0.763037   -0.000007
      4          8           0       -1.957246    1.364536   -0.000004
      5          6           0        0.850657    0.184709    0.000003
      6          1           0       -0.356273   -1.395700    0.868025
      7          6           0        2.182688   -0.575152    0.000001
      8          1           0        0.827420    0.845154    0.878726
      9          1           0        0.827416    0.845153   -0.878721
     10          6           0        3.407513    0.342942   -0.000002
     11          1           0        2.216218   -1.234349   -0.875806
     12          1           0        2.216221   -1.234348    0.875808
     13          1           0        3.418217    0.989973   -0.883137
     14          1           0        4.337744   -0.231590   -0.000003
     15          1           0        3.418220    0.989974    0.883132
     16          1           0       -0.356276   -1.395701   -0.868012
     17          1           0       -3.720426   -0.220974   -0.000015
     18          1           0       -1.128908    1.850762   -0.000005
 ---------------------------------------------------------------------

 SCF Done:  E(RHF) =  -332.812695086     A.U. after    2 cycles

 The electronic state is 1-A.
 Alpha  occ. eigenvalues --  -20.55540 -20.54572 -11.23522 -11.23012 -11.22556
 Alpha  occ. eigenvalues --  -11.20776  -7.62950  -1.47538  -1.43152  -1.07799
 Alpha  occ. eigenvalues --   -0.98717  -0.87456  -0.80313  -0.75762  -0.71744
 Alpha  occ. eigenvalues --   -0.65147  -0.63018  -0.58879  -0.58824  -0.55374
 Alpha  occ. eigenvalues --   -0.55203  -0.54870  -0.50353  -0.50331  -0.48668
 Alpha  occ. eigenvalues --   -0.48230  -0.47126  -0.45121
 Alpha virt. eigenvalues --    0.03290   0.03569   0.03708   0.03942   0.05378
 Alpha virt. eigenvalues --    0.06192   0.06314   0.06942   0.07926   0.08667
 Alpha virt. eigenvalues --    0.08918   0.09513   0.10721   0.11122   0.12745

 Mulliken charges:
               1
     1  C   -0.087402
     2  B    1.815918
     3  O   -1.460628
     4  O   -1.362701
     5  C   -0.481623
     6  H    0.105286
     7  C   -0.225126
     8  H    0.046571
     9  H    0.046572
    10  C   -0.374777
    11  H    0.140251
    12  H    0.140250
    13  H    0.159797
    14  H    0.115043
    15  H    0.159796
    16  H    0.105281
    17  H    0.483654
    18  H    0.673838
 Sum of Mulliken charges =  -0.00000

 Dipole moment (field-independent basis, Debye):
    X=              1.1341    Y=              0.9668    Z=              0.0000  Tot=              1.4902

 Test job not archived.
 1\1\GINC-SE186\SP\RHF\Aug-CC-pVDZ\C4H11B1O2\OHZDE\09-Apr-2025\0\\#t hf
  aug-cc-pvdz iop(5/13=1,5/36=2,99/5=2) pseudo=read geom=check guess=(r
 ead,tcheck) scf=(maxcycle=1)\\title\\0,1\C,0,-0.388193,-0.723417,0.000
 006\B,0,-1.792794,0.001032,0.00001\O,0,-2.924203,-0.763037,-0.000007\O
 ,0,-1.957246,1.364536,-0.000004\C,0,0.850657,0.184709,0.000003\H,0,-0.
 356273,-1.3957,0.868025\C,0,2.182688,-0.575152,0.000001\H,0,0.82742,0.
 845154,0.878726\H,0,0.827416,0.845153,-0.878721\C,0,3.407513,0.342942,
 -0.000002\H,0,2.216218,-1.234349,-0.875806\H,0,2.216221,-1.234348,0.87

 Normal termination of Gaussian 16 at Wed Apr  9 00:22:57 2025.
