 Gaussian 16, Revision C.01,

 ----------------------------------------------------------------------
 #t hf aug-cc-pvdz symm=none int=(grid=ultrafine) guess=(read,tcheck) s
 table=(opt,rrhf)
 ----------------------------------------------------------------------
 -----
 title
 -----
 Symbolic Z-matrix:
 Charge =  0 Multiplicity = 1

 SCF Done:  E(RHF) =  -702.461039638     A.U. after   15 cycles
 Normal termination of Gaussian 16 at Wed Apr  9 00:41:18 2025.
 Gaussian 16:  ES64L-G16RevC.01  3-Jul-2019

 ----------------------------------------------------------------------
 #t hf aug-cc-pvdz iop(5/13=1,5/36=2,99/5=2) pseudo=read geom=check gue
 ss=(read,tcheck) scf=(maxcycle=1)
 ----------------------------------------------------------------------
 -----
 title
 -----
 Structure from the checkpoint file:  "BDE49_nonexpt_632_mol1.chk"
 Charge =  0 Multiplicity = 1

                         Standard orientation:
 ---------------------------------------------------------------------
 Center     Atomic      Atomic             Coordinates (Angstroms)
 Number     Number       Type             X           Y           Z
 ---------------------------------------------------------------------
      1          9           0       -0.432729    2.023495   -0.000002
      2          9           0        3.303191   -0.800795    0.000000
      3          9           0        2.227733    1.688276   -0.000002
      4          8           0       -3.120591   -1.329983   -0.000001
      5          8           0       -3.050158    1.014091   -0.000001
      6          6           0        1.430745    0.612958   -0.000001
      7          6           0       -0.822389   -0.332307    0.000001
      8          6           0       -0.232184   -1.607608    0.000002
      9          1           0       -0.883661   -2.471898    0.000004
     10          6           0        0.049516    0.752632    0.000000
     11          6           0        1.146071   -1.784923    0.000002
     12          1           0        1.599092   -2.768087    0.000003
     13          6           0        1.968925   -0.668480    0.000000
     14          5           0       -2.389073   -0.178502    0.000002
     15          1           0       -2.465119    1.777668   -0.000001
     16          1           0       -4.066812   -1.150448   -0.000002
 ---------------------------------------------------------------------

 SCF Done:  E(RHF) =  -703.132652937     A.U. after    2 cycles

 The electronic state is 1-A.
 Alpha  occ. eigenvalues --  -26.51284 -26.50510 -26.50415 -20.56665 -20.56580
 Alpha  occ. eigenvalues --  -11.37361 -11.37283 -11.36436 -11.28198 -11.27485
 Alpha  occ. eigenvalues --  -11.25638  -7.66134  -1.64799  -1.63746  -1.62432
 Alpha  occ. eigenvalues --   -1.49245  -1.45037  -1.19474  -1.05657  -1.05624
 Alpha  occ. eigenvalues --   -0.90625  -0.89223  -0.80514  -0.78719  -0.77290
 Alpha  occ. eigenvalues --   -0.76485  -0.74243  -0.72680  -0.70180  -0.69812
 Alpha  occ. eigenvalues --   -0.67909  -0.67023  -0.66612  -0.65847  -0.61788
 Alpha  occ. eigenvalues --   -0.59336  -0.58412  -0.57456  -0.55757  -0.52844
 Alpha  occ. eigenvalues --   -0.51553  -0.50195  -0.37855  -0.37286
 Alpha virt. eigenvalues --    0.03203   0.03930   0.04517   0.04683   0.05705
 Alpha virt. eigenvalues --    0.06558   0.07048   0.08435   0.09290   0.09378
 Alpha virt. eigenvalues --    0.09922   0.11302   0.12046   0.12939   0.12946

 Mulliken charges:
               1
     1  F   -1.096438
     2  F   -0.991078
     3  F   -0.975182
     4  O   -1.341551
     5  O   -1.492820
     6  C    0.581711
     7  C   -0.235379
     8  C    0.561435
     9  H   -0.311819
    10  C    1.593949
    11  C   -0.149372
    12  H   -0.181661
    13  C    1.530054
    14  B    1.322141
    15  H    0.693264
    16  H    0.492748
 Sum of Mulliken charges =  -0.00000

 Dipole moment (field-independent basis, Debye):
    X=             -1.2848    Y=             -1.3322    Z=              0.0000  Tot=              1.8508

 Test job not archived.
 1\1\GINC-SE016\SP\RHF\Aug-CC-pVDZ\C6H4B1F3O2\OHZDE\09-Apr-2025\0\\#t h
 f aug-cc-pvdz iop(5/13=1,5/36=2,99/5=2) pseudo=read geom=check guess=(
 read,tcheck) scf=(maxcycle=1)\\title\\0,1\F,0,0.432729,2.023495,0.0000
 02\F,0,-3.303191,-0.800795,0.\F,0,-2.227733,1.688276,0.000002\O,0,3.12
 0591,-1.329983,0.000001\O,0,3.050158,1.014091,0.000001\C,0,-1.430745,0
 .612958,0.000001\C,0,0.822389,-0.332307,-0.000001\C,0,0.232184,-1.6076
 08,-0.000002\H,0,0.883661,-2.471898,-0.000004\C,0,-0.049516,0.752632,0
 .\C,0,-1.146071,-1.784923,-0.000002\H,0,-1.599092,-2.768087,-0.000003\

 Normal termination of Gaussian 16 at Wed Apr  9 00:41:27 2025.
