 Gaussian 16, Revision C.01,

 ----------------------------------------------------------------------
 #t hf aug-cc-pvdz symm=none int=(grid=ultrafine) guess=(read,tcheck) s
 table=(opt,rrhf)
 ----------------------------------------------------------------------
 -----
 title
 -----
 Symbolic Z-matrix:
 Charge =  0 Multiplicity = 1

 SCF Done:  E(RHF) =  -1054.64582625     A.U. after   15 cycles
 Normal termination of Gaussian 16 at Wed Apr  9 00:04:20 2025.
 Gaussian 16:  ES64L-G16RevC.01  3-Jul-2019

 ----------------------------------------------------------------------
 #t hf aug-cc-pvdz iop(5/13=1,5/36=2,99/5=2) pseudo=read geom=check gue
 ss=(read,tcheck) scf=(maxcycle=1)
 ----------------------------------------------------------------------
 -----
 title
 -----
 Structure from the checkpoint file:  "BDE49_nonexpt_2186_mol1.chk"
 Charge =  0 Multiplicity = 1

                         Standard orientation:
 ---------------------------------------------------------------------
 Center     Atomic      Atomic             Coordinates (Angstroms)
 Number     Number       Type             X           Y           Z
 ---------------------------------------------------------------------
      1          6           0        1.996229    1.136633    0.000000
      2          6           0        1.494147   -0.158177    0.000001
      3          6           0        0.126970   -0.418094    0.000000
      4          6           0        1.089345    2.196344   -0.000001
      5          6           0       -0.280853    1.969177   -0.000002
      6          6           0       -0.763640    0.658065   -0.000001
      7          1           0        3.063848    1.309065    0.000001
      8         17           0        2.609441   -1.516150    0.000003
      9          1           0       -0.226643   -1.441227    0.000001
     10          1           0        1.462227    3.214014   -0.000002
     11          1           0       -0.992125    2.785056   -0.000003
     12          8           0       -2.116957    0.487241   -0.000002
     13         14           0       -3.050800   -0.891388   -0.000001
     14          1           0       -4.439618   -0.402697   -0.000002
     15          1           0       -2.777264   -1.705920    1.205063
     16          1           0       -2.777263   -1.705923   -1.205062
 ---------------------------------------------------------------------

 SCF Done:  E(RHF) =  -1055.06275447     A.U. after    2 cycles

 The electronic state is 1-A.
 Alpha  occ. eigenvalues -- -105.57534 -69.57585 -20.57181 -11.33006 -11.31995
 Alpha  occ. eigenvalues --  -11.26419 -11.25879 -11.25334 -11.24914 -10.62327
 Alpha  occ. eigenvalues --   -7.79293  -7.78895  -7.78878  -6.24179  -3.99684
 Alpha  occ. eigenvalues --   -3.99530  -3.99507  -1.48865  -1.18558  -1.09816
 Alpha  occ. eigenvalues --   -1.03314  -0.99503  -0.87526  -0.83833  -0.77643
 Alpha  occ. eigenvalues --   -0.71847  -0.68986  -0.66431  -0.63381  -0.61781
 Alpha  occ. eigenvalues --   -0.60514  -0.56908  -0.55124  -0.54704  -0.52345
 Alpha  occ. eigenvalues --   -0.49515  -0.48293  -0.46783  -0.46351  -0.35945
 Alpha  occ. eigenvalues --   -0.33622
 Alpha virt. eigenvalues --    0.03230   0.03510   0.04207   0.05187   0.05437
 Alpha virt. eigenvalues --    0.05475   0.07298   0.08293   0.08631   0.09607
 Alpha virt. eigenvalues --    0.09902   0.10354   0.11225   0.12391   0.12468

 Mulliken charges:
               1
     1  C    0.075839
     2  C    0.120315
     3  C    0.078631
     4  C    0.897019
     5  C   -0.324262
     6  C    1.737396
     7  H   -0.171626
     8  Cl  -0.334644
     9  H   -0.234926
    10  H   -0.205902
    11  H   -0.246815
    12  O   -2.263601
    13  Si   1.317175
    14  H   -0.175845
    15  H   -0.134376
    16  H   -0.134376
 Sum of Mulliken charges =  -0.00000

 Dipole moment (field-independent basis, Debye):
    X=             -1.2505    Y=              0.8206    Z=             -0.0000  Tot=              1.4957

 Test job not archived.
 1\1\GINC-SE365\SP\RHF\Aug-CC-pVDZ\C6H7Cl1O1Si1\OHZDE\09-Apr-2025\0\\#t
  hf aug-cc-pvdz iop(5/13=1,5/36=2,99/5=2) pseudo=read geom=check guess
 =(read,tcheck) scf=(maxcycle=1)\\title\\0,1\C,0,1.996229,1.136633,0.\C
 ,0,1.494147,-0.158177,0.000001\C,0,0.12697,-0.418094,0.\C,0,1.089345,2
 .196344,-0.000001\C,0,-0.280853,1.969177,-0.000002\C,0,-0.76364,0.6580
 65,-0.000001\H,0,3.063848,1.309065,0.000001\Cl,0,2.609441,-1.51615,0.0
 00003\H,0,-0.226643,-1.441227,0.000001\H,0,1.462227,3.214014,-0.000002
 \H,0,-0.992125,2.785056,-0.000003\O,0,-2.116957,0.487241,-0.000002\Si,

 Normal termination of Gaussian 16 at Wed Apr  9 00:04:27 2025.
