 Gaussian 16, Revision C.01,

 ----------------------------------------------------------------------
 #t hf aug-cc-pvdz symm=none int=(grid=ultrafine) guess=(read,tcheck) s
 table=(opt,rrhf)
 ----------------------------------------------------------------------
 -----
 title
 -----
 Symbolic Z-matrix:
 Charge =  0 Multiplicity = 1

 SCF Done:  E(RHF) =  -201.523025678     A.U. after   12 cycles
 Normal termination of Gaussian 16 at Tue Apr  8 23:59:22 2025.
 Gaussian 16:  ES64L-G16RevC.01  3-Jul-2019

 ----------------------------------------------------------------------
 #t hf aug-cc-pvdz iop(5/13=1,5/36=2,99/5=2) pseudo=read geom=check gue
 ss=(read,tcheck) scf=(maxcycle=1)
 ----------------------------------------------------------------------
 -----
 title
 -----
 Structure from the checkpoint file:  "BDE49_nonexpt_20_mol1.chk"
 Charge =  0 Multiplicity = 1

                         Standard orientation:
 ---------------------------------------------------------------------
 Center     Atomic      Atomic             Coordinates (Angstroms)
 Number     Number       Type             X           Y           Z
 ---------------------------------------------------------------------
      1          5           0       -0.786261    0.425691    0.321479
      2          5           0        0.786261    0.425693   -0.321476
      3          8           0        1.741868   -0.373847    0.224957
      4          1           0        2.602717   -0.285323   -0.196268
      5          8           0       -1.741870   -0.373838   -0.224966
      6          1           0       -2.602713   -0.285335    0.196275
      7          1           0        1.100855    1.147637   -1.235534
      8          1           0       -1.100839    1.147580    1.235587
 ---------------------------------------------------------------------

 SCF Done:  E(RHF) =  -201.724644229     A.U. after    2 cycles

 The electronic state is 1-A.
 Alpha  occ. eigenvalues --  -20.56366 -20.56366  -7.59968  -7.59964  -1.46090
 Alpha  occ. eigenvalues --   -1.45906  -0.78948  -0.73684  -0.65131  -0.64440
 Alpha  occ. eigenvalues --   -0.56926  -0.52878  -0.52866  -0.49998  -0.40612
 Alpha virt. eigenvalues --    0.03144   0.03942   0.04955   0.04966   0.07048
 Alpha virt. eigenvalues --    0.07099   0.07598   0.09380   0.10412   0.11117
 Alpha virt. eigenvalues --    0.12806   0.12947   0.14639   0.15154   0.20624

 Mulliken charges:
               1
     1  B    0.503596
     2  B    0.503600
     3  O   -0.965230
     4  H    0.502713
     5  O   -0.965227
     6  H    0.502713
     7  H   -0.041082
     8  H   -0.041083
 Sum of Mulliken charges =  -0.00000

 Dipole moment (field-independent basis, Debye):
    X=             -0.0000    Y=              0.6870    Z=              0.0000  Tot=              0.6870

 Test job not archived.
 1\1\GINC-SE461\SP\RHF\Aug-CC-pVDZ\B2H4O2\OHZDE\08-Apr-2025\0\\#t hf au
 g-cc-pvdz iop(5/13=1,5/36=2,99/5=2) pseudo=read geom=check guess=(read
 ,tcheck) scf=(maxcycle=1)\\title\\0,1\B,0,0.786261,0.425691,-0.321479\
 B,0,-0.786261,0.425693,0.321476\O,0,-1.741868,-0.373847,-0.224957\H,0,
 -2.602717,-0.285323,0.196268\O,0,1.74187,-0.373838,0.224966\H,0,2.6027
 13,-0.285335,-0.196275\H,0,-1.100855,1.147637,1.235534\H,0,1.100839,1.
 14758,-1.235587\\Version=ES64L-G16RevC.01\State=1-A\HF=-201.7246442\RM
 SD=1.463e-02\Dipole=0.0000013,0.2702821,-0.0000027\Quadrupole=5.454888

 Normal termination of Gaussian 16 at Tue Apr  8 23:59:24 2025.
