 Gaussian 16, Revision C.01,

 ----------------------------------------------------------------------
 #t hf aug-cc-pvdz symm=none int=(grid=ultrafine) guess=(read,tcheck) s
 table=(opt,rrhf)
 ----------------------------------------------------------------------
 -----
 title
 -----
 Symbolic Z-matrix:
 Charge =  0 Multiplicity = 1

 SCF Done:  E(RHF) =  -805.971918823     A.U. after   11 cycles
 Normal termination of Gaussian 16 at Wed Apr  9 00:14:52 2025.
 Gaussian 16:  ES64L-G16RevC.01  3-Jul-2019

 ----------------------------------------------------------------------
 #t hf aug-cc-pvdz iop(5/13=1,5/36=2,99/5=2) pseudo=read geom=check gue
 ss=(read,tcheck) scf=(maxcycle=1)
 ----------------------------------------------------------------------
 -----
 title
 -----
 Structure from the checkpoint file:  "BDE49_nonexpt_2473_mol1.chk"
 Charge =  0 Multiplicity = 1

                         Standard orientation:
 ---------------------------------------------------------------------
 Center     Atomic      Atomic             Coordinates (Angstroms)
 Number     Number       Type             X           Y           Z
 ---------------------------------------------------------------------
      1         16           0        1.836454    0.020701    0.000000
      2         14           0       -0.349882    0.005147    0.000000
      3          6           0       -0.992472   -0.861742   -1.538013
      4          1           0       -0.627508   -0.374331   -2.445607
      5          1           0       -2.087562   -0.847164   -1.558712
      6          1           0       -0.673579   -1.907694   -1.567991
      7          6           0       -0.828818    1.820146   -0.000001
      8          1           0       -1.918666    1.923738   -0.000001
      9          1           0       -0.443827    2.334013   -0.884905
     10          1           0       -0.443827    2.334014    0.884902
     11          6           0       -0.992472   -0.861740    1.538014
     12          1           0       -0.673579   -1.907692    1.567993
     13          1           0       -2.087562   -0.847162    1.558713
     14          1           0       -0.627508   -0.374328    2.445607
     15          1           0        1.981273   -1.316652    0.000001
 ---------------------------------------------------------------------

 SCF Done:  E(RHF) =  -806.204651306     A.U. after    2 cycles

 The electronic state is 1-A.
 Alpha  occ. eigenvalues --  -93.93074 -69.54243 -11.21810 -11.21804 -11.21803
 Alpha  occ. eigenvalues --   -8.21323  -6.21022  -6.19157  -6.19028  -6.18828
 Alpha  occ. eigenvalues --   -3.96404  -3.96302  -3.96279  -1.01058  -0.96060
 Alpha  occ. eigenvalues --   -0.93683  -0.93576  -0.65642  -0.58789  -0.57770
 Alpha  occ. eigenvalues --   -0.57675  -0.56047  -0.55629  -0.54471  -0.52698
 Alpha  occ. eigenvalues --   -0.45812  -0.45091  -0.42990  -0.36877
 Alpha virt. eigenvalues --    0.03003   0.03889   0.04249   0.04554   0.06401
 Alpha virt. eigenvalues --    0.06599   0.06748   0.07239   0.07428   0.09294
 Alpha virt. eigenvalues --    0.10005   0.10888   0.11231   0.12316   0.13294

 Mulliken charges:
               1
     1  S   -1.035839
     2  Si   2.430498
     3  C   -0.499924
     4  H   -0.034092
     5  H    0.035518
     6  H   -0.026417
     7  C   -0.534275
     8  H    0.003390
     9  H   -0.025085
    10  H   -0.025086
    11  C   -0.499924
    12  H   -0.026417
    13  H    0.035518
    14  H   -0.034093
    15  H    0.236226
 Sum of Mulliken charges =  -0.00000

 Dipole moment (field-independent basis, Debye):
    X=             -1.9322    Y=             -0.7726    Z=              0.0000  Tot=              2.0810

 Test job not archived.
 1\1\GINC-SE162\SP\RHF\Aug-CC-pVDZ\C3H10S1Si1\OHZDE\09-Apr-2025\0\\#t h
 f aug-cc-pvdz iop(5/13=1,5/36=2,99/5=2) pseudo=read geom=check guess=(
 read,tcheck) scf=(maxcycle=1)\\title\\0,1\S,0,1.836454,0.020701,0.\Si,
 0,-0.349882,0.005147,0.\C,0,-0.992472,-0.861742,-1.538013\H,0,-0.62750
 8,-0.374331,-2.445607\H,0,-2.087562,-0.847163,-1.558712\H,0,-0.67358,-
 1.907694,-1.567991\C,0,-0.828818,1.820146,-0.000001\H,0,-1.918666,1.92
 3739,-0.000001\H,0,-0.443826,2.334013,-0.884905\H,0,-0.443826,2.334014
 ,0.884902\C,0,-0.992472,-0.86174,1.538014\H,0,-0.67358,-1.907692,1.567

 Normal termination of Gaussian 16 at Wed Apr  9 00:14:57 2025.
