 Gaussian 16, Revision C.01,

 ----------------------------------------------------------------------
 #t hf aug-cc-pvdz symm=none int=(grid=ultrafine) guess=(read,tcheck) s
 table=(opt,rrhf)
 ----------------------------------------------------------------------
 -----
 title
 -----
 Symbolic Z-matrix:
 Charge =  0 Multiplicity = 1

 SCF Done:  E(RHF) =  -650.993760198     A.U. after   14 cycles
 Normal termination of Gaussian 16 at Wed Apr  9 00:03:30 2025.
 Gaussian 16:  ES64L-G16RevC.01  3-Jul-2019

 ----------------------------------------------------------------------
 #t hf aug-cc-pvdz iop(5/13=1,5/36=2,99/5=2) pseudo=read geom=check gue
 ss=(read,tcheck) scf=(maxcycle=1)
 ----------------------------------------------------------------------
 -----
 title
 -----
 Structure from the checkpoint file:  "BDE49_nonexpt_2172_mol1.chk"
 Charge =  0 Multiplicity = 1

                         Standard orientation:
 ---------------------------------------------------------------------
 Center     Atomic      Atomic             Coordinates (Angstroms)
 Number     Number       Type             X           Y           Z
 ---------------------------------------------------------------------
      1          6           0        1.905555   -0.351989   -0.671922
      2          8           0       -0.873739   -0.627583   -0.307538
      3          7           0       -2.188058   -0.269060    0.125414
      4          8           0       -2.965086   -1.102351   -0.132665
      5          6           0        2.243689   -1.709150   -0.028702
      6         14           0        0.380054    0.505572   -0.000405
      7          1           0        1.417990   -2.415321   -0.143635
      8          1           0        2.445928   -1.608624    1.041414
      9          1           0        3.130470   -2.155968   -0.486864
     10          6           0        0.478254    0.815914    1.842707
     11          1           0        1.301990    1.499308    2.073059
     12          1           0        0.646022   -0.110664    2.398227
     13          1           0       -0.444894    1.267898    2.215816
     14          6           0        0.016181    2.085816   -0.934138
     15          1           0        0.818316    2.815746   -0.784638
     16          1           0       -0.917390    2.542461   -0.593834
     17          1           0       -0.071346    1.900033   -2.008307
     18          1           0        1.768274   -0.475394   -1.752675
     19          1           0        2.748812    0.341854   -0.556837
 ---------------------------------------------------------------------

 SCF Done:  E(RHF) =  -651.396906210     A.U. after    2 cycles

 The electronic state is 1-A.
 Alpha  occ. eigenvalues --  -69.55021 -20.63718 -20.58002 -15.72243 -11.23182
 Alpha  occ. eigenvalues --  -11.22294 -11.22042 -11.22028  -6.21729  -3.97164
 Alpha  occ. eigenvalues --   -3.97009  -3.96992  -1.66925  -1.45414  -1.03226
 Alpha  occ. eigenvalues --   -0.97410  -0.95801  -0.94239  -0.85104  -0.77953
 Alpha  occ. eigenvalues --   -0.74188  -0.68826  -0.64486  -0.61334  -0.59399
 Alpha  occ. eigenvalues --   -0.58070  -0.57370  -0.56278  -0.55623  -0.52986
 Alpha  occ. eigenvalues --   -0.51631  -0.50669  -0.49788  -0.45971  -0.44137
 Alpha  occ. eigenvalues --   -0.42637
 Alpha virt. eigenvalues --    0.03027   0.03782   0.03941   0.04379   0.05740
 Alpha virt. eigenvalues --    0.05848   0.06811   0.06953   0.07329   0.07859
 Alpha virt. eigenvalues --    0.08856   0.09419   0.10078   0.10819   0.11125

 Mulliken charges:
               1
     1  C   -0.523795
     2  O   -2.068112
     3  N    1.691204
     4  O   -0.931115
     5  C   -0.499063
     6  Si   3.408005
     7  H    0.125461
     8  H    0.135461
     9  H    0.100822
    10  C   -0.663662
    11  H    0.037274
    12  H   -0.045400
    13  H   -0.042898
    14  C   -0.657474
    15  H    0.034272
    16  H   -0.041014
    17  H   -0.035838
    18  H   -0.038236
    19  H    0.014108
 Sum of Mulliken charges =  -0.00000

 Dipole moment (field-independent basis, Debye):
    X=              2.2344    Y=              1.3546    Z=              0.2132  Tot=              2.6216

 Test job not archived.
 1\1\GINC-SE073\SP\RHF\Aug-CC-pVDZ\C4H11N1O2Si1\OHZDE\09-Apr-2025\0\\#t
  hf aug-cc-pvdz iop(5/13=1,5/36=2,99/5=2) pseudo=read geom=check guess
 =(read,tcheck) scf=(maxcycle=1)\\title\\0,1\C,0,1.905555,-0.351989,-0.
 671922\O,0,-0.873739,-0.627583,-0.307538\N,0,-2.188058,-0.26906,0.1254
 14\O,0,-2.965086,-1.102351,-0.132665\C,0,2.243689,-1.70915,-0.028702\S
 i,0,0.380054,0.505572,-0.000405\H,0,1.41799,-2.415321,-0.143635\H,0,2.
 445928,-1.608624,1.041414\H,0,3.13047,-2.155968,-0.486864\C,0,0.478254
 ,0.815914,1.842707\H,0,1.30199,1.499308,2.073059\H,0,0.646022,-0.11066

 Normal termination of Gaussian 16 at Wed Apr  9 00:03:39 2025.
