 Gaussian 16, Revision C.01,

 ----------------------------------------------------------------------
 #t hf aug-cc-pvdz symm=none int=(grid=ultrafine) guess=(read,tcheck) s
 table=(opt,rrhf)
 ----------------------------------------------------------------------
 -----
 title
 -----
 Symbolic Z-matrix:
 Charge =  0 Multiplicity = 1

 SCF Done:  E(RHF) =  -256.256446019     A.U. after   14 cycles
 Normal termination of Gaussian 16 at Wed Apr  9 00:30:04 2025.
 Gaussian 16:  ES64L-G16RevC.01  3-Jul-2019

 ----------------------------------------------------------------------
 #t hf aug-cc-pvdz iop(5/13=1,5/36=2,99/5=2) pseudo=read geom=check gue
 ss=(read,tcheck) scf=(maxcycle=1)
 ----------------------------------------------------------------------
 -----
 title
 -----
 Structure from the checkpoint file:  "BDE49_nonexpt_339_mol1.chk"
 Charge =  0 Multiplicity = 1

                         Standard orientation:
 ---------------------------------------------------------------------
 Center     Atomic      Atomic             Coordinates (Angstroms)
 Number     Number       Type             X           Y           Z
 ---------------------------------------------------------------------
      1          6           0       -2.742053   -0.152472   -0.000012
      2          6           0       -1.330032    0.438062    0.000006
      3          1           0       -2.914096   -0.775477   -0.883254
      4          1           0       -3.497702    0.636904   -0.000047
      5          1           0       -2.914135   -0.775435    0.883252
      6          6           0       -0.242113   -0.638821    0.000058
      7          1           0       -1.192949    1.083250    0.872713
      8          1           0       -1.192910    1.083207   -0.872726
      9          6           0        1.160746   -0.123026    0.000101
     10          1           0       -0.334199   -1.304974   -0.869473
     11          1           0       -0.334235   -1.304926    0.869620
     12          8           0        1.469920    1.072219   -0.000109
     13          5           0        2.630625   -0.590298   -0.000012
     14          1           0        3.194231   -0.705397   -1.040339
     15          1           0        3.194221   -0.705874    1.040263
 ---------------------------------------------------------------------

 SCF Done:  E(RHF) =  -256.527742018     A.U. after    2 cycles

 The electronic state is 1-A.
 Alpha  occ. eigenvalues --  -20.55794 -11.32825 -11.25716 -11.24051 -11.23385
 Alpha  occ. eigenvalues --   -7.61009  -1.48427  -1.08736  -0.98141  -0.85770
 Alpha  occ. eigenvalues --   -0.80156  -0.72193  -0.65973  -0.64009  -0.59950
 Alpha  occ. eigenvalues --   -0.58753  -0.55668  -0.54150  -0.52666  -0.50000
 Alpha  occ. eigenvalues --   -0.49101  -0.46884  -0.40139
 Alpha virt. eigenvalues --    0.02897   0.03527   0.03668   0.04594   0.05252
 Alpha virt. eigenvalues --    0.05788   0.05810   0.07076   0.08498   0.08986
 Alpha virt. eigenvalues --    0.09254   0.09991   0.11742   0.11963   0.13061

 Mulliken charges:
               1
     1  C   -0.439786
     2  C   -0.060789
     3  H    0.157240
     4  H    0.126732
     5  H    0.157244
     6  C   -0.908355
     7  H    0.130827
     8  H    0.130841
     9  C    1.627734
    10  H    0.252162
    11  H    0.252173
    12  O   -1.244238
    13  B   -0.780909
    14  H    0.299522
    15  H    0.299602
 Sum of Mulliken charges =   0.00000

 Dipole moment (field-independent basis, Debye):
    X=             -1.8786    Y=             -2.1795    Z=              0.0002  Tot=              2.8774

 Test job not archived.
 1\1\GINC-SE074\SP\RHF\Aug-CC-pVDZ\C4H9B1O1\OHZDE\09-Apr-2025\0\\#t hf
 aug-cc-pvdz iop(5/13=1,5/36=2,99/5=2) pseudo=read geom=check guess=(re
 ad,tcheck) scf=(maxcycle=1)\\title\\0,1\C,0,2.742053,-0.152472,0.00001
 2\C,0,1.330032,0.438062,-0.000006\H,0,2.914096,-0.775477,0.883254\H,0,
 3.497702,0.636904,0.000047\H,0,2.914135,-0.775435,-0.883252\C,0,0.2421
 13,-0.638821,-0.000058\H,0,1.192949,1.08325,-0.872713\H,0,1.19291,1.08
 3207,0.872726\C,0,-1.160746,-0.123026,-0.000101\H,0,0.334199,-1.304974
 ,0.869473\H,0,0.334235,-1.304926,-0.86962\O,0,-1.46992,1.072219,0.0001

 Normal termination of Gaussian 16 at Wed Apr  9 00:30:08 2025.
