 Gaussian 16, Revision C.01,

 ----------------------------------------------------------------------
 #t hf aug-cc-pvdz symm=none int=(grid=ultrafine) guess=(read,tcheck) s
 table=(opt,rrhf)
 ----------------------------------------------------------------------
 -----
 title
 -----
 Symbolic Z-matrix:
 Charge =  0 Multiplicity = 1

 SCF Done:  E(RHF) =  -732.732409606     A.U. after   13 cycles

 1\1\GINC-SE335\Stability\RHF\Aug-CC-pVDZ\C4H6Si2\OHZDE\09-Apr-2025\0\\
 #t hf aug-cc-pvdz symm=none int=(grid=ultrafine) guess=(read,tcheck) s
 table=(opt,rrhf)\\title\\0,1\Si,0,0.811404,0.857731,-0.00004\Si,0,-0.8
 11405,-0.857733,-0.000039\C,0,-2.477614,-0.101391,-0.000002\H,0,-0.665
 384,-1.704416,1.205715\H,0,-0.665415,-1.70439,-1.205815\C,0,2.477613,0
 .101389,-0.000007\H,0,0.665385,1.704411,1.205717\H,0,0.665411,1.70439,
 -1.205813\C,0,3.557828,-0.440871,0.000085\C,0,-3.557828,0.440872,0.000
 093\H,0,-4.512752,0.910268,0.00014\H,0,4.512777,-0.91022,0.000151\\Ver

 Normal termination of Gaussian 16 at Wed Apr  9 00:08:37 2025.
 Gaussian 16:  ES64L-G16RevC.01  3-Jul-2019

 ----------------------------------------------------------------------
 #t hf aug-cc-pvdz iop(5/13=1,5/36=2,99/5=2) pseudo=read geom=check gue
 ss=(read,tcheck) scf=(maxcycle=1)
 ----------------------------------------------------------------------
 -----
 title
 -----
 Structure from the checkpoint file:  "BDE49_nonexpt_2304_mol1.chk"
 Charge =  0 Multiplicity = 1

                         Standard orientation:
 ---------------------------------------------------------------------
 Center     Atomic      Atomic             Coordinates (Angstroms)
 Number     Number       Type             X           Y           Z
 ---------------------------------------------------------------------
      1         14           0       -0.811404    0.857731    0.000040
      2         14           0        0.811405   -0.857733    0.000039
      3          6           0        2.477614   -0.101391    0.000002
      4          1           0        0.665384   -1.704416   -1.205715
      5          1           0        0.665415   -1.704390    1.205815
      6          6           0       -2.477613    0.101389    0.000007
      7          1           0       -0.665385    1.704411   -1.205717
      8          1           0       -0.665411    1.704390    1.205813
      9          6           0       -3.557828   -0.440871   -0.000085
     10          6           0        3.557828    0.440872   -0.000093
     11          1           0        4.512752    0.910268   -0.000140
     12          1           0       -4.512777   -0.910220   -0.000151
 ---------------------------------------------------------------------

 SCF Done:  E(RHF) =  -732.953345112     A.U. after    2 cycles

 The electronic state is 1-A.
 Alpha  occ. eigenvalues --  -69.54782 -69.54782 -11.25762 -11.25760 -11.23541
 Alpha  occ. eigenvalues --  -11.23539  -6.21830  -6.21818  -3.97239  -3.97239
 Alpha  occ. eigenvalues --   -3.97186  -3.97157  -3.97147  -3.97112  -1.03496
 Alpha  occ. eigenvalues --   -1.03437  -0.82270  -0.77703  -0.73352  -0.71315
 Alpha  occ. eigenvalues --   -0.57231  -0.56099  -0.52472  -0.49562  -0.46630
 Alpha  occ. eigenvalues --   -0.42391  -0.41402  -0.41228  -0.38283
 Alpha virt. eigenvalues --    0.03250   0.03348   0.04154   0.05214   0.05459
 Alpha virt. eigenvalues --    0.06515   0.06721   0.06947   0.07481   0.09071
 Alpha virt. eigenvalues --    0.09227   0.09846   0.10531   0.10931   0.11319

 Mulliken charges:
               1
     1  Si   0.456125
     2  Si   0.456121
     3  C   -0.843443
     4  H   -0.118942
     5  H   -0.118940
     6  C   -0.843432
     7  H   -0.118942
     8  H   -0.118939
     9  C    0.934642
    10  C    0.934663
    11  H   -0.309459
    12  H   -0.309452
 Sum of Mulliken charges =  -0.00000

 Dipole moment (field-independent basis, Debye):
    X=             -0.0000    Y=              0.0001    Z=             -0.0001  Tot=              0.0001

 Test job not archived.
 1\1\GINC-SE335\SP\RHF\Aug-CC-pVDZ\C4H6Si2\OHZDE\09-Apr-2025\0\\#t hf a
 ug-cc-pvdz iop(5/13=1,5/36=2,99/5=2) pseudo=read geom=check guess=(rea
 d,tcheck) scf=(maxcycle=1)\\title\\0,1\Si,0,0.811404,0.857731,-0.00004
 \Si,0,-0.811405,-0.857733,-0.000039\C,0,-2.477614,-0.101391,-0.000002\
 H,0,-0.665384,-1.704416,1.205715\H,0,-0.665415,-1.70439,-1.205815\C,0,
 2.477613,0.101389,-0.000007\H,0,0.665385,1.704411,1.205717\H,0,0.66541
 1,1.70439,-1.205813\C,0,3.557828,-0.440871,0.000085\C,0,-3.557828,0.44
 0872,0.000093\H,0,-4.512752,0.910268,0.00014\H,0,4.512777,-0.91022,0.0

 Normal termination of Gaussian 16 at Wed Apr  9 00:08:41 2025.
