 Gaussian 16, Revision C.01,

 ----------------------------------------------------------------------
 #t hf aug-cc-pvdz symm=none int=(grid=ultrafine) guess=(read,tcheck) s
 table=opt
 ----------------------------------------------------------------------
 -----
 title
 -----
 Symbolic Z-matrix:
 Charge =  0 Multiplicity = 2

 SCF Done:  E(UHF) =  -192.404337933     A.U. after   20 cycles
 Normal termination of Gaussian 16 at Wed Apr  9 00:47:55 2025.
 Gaussian 16:  ES64L-G16RevC.01  3-Jul-2019

 ----------------------------------------------------------------------
 #t hf aug-cc-pvdz iop(5/13=1,5/36=2,99/5=2) pseudo=read geom=check gue
 ss=(read,tcheck) scf=(maxcycle=1)
 ----------------------------------------------------------------------
 -----
 title
 -----
 Structure from the checkpoint file:  "BDE49_nonexpt_85_mol3.chk"
 Charge =  0 Multiplicity = 2

                         Standard orientation:
 ---------------------------------------------------------------------
 Center     Atomic      Atomic             Coordinates (Angstroms)
 Number     Number       Type             X           Y           Z
 ---------------------------------------------------------------------
      1          5           0       -1.681394    0.464064   -0.000000
      2          8           0       -0.619273   -0.400368    0.000001
      3          6           0        0.632828   -0.057044   -0.000000
      4          7           0        1.763337    0.174185   -0.000001
      5          1           0       -2.779172    0.005597    0.000001
 ---------------------------------------------------------------------

 SCF Done:  E(UHF) =  -192.582251674     A.U. after    2 cycles

 The electronic state is 2-A.
 Alpha  occ. eigenvalues --  -20.67518 -15.52944 -11.36613  -7.71458  -1.60784
 Alpha  occ. eigenvalues --   -1.25037  -0.93279  -0.74525  -0.69133  -0.65476
 Alpha  occ. eigenvalues --   -0.62233  -0.51541  -0.50016  -0.40348
 Alpha virt. eigenvalues --    0.02032   0.04135   0.04426   0.04920   0.08522
 Alpha virt. eigenvalues --    0.10461   0.10945   0.12271   0.13353   0.14127
 Alpha virt. eigenvalues --    0.17585   0.18224   0.20724   0.21531   0.22797

  Beta  occ. eigenvalues --  -20.67368 -15.53073 -11.36481  -7.69442  -1.60150
  Beta  occ. eigenvalues --   -1.25239  -0.92192  -0.71578  -0.69251  -0.63092
  Beta  occ. eigenvalues --   -0.60843  -0.51197  -0.50286
  Beta virt. eigenvalues --    0.02699   0.03067   0.04222   0.04525   0.07632
  Beta virt. eigenvalues --    0.10753   0.10803   0.11782   0.12324   0.14518
  Beta virt. eigenvalues --    0.15389   0.17841   0.18327   0.21139   0.22577

 Mulliken charges and spin densities:
               1          2
     1  B   -0.124400   1.010546
     2  O   -0.721061  -0.049150
     3  C   -0.173725   0.048198
     4  N    0.689941  -0.043314
     5  H    0.329245   0.033720
 Sum of Mulliken charges =  -0.00000   1.00000

 Dipole moment (field-independent basis, Debye):
    X=             -4.1884    Y=             -0.4632    Z=              0.0000  Tot=              4.2139
                          Isotropic Fermi Contact Couplings
        Atom                 a.u.       MegaHertz       Gauss      10(-4) cm-1
     1  B(11)              0.33510     480.65814     171.51078     160.33030
     2  O(17)             -0.00374       2.26614       0.80862       0.75590
     3  C(13)              0.02208      24.81782       8.85561       8.27833
     4  N(14)             -0.01047      -3.38214      -1.20683      -1.12816
     5  H(1)               0.02538     113.43188      40.47531      37.83680
 --------------------------------------------------------
       Center         ----  Spin Dipole Couplings  ----
                      3XX-RR        3YY-RR        3ZZ-RR

 Normal termination of Gaussian 16 at Wed Apr  9 00:47:57 2025.
