 Gaussian 16, Revision C.01,

 ----------------------------------------------------------------------
 #t hf aug-cc-pvdz symm=none int=(grid=ultrafine) guess=(read,tcheck) s
 table=opt
 ----------------------------------------------------------------------
 -----
 title
 -----
 Symbolic Z-matrix:
 Charge =  0 Multiplicity = 2

 SCF Done:  E(UHF) =  -951.725265819     A.U. after   17 cycles
 Normal termination of Gaussian 16 at Tue Apr  8 23:58:40 2025.
 Gaussian 16:  ES64L-G16RevC.01  3-Jul-2019

 ----------------------------------------------------------------------
 #t hf aug-cc-pvdz iop(5/13=1,5/36=2,99/5=2) pseudo=read geom=check gue
 ss=(read,tcheck) scf=(maxcycle=1)
 ----------------------------------------------------------------------
 -----
 title
 -----
 Structure from the checkpoint file:  "BDE49_nonexpt_2058_mol2.chk"
 Charge =  0 Multiplicity = 2

                         Standard orientation:
 ---------------------------------------------------------------------
 Center     Atomic      Atomic             Coordinates (Angstroms)
 Number     Number       Type             X           Y           Z
 ---------------------------------------------------------------------
      1         14           0       -1.762835   -0.873987    0.055987
      2         16           0       -0.038926    0.543548    0.066993
      3          8           0        0.441541    0.712794    1.421123
      4          8           0        1.109765   -0.263611   -0.788330
      5          6           0        2.077816   -1.067026   -0.074365
      6          1           0        2.863156   -1.271693   -0.799851
      7          1           0        1.631109   -2.006942    0.259218
      8          1           0        2.477968   -0.517891    0.776229
      9          8           0       -0.381949    1.670487   -0.760900
     10          1           0       -1.330323   -2.120801    0.731719
     11          1           0       -2.161164   -1.098821   -1.351967
 ---------------------------------------------------------------------

 SCF Done:  E(UHF) =  -952.078311251     A.U. after    2 cycles

 The electronic state is 2-A.
 Alpha  occ. eigenvalues --  -94.21933 -69.60508 -20.60621 -20.55186 -20.54743
 Alpha  occ. eigenvalues --  -11.31478  -8.46905  -6.44997  -6.44846  -6.44644
 Alpha  occ. eigenvalues --   -6.27537  -4.03429  -4.02579  -4.02469  -1.59769
 Alpha  occ. eigenvalues --   -1.47781  -1.45214  -1.00217  -0.90562  -0.79218
 Alpha  occ. eigenvalues --   -0.72598  -0.69173  -0.68426  -0.64163  -0.62710
 Alpha  occ. eigenvalues --   -0.56448  -0.55258  -0.52118  -0.49820  -0.49327
 Alpha  occ. eigenvalues --   -0.47242  -0.44318  -0.39108
 Alpha virt. eigenvalues --    0.02525   0.03619   0.04995   0.05334   0.05826
 Alpha virt. eigenvalues --    0.06736   0.07106   0.08614   0.09761   0.11064
 Alpha virt. eigenvalues --    0.12506   0.13673   0.13999   0.14767   0.15385

  Beta  occ. eigenvalues --  -94.21916 -69.59896 -20.60448 -20.55214 -20.54762
  Beta  occ. eigenvalues --  -11.31484  -8.46879  -6.44981  -6.44844  -6.44597
  Beta  occ. eigenvalues --   -6.26592  -4.02153  -4.02052  -4.01167  -1.59668
  Beta  occ. eigenvalues --   -1.47478  -1.45282  -0.99949  -0.89541  -0.77147
  Beta  occ. eigenvalues --   -0.72173  -0.68365  -0.67413  -0.63753  -0.62718
  Beta  occ. eigenvalues --   -0.56350  -0.54281  -0.51703  -0.49730  -0.48976
  Beta  occ. eigenvalues --   -0.47132  -0.43165
  Beta virt. eigenvalues --   -0.01534   0.02730   0.03868   0.05070   0.05890
  Beta virt. eigenvalues --    0.06283   0.06883   0.07682   0.08919   0.10387
  Beta virt. eigenvalues --    0.12181   0.13332   0.13964   0.14418   0.15329

 Mulliken charges and spin densities:
               1          2
     1  Si   0.831485   0.947307
     2  S    3.159297  -0.011872
     3  O   -1.404201   0.000015
     4  O   -1.530089   0.007785
     5  C    0.259854  -0.007804
     6  H    0.035217  -0.000835
     7  H    0.140109  -0.001249
     8  H    0.178187   0.000554
     9  O   -1.410293   0.003852
    10  H   -0.142747   0.029073
    11  H   -0.116818   0.033173
 Sum of Mulliken charges =   0.00000   1.00000

 Dipole moment (field-independent basis, Debye):
    X=             -0.7262    Y=             -4.8928    Z=             -0.0481  Tot=              4.9466
                          Isotropic Fermi Contact Couplings
        Atom                 a.u.       MegaHertz       Gauss      10(-4) cm-1
     1  Si(29)             0.70623    -627.64632    -223.95981    -209.36028
     2  S(33)              0.04181      14.35956       5.12385       4.78983
     3  O(17)             -0.00290       1.75599       0.62658       0.58573
     4  O(17)              0.02606     -15.79878      -5.63740      -5.26991
     5  C(13)             -0.00104      -1.16879      -0.41705      -0.38987
     6  H(1)               0.00020       0.89157       0.31813       0.29740
     7  H(1)              -0.00007      -0.30525      -0.10892      -0.10182
     8  H(1)              -0.00004      -0.16977      -0.06058      -0.05663

 1\1\GINC-SE328\SP\UHF\Aug-CC-pVDZ\C1H5O3S1Si1(2)\OHZDE\08-Apr-2025\0\\
 #t hf aug-cc-pvdz iop(5/13=1,5/36=2,99/5=2) pseudo=read geom=check gue
 ss=(read,tcheck) scf=(maxcycle=1)\\title\\0,2\Si,0,-1.762835,-0.873987
 ,0.055987\S,0,-0.038926,0.543548,0.066993\O,0,0.441541,0.712794,1.4211
 23\O,0,1.109765,-0.263611,-0.78833\C,0,2.077816,-1.067026,-0.074365\H,
 0,2.863156,-1.271693,-0.799851\H,0,1.631109,-2.006942,0.259218\H,0,2.4
 77968,-0.517891,0.776229\O,0,-0.381949,1.670487,-0.7609\H,0,-1.330324,
 -2.120801,0.731719\H,0,-2.161164,-1.098821,-1.351967\\Version=ES64L-G1

 Normal termination of Gaussian 16 at Tue Apr  8 23:58:44 2025.
