 Gaussian 16, Revision C.01,

 ----------------------------------------------------------------------
 #t hf aug-cc-pvdz symm=none int=(grid=ultrafine) guess=(read,tcheck) s
 table=(opt,rrhf)
 ----------------------------------------------------------------------
 -----
 title
 -----
 Symbolic Z-matrix:
 Charge =  0 Multiplicity = 1

 SCF Done:  E(RHF) =  -611.761877026     A.U. after   14 cycles
 Normal termination of Gaussian 16 at Tue Apr  8 23:17:50 2025.
 Gaussian 16:  ES64L-G16RevC.01  3-Jul-2019

 ----------------------------------------------------------------------
 #t hf aug-cc-pvdz iop(5/13=1,5/36=2,99/5=2) pseudo=read geom=check gue
 ss=(read,tcheck) scf=(maxcycle=1)
 ----------------------------------------------------------------------
 -----
 title
 -----
 Structure from the checkpoint file:  "BDE49_nonexpt_1050_mol1.chk"
 Charge =  0 Multiplicity = 1

                         Standard orientation:
 ---------------------------------------------------------------------
 Center     Atomic      Atomic             Coordinates (Angstroms)
 Number     Number       Type             X           Y           Z
 ---------------------------------------------------------------------
      1         17           0       -1.332912   -0.165675    0.000000
      2          8           0        0.000000    0.947428    0.000000
      3          6           0        1.248021    0.376347    0.000000
      4          6           0        1.610339   -0.896902    0.000000
      5          1           0        1.949617    1.206450    0.000000
      6          1           0        0.895748   -1.707709    0.000000
      7          1           0        2.663974   -1.138358    0.000000
 ---------------------------------------------------------------------

 SCF Done:  E(RHF) =  -611.989145094     A.U. after    2 cycles

 The electronic state is 1-A'.
 Alpha  occ. eigenvalues -- -105.63199 -20.65059 -11.32493 -11.24271 -10.67412
 Alpha  occ. eigenvalues --   -7.84394  -7.83848  -7.83820  -1.51508  -1.07213
 Alpha  occ. eigenvalues --   -1.02477  -0.80803  -0.71001  -0.67364  -0.64085
 Alpha  occ. eigenvalues --   -0.57314  -0.54933  -0.48371  -0.47800  -0.37516
 Alpha virt. eigenvalues --    0.03773   0.04394   0.05316   0.06558   0.10058
 Alpha virt. eigenvalues --    0.10723   0.11288   0.13070   0.14580   0.15519
 Alpha virt. eigenvalues --    0.15718   0.17062   0.17359   0.19455   0.19811

 Mulliken charges:
               1
     1  Cl   0.314036
     2  O   -1.173932
     3  C    1.007105
     4  C   -0.057847
     5  H   -0.019743
     6  H   -0.013667
     7  H   -0.055953
 Sum of Mulliken charges =   0.00000

 Dipole moment (field-independent basis, Debye):
    X=              1.1536    Y=             -0.4039    Z=              0.0000  Tot=              1.2222

 Test job not archived.
 1\1\GINC-SE083\SP\RHF\Aug-CC-pVDZ\C2H3Cl1O1\OHZDE\08-Apr-2025\0\\#t hf
  aug-cc-pvdz iop(5/13=1,5/36=2,99/5=2) pseudo=read geom=check guess=(r
 ead,tcheck) scf=(maxcycle=1)\\title\\0,1\Cl,0,-1.332912,-0.165675,0.\O
 ,0,0.,0.947428,0.\C,0,1.248021,0.376347,0.\C,0,1.610339,-0.896902,0.\H
 ,0,1.949617,1.20645,0.\H,0,0.895748,-1.707709,0.\H,0,2.663974,-1.13835
 8,0.\\Version=ES64L-G16RevC.01\State=1-A'\HF=-611.9891451\RMSD=1.209e-
 02\Dipole=0.453855,-0.158887,0.\Quadrupole=2.0838369,0.423841,-2.50767
 79,1.3594095,0.,0.\PG=CS [SG(C2H3Cl1O1)]\\@

 Normal termination of Gaussian 16 at Tue Apr  8 23:17:54 2025.
