 Gaussian 16, Revision C.01,

 ----------------------------------------------------------------------
 #t hf aug-cc-pvdz symm=none int=(grid=ultrafine) guess=(read,tcheck) s
 table=(opt,rrhf)
 ----------------------------------------------------------------------
 -----
 title
 -----
 Symbolic Z-matrix:
 Charge =  0 Multiplicity = 1

 SCF Done:  E(RHF) =  -1009.39413871     A.U. after   14 cycles
 Normal termination of Gaussian 16 at Wed Apr  9 00:16:36 2025.
 Gaussian 16:  ES64L-G16RevC.01  3-Jul-2019

 ----------------------------------------------------------------------
 #t hf aug-cc-pvdz iop(5/13=1,5/36=2,99/5=2) pseudo=read geom=check gue
 ss=(read,tcheck) scf=(maxcycle=1)
 ----------------------------------------------------------------------
 -----
 title
 -----
 Structure from the checkpoint file:  "BDE49_nonexpt_2553_mol1.chk"
 Charge =  0 Multiplicity = 1

                         Standard orientation:
 ---------------------------------------------------------------------
 Center     Atomic      Atomic             Coordinates (Angstroms)
 Number     Number       Type             X           Y           Z
 ---------------------------------------------------------------------
      1         17           0        1.872446    0.321210   -0.000447
      2         16           0        0.248969   -0.984190    0.000342
      3          6           0       -1.250244    0.040210    0.000374
      4          8           0       -2.258619   -0.611372   -0.000179
      5          6           0       -1.147826    1.537269    0.000162
      6          1           0       -0.600641    1.882323    0.880051
      7          1           0       -2.156958    1.948182   -0.000197
      8          1           0       -0.600122    1.882063   -0.879508
 ---------------------------------------------------------------------

 SCF Done:  E(RHF) =  -1009.68258179     A.U. after    2 cycles

 The electronic state is 1-A.
 Alpha  occ. eigenvalues -- -105.60279 -94.03186 -20.57738 -11.40511 -11.27626
 Alpha  occ. eigenvalues --  -10.64969  -8.30990  -7.81909  -7.81470  -7.81428
 Alpha  occ. eigenvalues --   -6.28776  -6.28505  -6.28243  -1.52016  -1.14386
 Alpha  occ. eigenvalues --   -1.05078  -0.97421  -0.77320  -0.68653  -0.66754
 Alpha  occ. eigenvalues --   -0.64472  -0.59093  -0.55359  -0.53531  -0.52766
 Alpha  occ. eigenvalues --   -0.50511  -0.42842  -0.39525
 Alpha virt. eigenvalues --    0.03360   0.04151   0.05229   0.05980   0.07563
 Alpha virt. eigenvalues --    0.08762   0.10711   0.11865   0.12120   0.12778
 Alpha virt. eigenvalues --    0.13794   0.13807   0.15499   0.16461   0.16879

 Mulliken charges:
               1
     1  Cl  -0.259256
     2  S    0.539141
     3  C    0.613093
     4  O   -1.148114
     5  C   -0.435437
     6  H    0.284579
     7  H    0.121386
     8  H    0.284606
 Sum of Mulliken charges =  -0.00000

 Dipole moment (field-independent basis, Debye):
    X=              0.4199    Y=              2.2998    Z=              0.0009  Tot=              2.3378

 Test job not archived.
 1\1\GINC-SE459\SP\RHF\Aug-CC-pVDZ\C2H3Cl1O1S1\OHZDE\09-Apr-2025\0\\#t
 hf aug-cc-pvdz iop(5/13=1,5/36=2,99/5=2) pseudo=read geom=check guess=
 (read,tcheck) scf=(maxcycle=1)\\title\\0,1\Cl,0,-1.872446,0.32121,0.00
 0447\S,0,-0.248969,-0.98419,-0.000342\C,0,1.250244,0.04021,-0.000374\O
 ,0,2.258619,-0.611372,0.000179\C,0,1.147826,1.537269,-0.000162\H,0,0.6
 00641,1.882323,-0.880051\H,0,2.156958,1.948182,0.000197\H,0,0.600122,1
 .882063,0.879508\\Version=ES64L-G16RevC.01\State=1-A\HF=-1009.6825818\
 RMSD=7.735e-03\Dipole=-0.1652011,0.9048133,-0.0003609\Quadrupole=-3.34

 Normal termination of Gaussian 16 at Wed Apr  9 00:16:39 2025.
