 Gaussian 16, Revision C.01,

 ----------------------------------------------------------------------
 #t hf aug-cc-pvdz symm=none int=(grid=ultrafine) guess=(read,tcheck) s
 table=(opt,rrhf)
 ----------------------------------------------------------------------
 -----
 title
 -----
 Symbolic Z-matrix:
 Charge =  0 Multiplicity = 1

 SCF Done:  E(RHF) =  -751.983635306     A.U. after   15 cycles
 Normal termination of Gaussian 16 at Tue Apr  8 23:33:22 2025.
 Gaussian 16:  ES64L-G16RevC.01  3-Jul-2019

 ----------------------------------------------------------------------
 #t hf aug-cc-pvdz iop(5/13=1,5/36=2,99/5=2) pseudo=read geom=check gue
 ss=(read,tcheck) scf=(maxcycle=1)
 ----------------------------------------------------------------------
 -----
 title
 -----
 Structure from the checkpoint file:  "BDE49_nonexpt_1409_mol1.chk"
 Charge =  0 Multiplicity = 1

                         Standard orientation:
 ---------------------------------------------------------------------
 Center     Atomic      Atomic             Coordinates (Angstroms)
 Number     Number       Type             X           Y           Z
 ---------------------------------------------------------------------
      1          6           0       -1.071358    0.129335   -0.005106
      2          7           0       -1.270564    1.478957    0.028959
      3          6           0       -0.212917    2.265353    0.036659
      4          7           0        1.090805    1.894426    0.005719
      5          6           0        1.261761    0.592095   -0.046416
      6          6           0        0.215354   -0.358286   -0.054800
      7          7           0        0.779273   -1.635541   -0.148540
      8          6           0        2.223405   -1.507940    0.131508
      9          7           0        2.458076   -0.083133   -0.114118
     10          1           0        2.808606   -2.129446   -0.551805
     11          1           0        2.472448   -1.792964    1.169192
     12          1           0       -0.397192    3.334229    0.076004
     13         15           0       -2.612664   -0.872487   -0.102202
     14          1           0        0.303693   -2.390158    0.326079
     15          1           0        3.304752    0.363457    0.202413
     16          1           0       -3.127705   -0.502765    1.165821
     17          1           0       -2.075239   -2.101353    0.370130
 ---------------------------------------------------------------------

 SCF Done:  E(RHF) =  -752.442379020     A.U. after    2 cycles

 The electronic state is 1-A.
 Alpha  occ. eigenvalues --  -84.28382 -15.53672 -15.53006 -15.50144 -15.49531
 Alpha  occ. eigenvalues --  -11.33298 -11.33034 -11.30736 -11.29305 -11.28280
 Alpha  occ. eigenvalues --   -6.75462  -4.28349  -4.27937  -4.27163  -1.33974
 Alpha  occ. eigenvalues --   -1.27932  -1.21457  -1.16868  -1.06284  -0.95721
 Alpha  occ. eigenvalues --   -0.92151  -0.89843  -0.85129  -0.78692  -0.73775
 Alpha  occ. eigenvalues --   -0.70689  -0.69822  -0.67020  -0.64602  -0.62420
 Alpha  occ. eigenvalues --   -0.60144  -0.54327  -0.53217  -0.51386  -0.50637
 Alpha  occ. eigenvalues --   -0.49416  -0.44772  -0.43135  -0.36276  -0.31757
 Alpha virt. eigenvalues --    0.02682   0.03799   0.04353   0.04457   0.05256
 Alpha virt. eigenvalues --    0.06175   0.06818   0.08292   0.08971   0.09508
 Alpha virt. eigenvalues --    0.09858   0.09940   0.10708   0.11685   0.12429

 Mulliken charges:
               1
     1  C   -0.317309
     2  N    0.933602
     3  C   -0.506866
     4  N    1.295822
     5  C   -2.540916
     6  C   -1.162422
     7  N    0.760834
     8  C    0.152725
     9  N    0.859161
    10  H    0.046168
    11  H   -0.059546
    12  H   -0.076885
    13  P   -0.241579
    14  H    0.098488
    15  H    0.005272
    16  H    0.466106
    17  H    0.287345
 Sum of Mulliken charges =  -0.00000

 Dipole moment (field-independent basis, Debye):
    X=              2.4724    Y=             -3.7067    Z=              1.9396  Tot=              4.8595

 Test job not archived.
 1\1\GINC-SE166\SP\RHF\Aug-CC-pVDZ\C5H7N4P1\OHZDE\08-Apr-2025\0\\#t hf
 aug-cc-pvdz iop(5/13=1,5/36=2,99/5=2) pseudo=read geom=check guess=(re
 ad,tcheck) scf=(maxcycle=1)\\title\\0,1\C,0,-1.071358,0.129335,-0.0051
 06\N,0,-1.270564,1.478957,0.028959\C,0,-0.212917,2.265353,0.036659\N,0
 ,1.090805,1.894426,0.005719\C,0,1.261761,0.592095,-0.046416\C,0,0.2153
 54,-0.358286,-0.0548\N,0,0.779273,-1.635541,-0.14854\C,0,2.223405,-1.5
 0794,0.131508\N,0,2.458076,-0.083133,-0.114118\H,0,2.808606,-2.129446,
 -0.551805\H,0,2.472448,-1.792964,1.169192\H,0,-0.397192,3.334229,0.076

 Normal termination of Gaussian 16 at Tue Apr  8 23:33:32 2025.
