 Gaussian 16, Revision C.01,

 ----------------------------------------------------------------------
 #t hf aug-cc-pvdz symm=none int=(grid=ultrafine) guess=(read,tcheck) s
 table=(opt,rrhf)
 ----------------------------------------------------------------------
 -----
 title
 -----
 Symbolic Z-matrix:
 Charge =  0 Multiplicity = 1

 SCF Done:  E(RHF) =  -1163.88669725     A.U. after   16 cycles
 Normal termination of Gaussian 16 at Wed Apr  9 00:50:21 2025.
 Gaussian 16:  ES64L-G16RevC.01  3-Jul-2019

 ----------------------------------------------------------------------
 #t hf aug-cc-pvdz iop(5/13=1,5/36=2,99/5=2) pseudo=read geom=check gue
 ss=(read,tcheck) scf=(maxcycle=1)
 ----------------------------------------------------------------------
 -----
 title
 -----
 Structure from the checkpoint file:  "BDE49_nonexpt_876_mol1.chk"
 Charge =  0 Multiplicity = 1

                         Standard orientation:
 ---------------------------------------------------------------------
 Center     Atomic      Atomic             Coordinates (Angstroms)
 Number     Number       Type             X           Y           Z
 ---------------------------------------------------------------------
      1          5           0        1.790057   -0.171474    0.002978
      2         16           0        3.034126    1.040782    0.540449
      3         16           0        2.148891   -1.897844   -0.441854
      4          8           0       -4.363212   -0.852537    0.306470
      5          6           0        0.304076    0.303501   -0.082336
      6          6           0       -0.762628   -0.581666    0.152364
      7          6           0       -2.090072   -0.159248    0.082655
      8          6           0       -2.383618    1.172217   -0.237303
      9          6           0       -1.348675    2.064372   -0.478243
     10          6           0       -0.023731    1.635625   -0.396640
     11          6           0       -3.185779   -1.122961    0.346968
     12          1           0       -0.558423   -1.616622    0.410896
     13          1           0       -3.422395    1.476640   -0.289276
     14          1           0       -1.566437    3.095986   -0.729969
     15          1           0        0.770600    2.346492   -0.596496
     16          1           0       -2.844909   -2.151509    0.594165
     17          1           0        3.445548   -1.946129   -0.094116
     18          1           0        4.145716    0.314758    0.335838
 ---------------------------------------------------------------------

 SCF Done:  E(RHF) =  -1164.37271493     A.U. after    2 cycles

 The electronic state is 1-A.
 Alpha  occ. eigenvalues --  -93.96735 -93.96707 -20.54845 -11.34891 -11.27770
 Alpha  occ. eigenvalues --  -11.27570 -11.27196 -11.26243 -11.26161 -11.25133
 Alpha  occ. eigenvalues --   -8.25036  -8.25001  -7.66882  -6.22874  -6.22843
 Alpha  occ. eigenvalues --   -6.22714  -6.22682  -6.22561  -6.22532  -1.47866
 Alpha  occ. eigenvalues --   -1.18131  -1.07426  -1.05712  -1.03325  -1.01222
 Alpha  occ. eigenvalues --   -0.90715  -0.86391  -0.81339  -0.74266  -0.69711
 Alpha  occ. eigenvalues --   -0.68995  -0.66246  -0.63479  -0.62781  -0.59282
 Alpha  occ. eigenvalues --   -0.57718  -0.56317  -0.54913  -0.54135  -0.51322
 Alpha  occ. eigenvalues --   -0.50238  -0.45514  -0.44675  -0.42755  -0.39010
 Alpha  occ. eigenvalues --   -0.36938  -0.36327
 Alpha virt. eigenvalues --    0.02857   0.03198   0.03639   0.03933   0.04647
 Alpha virt. eigenvalues --    0.04924   0.05613   0.06294   0.06712   0.07672
 Alpha virt. eigenvalues --    0.07993   0.08700   0.09565   0.09954   0.10499

 Mulliken charges:
               1
     1  B    0.781839
     2  S   -0.659233
     3  S   -0.650980
     4  O   -1.309686
     5  C    0.348747
     6  C   -0.242722
     7  C    1.580536
     8  C    0.183909
     9  C    0.254301
    10  C   -0.210352
    11  C    0.705014
    12  H   -0.356993
    13  H   -0.300121
    14  H   -0.210983
    15  H   -0.380078
    16  H   -0.017765
    17  H    0.246006
    18  H    0.238560
 Sum of Mulliken charges =  -0.00000

 Dipole moment (field-independent basis, Debye):
    X=              3.7117    Y=              0.3833    Z=             -0.1732  Tot=              3.7354

 Test job not archived.
 1\1\GINC-SE247\SP\RHF\Aug-CC-pVDZ\C7H7B1O1S2\OHZDE\09-Apr-2025\0\\#t h
 f aug-cc-pvdz iop(5/13=1,5/36=2,99/5=2) pseudo=read geom=check guess=(
 read,tcheck) scf=(maxcycle=1)\\title\\0,1\B,0,1.790057,-0.171474,0.002
 978\S,0,3.034126,1.040782,0.540449\S,0,2.148891,-1.897844,-0.441854\O,
 0,-4.363212,-0.852537,0.30647\C,0,0.304076,0.303501,-0.082336\C,0,-0.7
 62628,-0.581666,0.152364\C,0,-2.090072,-0.159248,0.082655\C,0,-2.38361
 8,1.172217,-0.237303\C,0,-1.348675,2.064372,-0.478243\C,0,-0.023731,1.
 635625,-0.39664\C,0,-3.185779,-1.122961,0.346968\H,0,-0.558423,-1.6166

 Normal termination of Gaussian 16 at Wed Apr  9 00:50:33 2025.
