 Gaussian 16, Revision C.01,

 ----------------------------------------------------------------------
 #t hf aug-cc-pvdz symm=none int=(grid=ultrafine) guess=(read,tcheck) s
 table=(opt,rrhf)
 ----------------------------------------------------------------------
 -----
 title
 -----
 Symbolic Z-matrix:
 Charge =  0 Multiplicity = 1

 SCF Done:  E(RHF) =  -1300.95758166     A.U. after   13 cycles
 Normal termination of Gaussian 16 at Tue Apr  8 23:45:14 2025.
 Gaussian 16:  ES64L-G16RevC.01  3-Jul-2019

 ----------------------------------------------------------------------
 #t hf aug-cc-pvdz iop(5/13=1,5/36=2,99/5=2) pseudo=read geom=check gue
 ss=(read,tcheck) scf=(maxcycle=1)
 ----------------------------------------------------------------------
 -----
 title
 -----
 Structure from the checkpoint file:  "BDE49_nonexpt_1762_mol1.chk"
 Charge =  0 Multiplicity = 1

                         Standard orientation:
 ---------------------------------------------------------------------
 Center     Atomic      Atomic             Coordinates (Angstroms)
 Number     Number       Type             X           Y           Z
 ---------------------------------------------------------------------
      1          6           0       -1.754253   -0.003662   -0.003840
      2         14           0        0.007452   -0.000066    0.530869
      3          7           0       -2.868418   -0.005447   -0.309814
      4         17           0        0.891253    1.689868   -0.212682
      5         17           0        0.898307   -1.686282   -0.212732
      6          1           0        0.077597    0.000074    1.991615
 ---------------------------------------------------------------------

 SCF Done:  E(RHF) =  -1301.22852726     A.U. after    2 cycles

 The electronic state is 1-A.
 Alpha  occ. eigenvalues -- -105.60026-105.60026 -69.68036 -15.55540 -11.28882
 Alpha  occ. eigenvalues --  -10.65071 -10.65060  -7.81959  -7.81953  -7.81616
 Alpha  occ. eigenvalues --   -7.81613  -7.81611  -7.81610  -6.34088  -4.09525
 Alpha  occ. eigenvalues --   -4.09474  -4.09335  -1.25993  -1.11926  -1.08127
 Alpha  occ. eigenvalues --   -0.83742  -0.68500  -0.62524  -0.60858  -0.60284
 Alpha  occ. eigenvalues --   -0.53992  -0.53756  -0.52008  -0.51133  -0.50020
 Alpha  occ. eigenvalues --   -0.49878
 Alpha virt. eigenvalues --    0.03933   0.04391   0.04409   0.05293   0.07179
 Alpha virt. eigenvalues --    0.07719   0.08617   0.10302   0.11915   0.12679
 Alpha virt. eigenvalues --    0.12911   0.13430   0.14952   0.17339   0.17565

 Mulliken charges:
               1
     1  C   -1.269933
     2  Si   1.599414
     3  N    0.763271
     4  Cl  -0.480535
     5  Cl  -0.480557
     6  H   -0.131660
 Sum of Mulliken charges =  -0.00000

 Dipole moment (field-independent basis, Debye):
    X=              2.8499    Y=              0.0049    Z=              1.8026  Tot=              3.3722

 Test job not archived.
 1\1\GINC-SE457\SP\RHF\Aug-CC-pVDZ\C1H1Cl2N1Si1\OHZDE\08-Apr-2025\0\\#t
  hf aug-cc-pvdz iop(5/13=1,5/36=2,99/5=2) pseudo=read geom=check guess
 =(read,tcheck) scf=(maxcycle=1)\\title\\0,1\C,0,1.754253,0.003667,-0.0
 0384\Si,0,-0.007452,0.000066,0.530869\N,0,2.868418,0.005455,-0.309814\
 Cl,0,-0.891248,-1.68987,-0.212682\Cl,0,-0.898312,1.68628,-0.212732\H,0
 ,-0.077597,-0.000074,1.991615\\Version=ES64L-G16RevC.01\State=1-A\HF=-
 1301.2285273\RMSD=1.115e-02\Dipole=-1.121239,-0.0019274,0.7092135\Quad
 rupole=-6.6661349,2.5805871,4.0855478,-0.0169541,1.5437187,0.0030978\P

 Normal termination of Gaussian 16 at Tue Apr  8 23:45:16 2025.
