 Gaussian 16, Revision C.01,

 ----------------------------------------------------------------------
 #t hf aug-cc-pvdz symm=none int=(grid=ultrafine) guess=(read,tcheck) s
 table=(opt,rrhf)
 ----------------------------------------------------------------------
 -----
 title
 -----
 Symbolic Z-matrix:
 Charge =  0 Multiplicity = 1

 SCF Done:  E(RHF) =  -438.436606995     A.U. after   16 cycles

 1\1\GINC-SE364\Stability\RHF\Aug-CC-pVDZ\C10H9N1\OHZDE\08-Apr-2025\0\\
 #t hf aug-cc-pvdz symm=none int=(grid=ultrafine) guess=(read,tcheck) s
 table=(opt,rrhf)\\title\\0,1\C,0,1.406625,-1.505216,-0.001902\C,0,2.69
 3576,-1.023463,0.002409\C,0,2.941032,0.368883,0.005806\C,0,1.887518,1.
 25182,0.004906\C,0,0.548533,0.788134,0.000329\C,0,0.294825,-0.620485,-
 0.003195\C,0,-1.042096,-1.085799,-0.003337\C,0,-2.110426,-0.207633,-0.
 005269\C,0,-1.849427,1.19251,-0.00689\C,0,-0.565197,1.66793,-0.000815\
 H,0,3.5292,-1.714863,0.002665\H,0,3.96148,0.734597,0.00879\H,0,1.22349

 Normal termination of Gaussian 16 at Tue Apr  8 23:07:41 2025.
 Gaussian 16:  ES64L-G16RevC.01  3-Jul-2019

 ----------------------------------------------------------------------
 #t hf aug-cc-pvdz iop(5/13=1,5/36=2,99/5=2) pseudo=read geom=check gue
 ss=(read,tcheck) scf=(maxcycle=1)
 ----------------------------------------------------------------------
 -----
 title
 -----
 Structure from the checkpoint file:  "BDE49_expt_407_mol1.chk"
 Charge =  0 Multiplicity = 1

                         Standard orientation:
 ---------------------------------------------------------------------
 Center     Atomic      Atomic             Coordinates (Angstroms)
 Number     Number       Type             X           Y           Z
 ---------------------------------------------------------------------
      1          6           0        1.406625   -1.505216   -0.001902
      2          6           0        2.693576   -1.023463    0.002409
      3          6           0        2.941032    0.368883    0.005806
      4          6           0        1.887518    1.251820    0.004906
      5          6           0        0.548533    0.788134    0.000329
      6          6           0        0.294825   -0.620485   -0.003195
      7          6           0       -1.042096   -1.085799   -0.003337
      8          6           0       -2.110426   -0.207633   -0.005269
      9          6           0       -1.849427    1.192510   -0.006890
     10          6           0       -0.565197    1.667930   -0.000815
     11          1           0        3.529200   -1.714863    0.002665
     12          1           0        3.961480    0.734597    0.008790
     13          1           0        1.223499   -2.574922   -0.005175
     14          1           0        2.068617    2.322109    0.007226
     15          1           0       -2.686819    1.883210   -0.019228
     16          1           0       -0.386841    2.738437    0.000949
     17          7           0       -3.431293   -0.651578   -0.069962
     18          1           0       -3.579716   -1.606357    0.222132
     19          1           0       -4.116571   -0.024544    0.325205
     20          1           0       -1.223563   -2.156709   -0.005077
 ---------------------------------------------------------------------

 SCF Done:  E(RHF) =  -438.887566287     A.U. after    2 cycles

 The electronic state is 1-A.
 Alpha  occ. eigenvalues --  -15.51210 -11.28695 -11.24896 -11.24858 -11.24175
 Alpha  occ. eigenvalues --  -11.24074 -11.24004 -11.23851 -11.23576 -11.23412
 Alpha  occ. eigenvalues --  -11.22726  -1.22784  -1.16469  -1.09480  -1.04522
 Alpha  occ. eigenvalues --   -0.99869  -0.97448  -0.86419  -0.84307  -0.82105
 Alpha  occ. eigenvalues --   -0.73905  -0.73072  -0.70808  -0.67591  -0.63869
 Alpha  occ. eigenvalues --   -0.62487  -0.60221  -0.59045  -0.58698  -0.56223
 Alpha  occ. eigenvalues --   -0.53781  -0.51619  -0.50610  -0.48419  -0.43192
 Alpha  occ. eigenvalues --   -0.38788  -0.31574  -0.28527
 Alpha virt. eigenvalues --    0.02809   0.03468   0.03748   0.04565   0.04716
 Alpha virt. eigenvalues --    0.06575   0.06907   0.07504   0.09018   0.09530
 Alpha virt. eigenvalues --    0.09945   0.10159   0.10785   0.11524   0.11779

 Mulliken charges:
               1
     1  C    0.004244
     2  C   -0.244528
     3  C   -0.128622
     4  C    0.126382
     5  C    0.979285
     6  C    1.401728
     7  C    0.313183
     8  C   -1.769279
     9  C    0.341930
    10  C    0.173848
    11  H   -0.239487
    12  H   -0.241133
    13  H   -0.313173
    14  H   -0.302378
    15  H   -0.305605
    16  H   -0.344471
    17  N    0.815419
    18  H    0.026152
    19  H    0.021805
    20  H   -0.315298
 Sum of Mulliken charges =   0.00000

 Dipole moment (field-independent basis, Debye):
    X=             -1.1296    Y=             -0.0256    Z=              1.0071  Tot=              1.5136

 Test job not archived.
 1\1\GINC-SE364\SP\RHF\Aug-CC-pVDZ\C10H9N1\OHZDE\08-Apr-2025\0\\#t hf a
 ug-cc-pvdz iop(5/13=1,5/36=2,99/5=2) pseudo=read geom=check guess=(rea
 d,tcheck) scf=(maxcycle=1)\\title\\0,1\C,0,1.406625,-1.505216,-0.00190
 2\C,0,2.693576,-1.023463,0.002409\C,0,2.941032,0.368883,0.005806\C,0,1
 .887518,1.25182,0.004906\C,0,0.548533,0.788134,0.000329\C,0,0.294825,-
 0.620485,-0.003195\C,0,-1.042096,-1.085799,-0.003337\C,0,-2.110426,-0.
 207633,-0.005269\C,0,-1.849427,1.19251,-0.00689\C,0,-0.565197,1.66793,
 -0.000815\H,0,3.5292,-1.714863,0.002665\H,0,3.96148,0.734597,0.00879\H

 Normal termination of Gaussian 16 at Tue Apr  8 23:07:53 2025.
