 Gaussian 16, Revision C.01,

 ----------------------------------------------------------------------
 #t hf aug-cc-pvdz symm=none int=(grid=ultrafine) guess=(read,tcheck) s
 table=opt
 ----------------------------------------------------------------------
 -----
 title
 -----
 Symbolic Z-matrix:
 Charge =  0 Multiplicity = 2

 SCF Done:  E(UHF) =  -1231.00985156     a.u. after    7 cycles
 Normal termination of Gaussian 16 at Wed Apr  9 00:18:44 2025.
 Gaussian 16:  ES64L-G16RevC.01  3-Jul-2019

 ----------------------------------------------------------------------
 #t hf aug-cc-pvdz iop(5/13=1,5/36=2,99/5=2) pseudo=read geom=check gue
 ss=(read,tcheck) scf=(maxcycle=1)
 ----------------------------------------------------------------------
 -----
 title
 -----
 Structure from the checkpoint file:  "BDE49_nonexpt_2575_mol2.chk"
 Charge =  0 Multiplicity = 2

                         Standard orientation:
 ---------------------------------------------------------------------
 Center     Atomic      Atomic             Coordinates (Angstroms)
 Number     Number       Type             X           Y           Z
 ---------------------------------------------------------------------
      1         16           0        0.957214   -1.372650   -0.000002
      2          6           0       -0.007588    0.000756   -0.000002
      3         16           0        0.915954    1.400292    0.000000
      4         16           0       -1.746873   -0.104421    0.000002
      5          1           0       -1.975186    1.223916    0.000006
 ---------------------------------------------------------------------

 SCF Done:  E(UHF) =  -1231.21474872     A.U. after    2 cycles

 The electronic state is 2-A.
 Alpha  occ. eigenvalues --  -94.01895 -94.01502 -93.94675 -11.40321  -8.30108
 Alpha  occ. eigenvalues --   -8.29674  -8.22830  -6.29135  -6.27534  -6.27513
 Alpha  occ. eigenvalues --   -6.27335  -6.27230  -6.27131  -6.20774  -6.20415
 Alpha  occ. eigenvalues --   -6.20295  -1.20511  -1.06774  -1.00520  -0.76047
 Alpha  occ. eigenvalues --   -0.63676  -0.59962  -0.54781  -0.53186  -0.47144
 Alpha  occ. eigenvalues --   -0.42102  -0.36735  -0.36558
 Alpha virt. eigenvalues --    0.02462   0.03780   0.06646   0.07211   0.07904
 Alpha virt. eigenvalues --    0.09506   0.11164   0.11954   0.13160   0.14333
 Alpha virt. eigenvalues --    0.14587   0.16184   0.17568   0.18099   0.18332

  Beta  occ. eigenvalues --  -94.01504 -94.01003 -93.94481 -11.40417  -8.29677
  Beta  occ. eigenvalues --   -8.29081  -8.22604  -6.27507  -6.27348  -6.27150
  Beta  occ. eigenvalues --   -6.27052  -6.26607  -6.25256  -6.20461  -6.20190
  Beta  occ. eigenvalues --   -6.19777  -1.18669  -1.04552  -0.96423  -0.73878
  Beta  occ. eigenvalues --   -0.61307  -0.58709  -0.54373  -0.51401  -0.41128
  Beta  occ. eigenvalues --   -0.35576  -0.35363
  Beta virt. eigenvalues --   -0.02930   0.02324   0.03818   0.06813   0.07346
  Beta virt. eigenvalues --    0.08283   0.09909   0.11260   0.12386   0.13276
  Beta virt. eigenvalues --    0.14388   0.14717   0.16852   0.17726   0.18218

 Mulliken charges and spin densities:
               1          2
     1  S    0.453138   0.969113
     2  C   -1.036782  -0.104160
     3  S    0.088222   0.127181
     4  S    0.085765   0.006186
     5  H    0.409657   0.001680
 Sum of Mulliken charges =  -0.00000   1.00000

 Dipole moment (field-independent basis, Debye):
    X=             -2.0121    Y=             -0.9343    Z=              0.0000  Tot=              2.2185
                          Isotropic Fermi Contact Couplings
        Atom                 a.u.       MegaHertz       Gauss      10(-4) cm-1
     1  S(33)              0.23174      79.59656      28.40203      26.55055
     2  C(13)             -0.01942     -21.83633      -7.79174      -7.28382
     3  S(33)              0.07319      25.14015       8.97063       8.38585
     4  S(33)             -0.00386      -1.32690      -0.47347      -0.44261
     5  H(1)               0.00140       6.23979       2.22651       2.08137
 --------------------------------------------------------
       Center         ----  Spin Dipole Couplings  ----
                      3XX-RR        3YY-RR        3ZZ-RR

 Normal termination of Gaussian 16 at Wed Apr  9 00:18:47 2025.
