 Gaussian 16, Revision C.01,

 ----------------------------------------------------------------------
 #t hf aug-cc-pvdz symm=none int=(grid=ultrafine) guess=(read,tcheck) s
 table=opt
 ----------------------------------------------------------------------
 -----
 title
 -----
 Symbolic Z-matrix:
 Charge =  0 Multiplicity = 2

 SCF Done:  E(UHF) =  -94.6091925236     A.U. after   15 cycles
 Normal termination of Gaussian 16 at Tue Apr  8 22:37:21 2025.
 Gaussian 16:  ES64L-G16RevC.01  3-Jul-2019

 ----------------------------------------------------------------------
 #t hf aug-cc-pvdz iop(5/13=1,5/36=2,99/5=2) pseudo=read geom=check gue
 ss=(read,tcheck) scf=(maxcycle=1)
 ----------------------------------------------------------------------
 -----
 title
 -----
 Structure from the checkpoint file:  "BDE49_expt_1197_mol2.chk"
 Charge =  0 Multiplicity = 2

                         Standard orientation:
 ---------------------------------------------------------------------
 Center     Atomic      Atomic             Coordinates (Angstroms)
 Number     Number       Type             X           Y           Z
 ---------------------------------------------------------------------
      1          6           0       -0.011349    0.733975   -0.000000
      2          7           0       -0.011349   -0.663670    0.000000
      3          1           0       -0.295657    1.212863    0.928772
      4          1           0       -0.295657    1.212863   -0.928772
      5          1           0        0.369428   -1.091943    0.832988
      6          1           0        0.369428   -1.091943   -0.832988
 ---------------------------------------------------------------------

 SCF Done:  E(UHF) =  -94.7109899656     A.U. after    2 cycles

 The electronic state is 2-A'.
 Alpha  occ. eigenvalues --  -15.50488 -11.25335  -1.20125  -0.90328  -0.72506
 Alpha  occ. eigenvalues --   -0.64531  -0.55897  -0.55462  -0.31939
 Alpha virt. eigenvalues --    0.03428   0.05372   0.05381   0.07308   0.10797
 Alpha virt. eigenvalues --    0.12043   0.16561   0.16737   0.18065   0.19180
 Alpha virt. eigenvalues --    0.21168   0.25431   0.28070   0.29607   0.31571

  Beta  occ. eigenvalues --  -15.49891 -11.23062  -1.17835  -0.84191  -0.71790
  Beta  occ. eigenvalues --   -0.62893  -0.54170  -0.46513
  Beta virt. eigenvalues --    0.03486   0.05401   0.05466   0.07329   0.09044
  Beta virt. eigenvalues --    0.11326   0.15983   0.16701   0.17575   0.19606
  Beta virt. eigenvalues --    0.21195   0.21222   0.25999   0.28545   0.29675

 Mulliken charges and spin densities:
               1          2
     1  C   -0.379609   1.111054
     2  N    0.190986   0.076683
     3  H    0.032744  -0.083430
     4  H    0.032744  -0.083430
     5  H    0.061567  -0.010438
     6  H    0.061567  -0.010438
 Sum of Mulliken charges =  -0.00000   1.00000

 Dipole moment (field-independent basis, Debye):
    X=              0.6997    Y=             -0.4973    Z=              0.0000  Tot=              0.8584
                          Isotropic Fermi Contact Couplings
        Atom                 a.u.       MegaHertz       Gauss      10(-4) cm-1
     1  C(13)              0.22194     249.50533      89.02971      83.22602
     2  N(14)              0.04530      14.63635       5.22262       4.88216
     3  H(1)              -0.01659     -74.13783     -26.45422     -24.72972
     4  H(1)              -0.01659     -74.13783     -26.45422     -24.72972
     5  H(1)               0.00025       1.13065       0.40344       0.37714
     6  H(1)               0.00025       1.13065       0.40344       0.37714
 --------------------------------------------------------
       Center         ----  Spin Dipole Couplings  ----

 Normal termination of Gaussian 16 at Tue Apr  8 22:37:23 2025.
