 Gaussian 16, Revision C.01,

 ----------------------------------------------------------------------
 #t hf aug-cc-pvdz symm=none int=(grid=ultrafine) guess=(read,tcheck) s
 table=opt
 ----------------------------------------------------------------------
 -----
 title
 -----
 Symbolic Z-matrix:
 Charge =  0 Multiplicity = 2

 SCF Done:  E(UHF) =  -78.6069302913     A.U. after   14 cycles
 Normal termination of Gaussian 16 at Tue Apr  8 22:31:20 2025.
 Gaussian 16:  ES64L-G16RevC.01  3-Jul-2019

 ----------------------------------------------------------------------
 #t hf aug-cc-pvdz iop(5/13=1,5/36=2,99/5=2) pseudo=read geom=check gue
 ss=(read,tcheck) scf=(maxcycle=1)
 ----------------------------------------------------------------------
 -----
 title
 -----
 Structure from the checkpoint file:  "BDE49_expt_1035_mol2.chk"
 Charge =  0 Multiplicity = 2

                         Standard orientation:
 ---------------------------------------------------------------------
 Center     Atomic      Atomic             Coordinates (Angstroms)
 Number     Number       Type             X           Y           Z
 ---------------------------------------------------------------------
      1          6           0       -0.693346    0.000001   -0.001730
      2          6           0        0.794048    0.000000   -0.019224
      3          1           0       -1.093474   -0.000034    1.025991
      4          1           0       -1.107136   -0.886160   -0.492777
      5          1           0       -1.107136    0.886192   -0.492720
      6          1           0        1.351767   -0.926241    0.042613
      7          1           0        1.351770    0.926239    0.042614
 ---------------------------------------------------------------------

 SCF Done:  E(UHF) =  -78.6959956076     A.U. after    2 cycles

 The electronic state is 2-A.
 Alpha  occ. eigenvalues --  -11.23876 -11.22901  -1.03193  -0.84207  -0.62474
 Alpha  occ. eigenvalues --   -0.58107  -0.55449  -0.51030  -0.35399
 Alpha virt. eigenvalues --    0.03996   0.04687   0.04889   0.05776   0.07694
 Alpha virt. eigenvalues --    0.12613   0.13512   0.14134   0.15659   0.16679
 Alpha virt. eigenvalues --    0.17230   0.18307   0.21074   0.26273   0.28405

  Beta  occ. eigenvalues --  -11.23230 -11.21437  -0.99566  -0.78812  -0.61372
  Beta  occ. eigenvalues --   -0.54940  -0.54164  -0.50430
  Beta virt. eigenvalues --    0.04071   0.04770   0.04912   0.05719   0.07708
  Beta virt. eigenvalues --    0.09159   0.12667   0.14201   0.15704   0.16379
  Beta virt. eigenvalues --    0.17482   0.18472   0.20053   0.21618   0.27300

 Mulliken charges and spin densities:
               1          2
     1  C   -0.409069  -0.213237
     2  C   -0.026614   1.353057
     3  H    0.192960   0.037962
     4  H    0.131974   0.008035
     5  H    0.131967   0.008033
     6  H   -0.010610  -0.096924
     7  H   -0.010608  -0.096925
 Sum of Mulliken charges =  -0.00000   1.00000

 Dipole moment (field-independent basis, Debye):
    X=             -0.1852    Y=             -0.0000    Z=              0.1118  Tot=              0.2163
                          Isotropic Fermi Contact Couplings
        Atom                 a.u.       MegaHertz       Gauss      10(-4) cm-1
     1  C(13)             -0.05946     -66.83966     -23.85005     -22.29531
     2  C(13)              0.20816     234.01644      83.50289      78.05948
     3  H(1)               0.02714     121.30864      43.28594      40.46421
     4  H(1)               0.00773      34.55038      12.32843      11.52477
     5  H(1)               0.00773      34.54442      12.32631      11.52278
     6  H(1)              -0.02418    -108.06306     -38.55959     -36.04596
     7  H(1)              -0.02418    -108.06347     -38.55973     -36.04609
 --------------------------------------------------------

 Normal termination of Gaussian 16 at Tue Apr  8 22:31:23 2025.
