 Gaussian 16, Revision C.01,

 ----------------------------------------------------------------------
 #t hf aug-cc-pvdz symm=none int=(grid=ultrafine) guess=(read,tcheck) s
 table=(opt,rrhf)
 ----------------------------------------------------------------------
 -----
 title
 -----
 Symbolic Z-matrix:
 Charge =  0 Multiplicity = 1

 SCF Done:  E(RHF) =  -1242.50082999     A.U. after   14 cycles
 Normal termination of Gaussian 16 at Wed Apr  9 00:16:32 2025.
 Gaussian 16:  ES64L-G16RevC.01  3-Jul-2019

 ----------------------------------------------------------------------
 #t hf aug-cc-pvdz iop(5/13=1,5/36=2,99/5=2) pseudo=read geom=check gue
 ss=(read,tcheck) scf=(maxcycle=1)
 ----------------------------------------------------------------------
 -----
 title
 -----
 Structure from the checkpoint file:  "BDE49_nonexpt_2513_mol1.chk"
 Charge =  0 Multiplicity = 1

                         Standard orientation:
 ---------------------------------------------------------------------
 Center     Atomic      Atomic             Coordinates (Angstroms)
 Number     Number       Type             X           Y           Z
 ---------------------------------------------------------------------
      1          6           0       -1.609734    0.187796    0.124474
      2         16           0       -0.231734   -0.458607   -0.981390
      3         16           0        1.332383   -0.997824    0.325441
      4         14           0        2.683355    0.661191   -0.025070
      5          6           0       -2.718737    0.520343   -0.887165
      6          1           0       -2.402135    1.293139   -1.592071
      7          1           0       -3.595325    0.893775   -0.348774
      8          1           0       -3.023810   -0.362724   -1.454185
      9          6           0       -2.067357   -0.909364    1.089521
     10          1           0       -1.265316   -1.194449    1.773761
     11          1           0       -2.391449   -1.800972    0.548923
     12          1           0       -2.907462   -0.545694    1.691347
     13          6           0       -1.170979    1.442369    0.881541
     14          1           0       -0.859251    2.232375    0.195329
     15          1           0       -0.343286    1.225867    1.559759
     16          1           0       -2.004992    1.819457    1.483535
     17          1           0        3.890116    0.349033    0.776005
     18          1           0        2.095797    1.942085    0.420604
     19          1           0        3.030617    0.747476   -1.458291
 ---------------------------------------------------------------------

 SCF Done:  E(RHF) =  -1242.83346700     A.U. after    2 cycles

 The electronic state is 1-A.
 Alpha  occ. eigenvalues --  -93.96753 -93.95950 -69.55871 -11.28969 -11.24054
 Alpha  occ. eigenvalues --  -11.23442 -11.23293  -8.24595  -8.24074  -6.22692
 Alpha  occ. eigenvalues --   -6.22405  -6.22173  -6.21966  -6.21846  -6.21674
 Alpha  occ. eigenvalues --   -6.21473  -3.98106  -3.98022  -3.97988  -1.13307
 Alpha  occ. eigenvalues --   -1.04640  -0.95194  -0.94703  -0.89817  -0.75216
 Alpha  occ. eigenvalues --   -0.72588  -0.63210  -0.62358  -0.62039  -0.56622
 Alpha  occ. eigenvalues --   -0.56097  -0.53376  -0.51783  -0.51220  -0.50269
 Alpha  occ. eigenvalues --   -0.49826  -0.48636  -0.46307  -0.44488  -0.37325
 Alpha  occ. eigenvalues --   -0.34987
 Alpha virt. eigenvalues --    0.03451   0.03615   0.03904   0.04508   0.05452
 Alpha virt. eigenvalues --    0.05822   0.06135   0.06707   0.06895   0.08196
 Alpha virt. eigenvalues --    0.08782   0.09001   0.09639   0.09915   0.10853

 Mulliken charges:
               1
     1  C   -1.560873
     2  S   -0.066819
     3  S   -0.641074
     4  Si   1.088504
     5  C    0.137434
     6  H    0.183983
     7  H    0.225473
     8  H    0.183741
     9  C   -0.134524
    10  H    0.186345
    11  H    0.189588
    12  H    0.205148
    13  C   -0.089057
    14  H    0.169971
    15  H    0.223881
    16  H    0.196217
    17  H   -0.207526
    18  H   -0.137556
    19  H   -0.152857
 Sum of Mulliken charges =   0.00000

 Dipole moment (field-independent basis, Debye):
    X=             -1.1649    Y=              1.6282    Z=              0.8299  Tot=              2.1672

 Test job not archived.
 1\1\GINC-SE343\SP\RHF\Aug-CC-pVDZ\C4H12S2Si1\OHZDE\09-Apr-2025\0\\#t h
 f aug-cc-pvdz iop(5/13=1,5/36=2,99/5=2) pseudo=read geom=check guess=(
 read,tcheck) scf=(maxcycle=1)\\title\\0,1\C,0,-1.609734,0.187796,0.124
 474\S,0,-0.231734,-0.458607,-0.98139\S,0,1.332383,-0.997824,0.325441\S
 i,0,2.683355,0.661191,-0.02507\C,0,-2.718737,0.520343,-0.887165\H,0,-2
 .402135,1.293139,-1.592071\H,0,-3.595325,0.893775,-0.348774\H,0,-3.023
 81,-0.362724,-1.454185\C,0,-2.067357,-0.909364,1.089521\H,0,-1.265316,
 -1.194449,1.773761\H,0,-2.391449,-1.800972,0.548923\H,0,-2.907462,-0.5

 Normal termination of Gaussian 16 at Wed Apr  9 00:16:41 2025.
