 Gaussian 16, Revision C.01,

 ----------------------------------------------------------------------
 #t hf aug-cc-pvdz symm=none int=(grid=ultrafine) guess=(read,tcheck) s
 table=(opt,rrhf)
 ----------------------------------------------------------------------
 -----
 title
 -----
 Symbolic Z-matrix:
 Charge =  0 Multiplicity = 1

 SCF Done:  E(RHF) =  -987.057711972     A.U. after   14 cycles
 Normal termination of Gaussian 16 at Wed Apr  9 00:25:51 2025.
 Gaussian 16:  ES64L-G16RevC.01  3-Jul-2019

 ----------------------------------------------------------------------
 #t hf aug-cc-pvdz iop(5/13=1,5/36=2,99/5=2) pseudo=read geom=check gue
 ss=(read,tcheck) scf=(maxcycle=1)
 ----------------------------------------------------------------------
 -----
 title
 -----
 Structure from the checkpoint file:  "BDE49_nonexpt_2739_mol1.chk"
 Charge =  0 Multiplicity = 1

                         Standard orientation:
 ---------------------------------------------------------------------
 Center     Atomic      Atomic             Coordinates (Angstroms)
 Number     Number       Type             X           Y           Z
 ---------------------------------------------------------------------
      1         16           0        2.411378    0.346294   -0.065958
      2         16           0        0.785549   -0.943167    0.079804
      3          6           0       -0.658053    0.189472   -0.090823
      4          8           0       -0.559593    1.379771   -0.097618
      5          6           0       -1.955531   -0.591069   -0.224361
      6          6           0       -3.179098    0.219692    0.205321
      7          1           0       -1.875389   -1.528884    0.334419
      8          1           0       -2.030247   -0.874549   -1.281381
      9          1           0       -3.135334    0.463143    1.269186
     10          1           0       -4.093568   -0.348291    0.022025
     11          1           0       -3.233356    1.157266   -0.348953
     12          1           0        2.449898    0.734532    1.223288
 ---------------------------------------------------------------------

 SCF Done:  E(RHF) =  -987.374951943     A.U. after    2 cycles

 The electronic state is 1-A.
 Alpha  occ. eigenvalues --  -93.99319 -93.98816 -20.56179 -11.38298 -11.27048
 Alpha  occ. eigenvalues --  -11.24412  -8.27332  -8.26756  -6.25125  -6.24902
 Alpha  occ. eigenvalues --   -6.24698  -6.24579  -6.24399  -6.24144  -1.50460
 Alpha  occ. eigenvalues --   -1.11344  -1.07391  -0.96116  -0.88465  -0.75322
 Alpha  occ. eigenvalues --   -0.67478  -0.66213  -0.63974  -0.58428  -0.56786
 Alpha  occ. eigenvalues --   -0.54856  -0.53778  -0.51456  -0.48562  -0.43014
 Alpha  occ. eigenvalues --   -0.39581  -0.38157
 Alpha virt. eigenvalues --    0.03326   0.04044   0.04520   0.04568   0.05818
 Alpha virt. eigenvalues --    0.07439   0.08115   0.09098   0.10489   0.11489
 Alpha virt. eigenvalues --    0.11943   0.12426   0.13137   0.14215   0.14474

 Mulliken charges:
               1
     1  S   -0.229572
     2  S   -0.018686
     3  C    0.929238
     4  O   -1.179442
     5  C   -0.630190
     6  C   -0.302233
     7  H    0.231062
     8  H    0.298609
     9  H    0.151838
    10  H    0.143077
    11  H    0.191187
    12  H    0.415112
 Sum of Mulliken charges =  -0.00000

 Dipole moment (field-independent basis, Debye):
    X=             -1.6333    Y=             -1.3320    Z=              0.7235  Tot=              2.2283

 Test job not archived.
 1\1\GINC-SE073\SP\RHF\Aug-CC-pVDZ\C3H6O1S2\OHZDE\09-Apr-2025\0\\#t hf
 aug-cc-pvdz iop(5/13=1,5/36=2,99/5=2) pseudo=read geom=check guess=(re
 ad,tcheck) scf=(maxcycle=1)\\title\\0,1\S,0,2.411378,0.346294,-0.06595
 8\S,0,0.785549,-0.943167,0.079804\C,0,-0.658053,0.189472,-0.090823\O,0
 ,-0.559593,1.379771,-0.097618\C,0,-1.955531,-0.591069,-0.224361\C,0,-3
 .179098,0.219692,0.205321\H,0,-1.875389,-1.528884,0.334419\H,0,-2.0302
 47,-0.874549,-1.281381\H,0,-3.135334,0.463143,1.269186\H,0,-4.093568,-
 0.348291,0.022025\H,0,-3.233356,1.157266,-0.348953\H,0,2.449898,0.7345

 Normal termination of Gaussian 16 at Wed Apr  9 00:25:55 2025.
