 Gaussian 16, Revision C.01,

 ----------------------------------------------------------------------
 #t hf aug-cc-pvdz symm=none int=(grid=ultrafine) guess=(read,tcheck) s
 table=opt
 ----------------------------------------------------------------------
 -----
 title
 -----
 Symbolic Z-matrix:
 Charge =  0 Multiplicity = 2

 SCF Done:  E(UHF) =  -501.432565861     A.U. after   17 cycles
 Normal termination of Gaussian 16 at Wed Apr  9 00:49:01 2025.
 Gaussian 16:  ES64L-G16RevC.01  3-Jul-2019

 ----------------------------------------------------------------------
 #t hf aug-cc-pvdz iop(5/13=1,5/36=2,99/5=2) pseudo=read geom=check gue
 ss=(read,tcheck) scf=(maxcycle=1)
 ----------------------------------------------------------------------
 -----
 title
 -----
 Structure from the checkpoint file:  "BDE49_nonexpt_882_mol2.chk"
 Charge =  0 Multiplicity = 2

                         Standard orientation:
 ---------------------------------------------------------------------
 Center     Atomic      Atomic             Coordinates (Angstroms)
 Number     Number       Type             X           Y           Z
 ---------------------------------------------------------------------
      1          5           0        0.138529   -0.381008   -0.199607
      2          6           0       -1.142292    0.490360   -0.103167
      3          6           0       -2.473206   -0.256979    0.106571
      4          1           0       -2.474663   -0.800724    1.054512
      5          1           0       -2.644008   -0.985306   -0.689451
      6          1           0       -3.318150    0.436961    0.119057
      7         16           0        1.858963   -0.103694    0.028347
      8          1           0       -1.183681    1.049590   -1.051456
      9          1           0       -1.013194    1.259063    0.673882
     10          1           0        1.890625    1.204268    0.417509
 ---------------------------------------------------------------------

 SCF Done:  E(UHF) =  -501.603510444     A.U. after    2 cycles

 The electronic state is 2-A.
 Alpha  occ. eigenvalues --  -93.95977 -11.23274 -11.22800  -8.24279  -7.63322
 Alpha  occ. eigenvalues --   -6.22026  -6.21908  -6.21755  -1.04759  -1.02034
 Alpha  occ. eigenvalues --   -0.86199  -0.66783  -0.61624  -0.60185  -0.55281
 Alpha  occ. eigenvalues --   -0.51318  -0.50897  -0.46013  -0.40819  -0.32739
 Alpha virt. eigenvalues --    0.03555   0.03919   0.04216   0.04528   0.06636
 Alpha virt. eigenvalues --    0.06876   0.07083   0.07576   0.09130   0.10313
 Alpha virt. eigenvalues --    0.12270   0.12674   0.14110   0.15117   0.16444

  Beta  occ. eigenvalues --  -93.96015 -11.23214 -11.22820  -8.24288  -7.61482
  Beta  occ. eigenvalues --   -6.22203  -6.21957  -6.21867  -1.03848  -1.01692
  Beta  occ. eigenvalues --   -0.85804  -0.62764  -0.61445  -0.59253  -0.54314
  Beta  occ. eigenvalues --   -0.50819  -0.50433  -0.45414  -0.40913
  Beta virt. eigenvalues --    0.03050   0.03929   0.04276   0.04368   0.06678
  Beta virt. eigenvalues --    0.06766   0.07385   0.07793   0.08789   0.09638
  Beta virt. eigenvalues --    0.11997   0.12607   0.14116   0.14562   0.15555

 Mulliken charges and spin densities:
               1          2
     1  B    0.268740   1.097135
     2  C   -0.218861  -0.070385
     3  C   -0.456967   0.025671
     4  H    0.134736  -0.005519
     5  H    0.158840  -0.000964
     6  H    0.130608   0.000419
     7  S   -0.525743  -0.126178
     8  H    0.186548  -0.016538
     9  H    0.067242   0.011866
    10  H    0.254857   0.084495
 Sum of Mulliken charges =  -0.00000   1.00000

 Dipole moment (field-independent basis, Debye):
    X=             -0.8815    Y=              1.5873    Z=              0.3246  Tot=              1.8444
                          Isotropic Fermi Contact Couplings
        Atom                 a.u.       MegaHertz       Gauss      10(-4) cm-1
     1  B(11)              0.25381     364.06200     129.90637     121.43801
     2  C(13)              0.00520       5.84137       2.08434       1.94847
     3  C(13)              0.01862      20.93719       7.47091       6.98389
     4  H(1)              -0.00035      -1.55295      -0.55413      -0.51801
     5  H(1)              -0.00045      -1.99746      -0.71274      -0.66628
     6  H(1)              -0.00033      -1.48336      -0.52930      -0.49479
     7  S(33)              0.15497      53.22808      18.99310      17.75497
     8  H(1)              -0.00008      -0.35940      -0.12824      -0.11988

 Normal termination of Gaussian 16 at Wed Apr  9 00:49:04 2025.
