 Gaussian 16, Revision C.01,

 ----------------------------------------------------------------------
 #t hf aug-cc-pvdz symm=none int=(grid=ultrafine) guess=(read,tcheck) s
 table=(opt,rrhf)
 ----------------------------------------------------------------------
 -----
 title
 -----
 Symbolic Z-matrix:
 Charge =  0 Multiplicity = 1

 SCF Done:  E(RHF) =  -646.603843805     A.U. after   14 cycles
 Normal termination of Gaussian 16 at Tue Apr  8 23:09:24 2025.
 Gaussian 16:  ES64L-G16RevC.01  3-Jul-2019

 ----------------------------------------------------------------------
 #t hf aug-cc-pvdz iop(5/13=1,5/36=2,99/5=2) pseudo=read geom=check gue
 ss=(read,tcheck) scf=(maxcycle=1)
 ----------------------------------------------------------------------
 -----
 title
 -----
 Structure from the checkpoint file:  "BDE49_expt_539_mol1.chk"
 Charge =  0 Multiplicity = 1

                         Standard orientation:
 ---------------------------------------------------------------------
 Center     Atomic      Atomic             Coordinates (Angstroms)
 Number     Number       Type             X           Y           Z
 ---------------------------------------------------------------------
      1          6           0        1.442727   -1.292992   -0.128740
      2          6           0        2.178676   -0.032458    0.312898
      3          7           0       -0.011068   -1.140503   -0.002202
      4          1           0        1.744701   -2.154607    0.472637
      5          1           0        1.690139   -1.521634   -1.174193
      6          6           0       -0.722462    0.000161    0.022479
      7          6           0        0.060543    1.296892    0.128978
      8          6           0        1.523476    1.196543   -0.319298
      9          1           0        0.015321    1.596849    1.182940
     10          1           0       -0.484183    2.060876   -0.425130
     11          1           0        1.574704    1.118838   -1.411660
     12          1           0        2.057811    2.108973   -0.042197
     13          1           0        3.230342   -0.117022    0.026991
     14          1           0        2.143943    0.051837    1.404644
     15         16           0       -2.388736   -0.011927   -0.002533
     16          1           0       -0.573290   -1.978633   -0.075998
 ---------------------------------------------------------------------

 SCF Done:  E(RHF) =  -646.927885659     A.U. after    2 cycles

 The electronic state is 1-A.
 Alpha  occ. eigenvalues --  -93.88241 -15.55035 -11.34924 -11.29729 -11.25710
 Alpha  occ. eigenvalues --  -11.25625 -11.25382  -8.16524  -6.14397  -6.14086
 Alpha  occ. eigenvalues --   -6.13980  -1.28533  -1.10031  -1.07853  -0.96460
 Alpha  occ. eigenvalues --   -0.91846  -0.86003  -0.78904  -0.71343  -0.67321
 Alpha  occ. eigenvalues --   -0.63872  -0.62390  -0.61912  -0.59523  -0.54673
 Alpha  occ. eigenvalues --   -0.50658  -0.50075  -0.49162  -0.48024  -0.33565
 Alpha  occ. eigenvalues --   -0.32382
 Alpha virt. eigenvalues --    0.02661   0.03206   0.03464   0.04024   0.05280
 Alpha virt. eigenvalues --    0.05840   0.06387   0.07360   0.07686   0.09913
 Alpha virt. eigenvalues --    0.10246   0.12006   0.12659   0.13218   0.13410

 Mulliken charges:
               1
     1  C   -0.329132
     2  C   -0.265560
     3  N    0.782045
     4  H    0.066274
     5  H    0.083825
     6  C   -1.168397
     7  C   -0.303839
     8  C   -0.125461
     9  H    0.315188
    10  H    0.211207
    11  H    0.118855
    12  H    0.146507
    13  H    0.166039
    14  H    0.116593
    15  S    0.028955
    16  H    0.156902
 Sum of Mulliken charges =  -0.00000

 Dipole moment (field-independent basis, Debye):
    X=              5.7862    Y=             -0.5607    Z=             -0.0703  Tot=              5.8137

 Test job not archived.
 1\1\GINC-SE106\SP\RHF\Aug-CC-pVDZ\C5H9N1S1\OHZDE\08-Apr-2025\0\\#t hf
 aug-cc-pvdz iop(5/13=1,5/36=2,99/5=2) pseudo=read geom=check guess=(re
 ad,tcheck) scf=(maxcycle=1)\\title\\0,1\C,0,1.442727,-1.292992,-0.1287
 4\C,0,2.178676,-0.032458,0.312898\N,0,-0.011068,-1.140503,-0.002202\H,
 0,1.744701,-2.154607,0.472637\H,0,1.690139,-1.521634,-1.174193\C,0,-0.
 722462,0.000161,0.022479\C,0,0.060543,1.296892,0.128978\C,0,1.523476,1
 .196543,-0.319298\H,0,0.015321,1.596849,1.18294\H,0,-0.484183,2.060876
 ,-0.42513\H,0,1.574704,1.118838,-1.41166\H,0,2.057811,2.108973,-0.0421

 Normal termination of Gaussian 16 at Tue Apr  8 23:09:30 2025.
