 Gaussian 16, Revision C.01,

 ----------------------------------------------------------------------
 #t hf aug-cc-pvdz symm=none int=(grid=ultrafine) guess=(read,tcheck) s
 table=(opt,rrhf)
 ----------------------------------------------------------------------
 -----
 title
 -----
 Symbolic Z-matrix:
 Charge =  0 Multiplicity = 1

 SCF Done:  E(RHF) =  -1193.24325463     A.U. after   12 cycles
 Normal termination of Gaussian 16 at Wed Apr  9 00:20:38 2025.
 Gaussian 16:  ES64L-G16RevC.01  3-Jul-2019

 ----------------------------------------------------------------------
 #t hf aug-cc-pvdz iop(5/13=1,5/36=2,99/5=2) pseudo=read geom=check gue
 ss=(read,tcheck) scf=(maxcycle=1)
 ----------------------------------------------------------------------
 -----
 title
 -----
 Structure from the checkpoint file:  "BDE49_nonexpt_2613_mol1.chk"
 Charge =  0 Multiplicity = 1

                         Standard orientation:
 ---------------------------------------------------------------------
 Center     Atomic      Atomic             Coordinates (Angstroms)
 Number     Number       Type             X           Y           Z
 ---------------------------------------------------------------------
      1         17           0        2.017998   -0.348691    0.000000
      2          9           0       -2.026097    0.697873   -0.000001
      3          9           0       -1.003040   -0.894778   -1.078692
      4          9           0       -1.003041   -0.894777    1.078693
      5          6           0       -0.952295   -0.110961    0.000000
      6         16           0        0.481089    1.026166    0.000000
 ---------------------------------------------------------------------

 SCF Done:  E(RHF) =  -1193.68309689     A.U. after    2 cycles

 The electronic state is 1-A.
 Alpha  occ. eigenvalues -- -105.61746 -94.05383 -26.53907 -26.53325 -26.53322
 Alpha  occ. eigenvalues --  -11.57131 -10.66446  -8.33194  -7.83392  -7.82916
 Alpha  occ. eigenvalues --   -7.82871  -6.30956  -6.30746  -6.30421  -1.74710
 Alpha  occ. eigenvalues --   -1.64657  -1.64219  -1.16769  -1.03055  -0.93364
 Alpha  occ. eigenvalues --   -0.84092  -0.83949  -0.79418  -0.71535  -0.71160
 Alpha  occ. eigenvalues --   -0.66786  -0.66546  -0.64673  -0.59134  -0.56224
 Alpha  occ. eigenvalues --   -0.54939  -0.48950  -0.41692
 Alpha virt. eigenvalues --    0.02921   0.06702   0.08594   0.10054   0.10132
 Alpha virt. eigenvalues --    0.10574   0.12431   0.12930   0.14156   0.15550
 Alpha virt. eigenvalues --    0.16032   0.19702   0.23750   0.25135   0.25689

 Mulliken charges:
               1
     1  Cl  -0.221746
     2  F   -0.608060
     3  F   -0.593909
     4  F   -0.593909
     5  C    1.641423
     6  S    0.376201
 Sum of Mulliken charges =  -0.00000

 Dipole moment (field-independent basis, Debye):
    X=              0.2395    Y=              0.6480    Z=             -0.0000  Tot=              0.6908

 Test job not archived.
 1\1\GINC-SE099\SP\RHF\Aug-CC-pVDZ\C1Cl1F3S1\OHZDE\09-Apr-2025\0\\#t hf
  aug-cc-pvdz iop(5/13=1,5/36=2,99/5=2) pseudo=read geom=check guess=(r
 ead,tcheck) scf=(maxcycle=1)\\title\\0,1\Cl,0,2.017998,-0.348691,0.\F,
 0,-2.026097,0.697873,-0.000001\F,0,-1.00304,-0.894778,-1.078692\F,0,-1
 .003041,-0.894777,1.078693\C,0,-0.952295,-0.110961,0.\S,0,0.481089,1.0
 26166,0.\\Version=ES64L-G16RevC.01\State=1-A\HF=-1193.6830969\RMSD=3.0
 38e-03\Dipole=0.0942135,0.2549443,-0.0000003\Quadrupole=0.30192,0.9344
 116,-1.2363316,-0.336722,0.0000006,0.0000008\PG=C01 [X(C1Cl1F3S1)]\\@

 Normal termination of Gaussian 16 at Wed Apr  9 00:20:41 2025.
