 Gaussian 16, Revision C.01,

 ----------------------------------------------------------------------
 #t hf aug-cc-pvdz symm=none int=(grid=ultrafine) guess=(read,tcheck) s
 table=(opt,rrhf)
 ----------------------------------------------------------------------
 -----
 title
 -----
 Symbolic Z-matrix:
 Charge =  0 Multiplicity = 1

 SCF Done:  E(RHF) =  -773.460419895     A.U. after   15 cycles
 Normal termination of Gaussian 16 at Wed Apr  9 00:02:36 2025.
 Gaussian 16:  ES64L-G16RevC.01  3-Jul-2019

 ----------------------------------------------------------------------
 #t hf aug-cc-pvdz iop(5/13=1,5/36=2,99/5=2) pseudo=read geom=check gue
 ss=(read,tcheck) scf=(maxcycle=1)
 ----------------------------------------------------------------------
 -----
 title
 -----
 Structure from the checkpoint file:  "BDE49_nonexpt_2140_mol1.chk"
 Charge =  0 Multiplicity = 1

                         Standard orientation:
 ---------------------------------------------------------------------
 Center     Atomic      Atomic             Coordinates (Angstroms)
 Number     Number       Type             X           Y           Z
 ---------------------------------------------------------------------
      1          6           0       -0.505766   -0.000003    0.507068
      2          7           0        2.509663   -0.000000   -0.178696
      3          9           0        2.177059   -1.111179   -0.998348
      4          9           0        2.177061    1.111190   -0.998334
      5          6           0       -1.177816   -1.207153    0.253768
      6          6           0       -1.177813    1.207151    0.253774
      7          6           0       -2.479817   -1.207453   -0.238128
      8          6           0       -3.130733    0.000004   -0.484666
      9          6           0       -2.479813    1.207457   -0.238121
     10          1           0       -2.986020    2.146913   -0.429050
     11          1           0       -0.682085    2.153583    0.442583
     12          1           0       -2.986026   -2.146907   -0.429061
     13          1           0       -4.145328    0.000006   -0.867149
     14          1           0       -0.682092   -2.153588    0.442572
     15         14           0        1.236216   -0.000007    1.140289
     16          1           0        1.565180   -1.227961    1.887445
     17          1           0        1.565182    1.227938    1.887459
 ---------------------------------------------------------------------

 SCF Done:  E(RHF) =  -773.961952203     A.U. after    2 cycles

 The electronic state is 1-A.
 Alpha  occ. eigenvalues --  -69.57595 -26.49179 -26.49175 -15.67349 -11.26615
 Alpha  occ. eigenvalues --  -11.26606 -11.26374 -11.25681 -11.25664 -11.24993
 Alpha  occ. eigenvalues --   -6.24532  -3.99906  -3.99829  -3.99812  -1.63928
 Alpha  occ. eigenvalues --   -1.56151  -1.16876  -1.08571  -1.03337  -1.03253
 Alpha  occ. eigenvalues --   -0.85601  -0.84984  -0.80082  -0.73961  -0.73481
 Alpha  occ. eigenvalues --   -0.73055  -0.68293  -0.65946  -0.64916  -0.64213
 Alpha  occ. eigenvalues --   -0.61611  -0.59918  -0.59602  -0.56493  -0.52752
 Alpha  occ. eigenvalues --   -0.52411  -0.51471  -0.49545  -0.47526  -0.36693
 Alpha  occ. eigenvalues --   -0.36114
 Alpha virt. eigenvalues --    0.03081   0.03522   0.03601   0.05067   0.05324
 Alpha virt. eigenvalues --    0.05480   0.06924   0.07173   0.08323   0.08558
 Alpha virt. eigenvalues --    0.09763   0.09899   0.11022   0.12142   0.12935

 Mulliken charges:
               1
     1  C   -0.656250
     2  N    1.018923
     3  F   -0.675823
     4  F   -0.675824
     5  C    0.339137
     6  C    0.339138
     7  C    0.496724
     8  C    0.231551
     9  C    0.496737
    10  H   -0.209619
    11  H   -0.360752
    12  H   -0.209619
    13  H   -0.209396
    14  H   -0.360752
    15  Si   0.726385
    16  H   -0.145280
    17  H   -0.145279
 Sum of Mulliken charges =   0.00000

 Dipole moment (field-independent basis, Debye):
    X=             -3.2609    Y=             -0.0000    Z=              1.6728  Tot=              3.6649

 Test job not archived.
 1\1\GINC-SE334\SP\RHF\Aug-CC-pVDZ\C6H7F2N1Si1\OHZDE\09-Apr-2025\0\\#t
 hf aug-cc-pvdz iop(5/13=1,5/36=2,99/5=2) pseudo=read geom=check guess=
 (read,tcheck) scf=(maxcycle=1)\\title\\0,1\C,0,-0.505766,-0.000003,0.5
 07068\N,0,2.509663,0.,-0.178696\F,0,2.177059,-1.111179,-0.998348\F,0,2
 .177061,1.11119,-0.998334\C,0,-1.177816,-1.207153,0.253768\C,0,-1.1778
 13,1.207151,0.253774\C,0,-2.479817,-1.207453,-0.238128\C,0,-3.130733,0
 .000004,-0.484666\C,0,-2.479813,1.207457,-0.238121\H,0,-2.98602,2.1469
 13,-0.42905\H,0,-0.682085,2.153583,0.442583\H,0,-2.986026,-2.146907,-0

 Normal termination of Gaussian 16 at Wed Apr  9 00:02:45 2025.
