 Gaussian 16, Revision C.01,

 ----------------------------------------------------------------------
 #t hf aug-cc-pvdz symm=none int=(grid=ultrafine) guess=(read,tcheck) s
 table=(opt,rrhf)
 ----------------------------------------------------------------------
 -----
 title
 -----
 Symbolic Z-matrix:
 Charge =  0 Multiplicity = 1

 SCF Done:  E(RHF) =  -750.226076067     A.U. after   10 cycles
 Normal termination of Gaussian 16 at Tue Apr  8 22:58:34 2025.
 Gaussian 16:  ES64L-G16RevC.01  3-Jul-2019

 ----------------------------------------------------------------------
 #t hf aug-cc-pvdz iop(5/13=1,5/36=2,99/5=2) pseudo=read geom=check gue
 ss=(read,tcheck) scf=(maxcycle=1)
 ----------------------------------------------------------------------
 -----
 title
 -----
 Structure from the checkpoint file:  "BDE49_expt_1943_mol1.chk"
 Charge =  0 Multiplicity = 1

                         Standard orientation:
 ---------------------------------------------------------------------
 Center     Atomic      Atomic             Coordinates (Angstroms)
 Number     Number       Type             X           Y           Z
 ---------------------------------------------------------------------
      1         14           0       -1.000100    0.000007   -0.000001
      2         17           0        1.081033   -0.000005    0.000003
      3          1           0       -1.458794   -0.548431    1.289718
      4          1           0       -1.458725   -0.842778   -1.119805
      5          1           0       -1.458641    1.391193   -0.169944
 ---------------------------------------------------------------------

 SCF Done:  E(RHF) =  -750.339708681     A.U. after    2 cycles

 The electronic state is 1-A.
 Alpha  occ. eigenvalues -- -105.56003 -69.58582 -10.61033  -7.77918  -7.77598
 Alpha  occ. eigenvalues --   -7.77598  -6.25258  -4.00721  -4.00552  -4.00552
 Alpha  occ. eigenvalues --   -1.05547  -0.75518  -0.54117  -0.54116  -0.53886
 Alpha  occ. eigenvalues --   -0.45942  -0.45942
 Alpha virt. eigenvalues --    0.03693   0.04818   0.05685   0.05685   0.08751
 Alpha virt. eigenvalues --    0.08751   0.11760   0.14435   0.15868   0.16043
 Alpha virt. eigenvalues --    0.16043   0.18999   0.18999   0.23480   0.23480

 Mulliken charges:
               1
     1  Si   1.152382
     2  Cl  -0.535345
     3  H   -0.205679
     4  H   -0.205686
     5  H   -0.205672
 Sum of Mulliken charges =  -0.00000

 Dipole moment (field-independent basis, Debye):
    X=             -1.7473    Y=              0.0001    Z=              0.0000  Tot=              1.7473

 Test job not archived.
 1\1\GINC-SE087\SP\RHF\Aug-CC-pVDZ\Cl1H3Si1\OHZDE\08-Apr-2025\0\\#t hf
 aug-cc-pvdz iop(5/13=1,5/36=2,99/5=2) pseudo=read geom=check guess=(re
 ad,tcheck) scf=(maxcycle=1)\\title\\0,1\Si,0,1.0001,-0.000007,-0.00000
 1\Cl,0,-1.081033,0.000005,0.000003\H,0,1.458795,0.549328,1.289336\H,0,
 1.458725,0.841999,-1.120391\H,0,1.458641,-1.391311,-0.168977\\Version=
 ES64L-G16RevC.01\State=1-A\HF=-750.3397087\RMSD=4.048e-03\Dipole=0.687
 4327,-0.0000251,0.0000087\Quadrupole=0.4149665,-0.2074609,-0.2075056,-
 0.0000672,0.0000295,0.0000135\PG=C01 [X(Cl1H3Si1)]\\@

 Normal termination of Gaussian 16 at Tue Apr  8 22:58:36 2025.
