 Gaussian 16, Revision C.01,

 ----------------------------------------------------------------------
 #t hf aug-cc-pvdz symm=none int=(grid=ultrafine) guess=(read,tcheck) s
 table=(opt,rrhf)
 ----------------------------------------------------------------------
 -----
 title
 -----
 Symbolic Z-matrix:
 Charge =  0 Multiplicity = 1

 SCF Done:  E(RHF) =  -689.148774721     A.U. after   15 cycles

 1\1\GINC-SE393\Stability\RHF\Aug-CC-pVDZ\C9H13P1\OHZDE\08-Apr-2025\0\\
 #t hf aug-cc-pvdz symm=none int=(grid=ultrafine) guess=(read,tcheck) s
 table=(opt,rrhf)\\title\\0,1\C,0,0.313645,0.13325,0.125177\C,0,0.93877
 7,-1.10173,0.364581\C,0,2.315541,-1.253281,0.240577\C,0,3.111335,-0.17
 0886,-0.129792\C,0,2.510186,1.058406,-0.375291\C,0,1.128724,1.207336,-
 0.251565\P,0,-1.986009,-0.957149,-0.968415\H,0,2.766885,-2.220594,0.43
 1883\H,0,4.184827,-0.286788,-0.226676\H,0,3.114172,1.911233,-0.665358\
 H,0,0.694701,2.178249,-0.449638\H,0,0.341305,-1.961682,0.644014\C,0,-1

 Normal termination of Gaussian 16 at Tue Apr  8 23:31:21 2025.
 Gaussian 16:  ES64L-G16RevC.01  3-Jul-2019

 ----------------------------------------------------------------------
 #t hf aug-cc-pvdz iop(5/13=1,5/36=2,99/5=2) pseudo=read geom=check gue
 ss=(read,tcheck) scf=(maxcycle=1)
 ----------------------------------------------------------------------
 -----
 title
 -----
 Structure from the checkpoint file:  "BDE49_nonexpt_1350_mol1.chk"
 Charge =  0 Multiplicity = 1

                         Standard orientation:
 ---------------------------------------------------------------------
 Center     Atomic      Atomic             Coordinates (Angstroms)
 Number     Number       Type             X           Y           Z
 ---------------------------------------------------------------------
      1          6           0        0.313645    0.133250    0.125177
      2          6           0        0.938777   -1.101730    0.364581
      3          6           0        2.315541   -1.253281    0.240577
      4          6           0        3.111335   -0.170886   -0.129792
      5          6           0        2.510186    1.058406   -0.375291
      6          6           0        1.128724    1.207336   -0.251565
      7         15           0       -1.986009   -0.957149   -0.968415
      8          1           0        2.766885   -2.220594    0.431883
      9          1           0        4.184827   -0.286788   -0.226676
     10          1           0        3.114172    1.911233   -0.665358
     11          1           0        0.694701    2.178249   -0.449638
     12          1           0        0.341305   -1.961682    0.644014
     13          6           0       -1.207439    0.268623    0.273720
     14          6           0       -1.711607    1.699794    0.028223
     15          1           0       -1.483058    2.052830   -0.979436
     16          1           0       -1.268349    2.399452    0.745846
     17          1           0       -2.795576    1.740759    0.153927
     18          6           0       -1.651480   -0.169490    1.689609
     19          1           0       -1.198233    0.485086    2.440377
     20          1           0       -1.358473   -1.194983    1.919395
     21          1           0       -2.738451   -0.100062    1.793132
     22          1           0       -1.648446   -0.245774   -2.149128
     23          1           0       -3.307252   -0.432633   -0.923549
 ---------------------------------------------------------------------

 SCF Done:  E(RHF) =  -689.562465831     A.U. after    2 cycles

 The electronic state is 1-A.
 Alpha  occ. eigenvalues --  -84.26666 -11.26477 -11.25182 -11.24258 -11.24231
 Alpha  occ. eigenvalues --  -11.23970 -11.23951 -11.23887 -11.23451 -11.23329
 Alpha  occ. eigenvalues --   -6.73701  -4.26449  -4.26260  -4.25672  -1.16165
 Alpha  occ. eigenvalues --   -1.09390  -1.01633  -1.00058  -0.94276  -0.87697
 Alpha  occ. eigenvalues --   -0.83714  -0.82837  -0.75727  -0.70468  -0.64810
 Alpha  occ. eigenvalues --   -0.63660  -0.62381  -0.60442  -0.59713  -0.57212
 Alpha  occ. eigenvalues --   -0.55203  -0.53872  -0.52055  -0.51706  -0.49522
 Alpha  occ. eigenvalues --   -0.48568  -0.47723  -0.44197  -0.34906  -0.33731
 Alpha  occ. eigenvalues --   -0.32860
 Alpha virt. eigenvalues --    0.03302   0.03506   0.03777   0.04406   0.04812
 Alpha virt. eigenvalues --    0.05018   0.06243   0.06769   0.07486   0.07692
 Alpha virt. eigenvalues --    0.08101   0.09587   0.10222   0.10486   0.10805

 Mulliken charges:
               1
     1  C    2.022855
     2  C    0.049358
     3  C   -0.133223
     4  C    0.154785
     5  C   -0.017486
     6  C    0.317481
     7  P   -0.688728
     8  H   -0.252288
     9  H   -0.226978
    10  H   -0.252511
    11  H   -0.434916
    12  H   -0.312107
    13  C   -1.594992
    14  C    0.060414
    15  H    0.198139
    16  H    0.318263
    17  H   -0.002959
    18  C   -0.320764
    19  H    0.186260
    20  H    0.120897
    21  H    0.155506
    22  H    0.361746
    23  H    0.291247
 Sum of Mulliken charges =   0.00000

 Dipole moment (field-independent basis, Debye):
    X=             -0.0714    Y=              0.7395    Z=              0.3855  Tot=              0.8370

 Test job not archived.
 1\1\GINC-SE393\SP\RHF\Aug-CC-pVDZ\C9H13P1\OHZDE\08-Apr-2025\0\\#t hf a
 ug-cc-pvdz iop(5/13=1,5/36=2,99/5=2) pseudo=read geom=check guess=(rea
 d,tcheck) scf=(maxcycle=1)\\title\\0,1\C,0,0.313645,0.13325,0.125177\C
 ,0,0.938777,-1.10173,0.364581\C,0,2.315541,-1.253281,0.240577\C,0,3.11
 1335,-0.170886,-0.129792\C,0,2.510186,1.058406,-0.375291\C,0,1.128724,
 1.207336,-0.251565\P,0,-1.986009,-0.957149,-0.968415\H,0,2.766885,-2.2
 20594,0.431883\H,0,4.184827,-0.286788,-0.226676\H,0,3.114172,1.911233,
 -0.665358\H,0,0.694701,2.178249,-0.449638\H,0,0.341305,-1.961682,0.644

 Normal termination of Gaussian 16 at Tue Apr  8 23:31:37 2025.
