 Gaussian 16, Revision C.01,

 ----------------------------------------------------------------------
 #t hf aug-cc-pvdz symm=none int=(grid=ultrafine) guess=(read,tcheck) s
 table=(opt,rrhf)
 ----------------------------------------------------------------------
 -----
 title
 -----
 Symbolic Z-matrix:
 Charge =  0 Multiplicity = 1

 SCF Done:  E(RHF) =  -962.750016856     A.U. after   15 cycles
 Normal termination of Gaussian 16 at Tue Apr  8 23:36:06 2025.
 Gaussian 16:  ES64L-G16RevC.01  3-Jul-2019

 ----------------------------------------------------------------------
 #t hf aug-cc-pvdz iop(5/13=1,5/36=2,99/5=2) pseudo=read geom=check gue
 ss=(read,tcheck) scf=(maxcycle=1)
 ----------------------------------------------------------------------
 -----
 title
 -----
 Structure from the checkpoint file:  "BDE49_nonexpt_1461_mol1.chk"
 Charge =  0 Multiplicity = 1

                         Standard orientation:
 ---------------------------------------------------------------------
 Center     Atomic      Atomic             Coordinates (Angstroms)
 Number     Number       Type             X           Y           Z
 ---------------------------------------------------------------------
      1          6           0       -0.365392    1.113706    0.101902
      2          6           0        1.020590    0.989934    0.146723
      3          6           0       -1.163242   -0.021750   -0.020879
      4          6           0       -0.569937   -1.283828   -0.097921
      5          6           0        0.812575   -1.401632   -0.054023
      6          6           0        1.626529   -0.266665    0.063723
      7          1           0        1.642378    1.872646    0.235441
      8          1           0       -0.825862    2.092409    0.153860
      9          1           0       -1.189568   -2.165712   -0.204090
     10          1           0        1.260323   -2.388288   -0.123450
     11         15           0        3.450754   -0.472845    0.241478
     12          7           0        4.030132    1.039677   -0.289619
     13          1           0        4.895395    1.342127    0.130714
     14          1           0        3.959954    1.306624   -1.262261
     15          6           0       -2.660384    0.098735   -0.019105
     16          9           0       -3.077430    1.307116   -0.456832
     17          9           0       -3.178399   -0.063378    1.222652
     18          9           0       -3.245906   -0.834821   -0.803177
     19          1           0        3.596328   -1.296125   -0.911364
 ---------------------------------------------------------------------

 SCF Done:  E(RHF) =  -963.393960040     A.U. after    2 cycles

 The electronic state is 1-A.
 Alpha  occ. eigenvalues --  -84.30723 -26.50062 -26.49963 -26.49521 -15.51039
 Alpha  occ. eigenvalues --  -11.51822 -11.27225 -11.26816 -11.26741 -11.26612
 Alpha  occ. eigenvalues --  -11.26189 -11.25735  -6.77418  -4.30376  -4.30143
 Alpha  occ. eigenvalues --   -4.29159  -1.70482  -1.60606  -1.60068  -1.18982
 Alpha  occ. eigenvalues --   -1.17463  -1.07160  -1.03919  -0.96032  -0.88305
 Alpha  occ. eigenvalues --   -0.86497  -0.82404  -0.79914  -0.79588  -0.78955
 Alpha  occ. eigenvalues --   -0.72226  -0.68783  -0.68385  -0.67219  -0.66057
 Alpha  occ. eigenvalues --   -0.65246  -0.63192  -0.62689  -0.61673  -0.61109
 Alpha  occ. eigenvalues --   -0.59758  -0.56918  -0.53866  -0.52547  -0.51237
 Alpha  occ. eigenvalues --   -0.45133  -0.39952  -0.36599  -0.32668
 Alpha virt. eigenvalues --    0.02654   0.03690   0.04401   0.05194   0.05320
 Alpha virt. eigenvalues --    0.06402   0.07126   0.07446   0.08160   0.08962
 Alpha virt. eigenvalues --    0.09312   0.09650   0.09774   0.11062   0.12563

 Mulliken charges:
               1
     1  C   -0.314687
     2  C    0.291246
     3  C    0.684580
     4  C   -0.087082
     5  C   -0.003114
     6  C   -0.113404
     7  H   -0.315693
     8  H   -0.277489
     9  H   -0.289329
    10  H   -0.277720
    11  P    0.228902
    12  N    0.081902
    13  H    0.003406
    14  H   -0.055252
    15  C    2.544776
    16  F   -0.838780
    17  F   -0.755803
    18  F   -0.825625
    19  H    0.319167
 Sum of Mulliken charges =   0.00000

 Dipole moment (field-independent basis, Debye):
    X=              3.7929    Y=              0.1715    Z=             -1.0859  Tot=              3.9490

 Test job not archived.
 1\1\GINC-SE184\SP\RHF\Aug-CC-pVDZ\C7H7F3N1P1\OHZDE\08-Apr-2025\0\\#t h
 f aug-cc-pvdz iop(5/13=1,5/36=2,99/5=2) pseudo=read geom=check guess=(
 read,tcheck) scf=(maxcycle=1)\\title\\0,1\C,0,-0.365392,1.113706,0.101
 902\C,0,1.02059,0.989934,0.146723\C,0,-1.163242,-0.02175,-0.020879\C,0
 ,-0.569937,-1.283828,-0.097921\C,0,0.812575,-1.401632,-0.054023\C,0,1.
 626529,-0.266665,0.063723\H,0,1.642378,1.872646,0.235441\H,0,-0.825862
 ,2.092409,0.15386\H,0,-1.189568,-2.165712,-0.20409\H,0,1.260323,-2.388
 288,-0.12345\P,0,3.450754,-0.472845,0.241478\N,0,4.030132,1.039677,-0.

 Normal termination of Gaussian 16 at Tue Apr  8 23:36:19 2025.
