 Gaussian 16, Revision C.01,

 ----------------------------------------------------------------------
 #t hf aug-cc-pvdz symm=none int=(grid=ultrafine) guess=(read,tcheck) s
 table=(opt,rrhf)
 ----------------------------------------------------------------------
 -----
 title
 -----
 Symbolic Z-matrix:
 Charge =  0 Multiplicity = 1

 SCF Done:  E(RHF) =  -933.269513647     A.U. after   14 cycles
 Normal termination of Gaussian 16 at Wed Apr  9 00:17:33 2025.
 Gaussian 16:  ES64L-G16RevC.01  3-Jul-2019

 ----------------------------------------------------------------------
 #t hf aug-cc-pvdz iop(5/13=1,5/36=2,99/5=2) pseudo=read geom=check gue
 ss=(read,tcheck) scf=(maxcycle=1)
 ----------------------------------------------------------------------
 -----
 title
 -----
 Structure from the checkpoint file:  "BDE49_nonexpt_2561_mol1.chk"
 Charge =  0 Multiplicity = 1

                         Standard orientation:
 ---------------------------------------------------------------------
 Center     Atomic      Atomic             Coordinates (Angstroms)
 Number     Number       Type             X           Y           Z
 ---------------------------------------------------------------------
      1         17           0        1.541849   -0.528408   -0.000000
      2         16           0       -0.002942    0.898823   -0.000000
      3          6           0       -1.379717   -0.045651   -0.000000
      4          6           0       -2.423961   -0.655577   -0.000000
      5          1           0       -3.342283   -1.190857    0.000001
 ---------------------------------------------------------------------

 SCF Done:  E(RHF) =  -933.480497049     A.U. after    2 cycles

 The electronic state is 1-A.
 Alpha  occ. eigenvalues -- -105.59746 -94.05207 -11.29166 -11.28139 -10.64405
 Alpha  occ. eigenvalues --   -8.32766  -7.81345  -7.80883  -7.80851  -6.30566
 Alpha  occ. eigenvalues --   -6.30367  -6.30042  -1.15995  -1.06103  -0.97396
 Alpha  occ. eigenvalues --   -0.75924  -0.66373  -0.56898  -0.55027  -0.48155
 Alpha  occ. eigenvalues --   -0.47566  -0.43402  -0.36844
 Alpha virt. eigenvalues --    0.01737   0.03393   0.06826   0.08485   0.09482
 Alpha virt. eigenvalues --    0.09540   0.12487   0.13438   0.14330   0.14815
 Alpha virt. eigenvalues --    0.15103   0.16241   0.16671   0.17439   0.19693

 Mulliken charges:
               1
     1  Cl  -0.228672
     2  S    0.231001
     3  C    0.199473
     4  C    0.023019
     5  H   -0.224822
 Sum of Mulliken charges =  -0.00000

 Dipole moment (field-independent basis, Debye):
    X=             -1.7443    Y=             -0.0988    Z=              0.0000  Tot=              1.7471

 Test job not archived.
 1\1\GINC-SE455\SP\RHF\Aug-CC-pVDZ\C2H1Cl1S1\OHZDE\09-Apr-2025\0\\#t hf
  aug-cc-pvdz iop(5/13=1,5/36=2,99/5=2) pseudo=read geom=check guess=(r
 ead,tcheck) scf=(maxcycle=1)\\title\\0,1\Cl,0,1.541849,-0.528408,0.\S,
 0,-0.002942,0.898823,0.\C,0,-1.379717,-0.045651,0.\C,0,-2.423961,-0.65
 5577,0.\H,0,-3.342283,-1.190857,0.000001\\Version=ES64L-G16RevC.01\Sta
 te=1-A\HF=-933.480497\RMSD=2.034e-02\Dipole=-0.6862597,-0.0388639,0.00
 00005\Quadrupole=3.5408689,-0.0950292,-3.4458397,2.1384871,-0.0000035,
 -0.0000013\PG=C01 [X(C2H1Cl1S1)]\\@

 Normal termination of Gaussian 16 at Wed Apr  9 00:17:35 2025.
