 Gaussian 16, Revision C.01,

 ----------------------------------------------------------------------
 #t hf aug-cc-pvdz symm=none int=(grid=ultrafine) guess=(read,tcheck) s
 table=(opt,rrhf)
 ----------------------------------------------------------------------
 -----
 title
 -----
 Symbolic Z-matrix:
 Charge =  0 Multiplicity = 1

 SCF Done:  E(RHF) =  -1612.19982080     A.U. after   12 cycles
 Normal termination of Gaussian 16 at Tue Apr  8 23:57:55 2025.
 Gaussian 16:  ES64L-G16RevC.01  3-Jul-2019

 ----------------------------------------------------------------------
 #t hf aug-cc-pvdz iop(5/13=1,5/36=2,99/5=2) pseudo=read geom=check gue
 ss=(read,tcheck) scf=(maxcycle=1)
 ----------------------------------------------------------------------
 -----
 title
 -----
 Structure from the checkpoint file:  "BDE49_nonexpt_1955_mol1.chk"
 Charge =  0 Multiplicity = 1

                         Standard orientation:
 ---------------------------------------------------------------------
 Center     Atomic      Atomic             Coordinates (Angstroms)
 Number     Number       Type             X           Y           Z
 ---------------------------------------------------------------------
      1         14           0        0.514870    2.160044   -0.358679
      2          6           0       -0.953697    1.820852    0.801709
      3         15           0       -1.889416   -0.490351   -0.086132
      4          8           0       -1.473430   -1.218368    1.235651
      5          8           0       -3.397226   -0.905065   -0.319538
      6          1           0       -0.477810   -1.235265    1.355658
      7          1           0       -3.524164   -1.317879   -1.181242
      8          8           0       -1.001172   -0.739406   -1.250799
      9         15           0        1.876732   -0.542538    0.077835
     10          8           0        1.561225   -1.360601   -1.222626
     11          1           0        0.589317   -1.294474   -1.419758
     12          8           0        3.447648   -0.655733    0.236017
     13          1           0        3.696473   -1.299856    0.908708
     14          8           0        1.124852   -0.950768    1.291112
     15          8           0       -2.056781    1.053917    0.250984
     16          8           0        1.694042    0.978836   -0.284731
     17          1           0        1.167737    3.385128    0.142481
     18          1           0        0.070800    2.312839   -1.753180
     19          1           0       -1.392084    2.789542    1.054613
     20          1           0       -0.619264    1.365069    1.739846
 ---------------------------------------------------------------------

 SCF Done:  E(RHF) =  -1612.95130530     A.U. after    2 cycles

 The electronic state is 1-A.
 Alpha  occ. eigenvalues --  -84.47572 -84.46958 -69.59226 -20.60468 -20.60427
 Alpha  occ. eigenvalues --  -20.59111 -20.58533 -20.57785 -20.57664 -20.52909
 Alpha  occ. eigenvalues --  -20.52740 -11.31273  -6.92313  -6.91799  -6.25746
 Alpha  occ. eigenvalues --   -4.46472  -4.46002  -4.45962  -4.45957  -4.45524
 Alpha  occ. eigenvalues --   -4.45354  -4.01255  -4.01065  -4.01055  -1.57037
 Alpha  occ. eigenvalues --   -1.56723  -1.48874  -1.48545  -1.47567  -1.47147
 Alpha  occ. eigenvalues --   -1.41497  -1.40730  -0.98707  -0.89306  -0.85738
 Alpha  occ. eigenvalues --   -0.78337  -0.73991  -0.73764  -0.72942  -0.71297
 Alpha  occ. eigenvalues --   -0.68963  -0.67388  -0.65474  -0.64306  -0.62935
 Alpha  occ. eigenvalues --   -0.62079  -0.60565  -0.59729  -0.57869  -0.57168
 Alpha  occ. eigenvalues --   -0.55912  -0.55040  -0.54409  -0.53899  -0.50774
 Alpha  occ. eigenvalues --   -0.49914  -0.48968  -0.48228  -0.48072  -0.47287
 Alpha  occ. eigenvalues --   -0.44237
 Alpha virt. eigenvalues --    0.03240   0.03819   0.04021   0.04734   0.05609
 Alpha virt. eigenvalues --    0.06602   0.07456   0.07740   0.08010   0.09411
 Alpha virt. eigenvalues --    0.10660   0.11056   0.11143   0.11687   0.11951

 Mulliken charges:
               1
     1  Si   1.660760
     2  C    0.067225
     3  P    4.714922
     4  O   -1.604921
     5  O   -1.359085
     6  H    0.724791
     7  H    0.380314
     8  O   -1.683341
     9  P    4.710479
    10  O   -1.493442
    11  H    0.692579
    12  O   -1.249857
    13  H    0.367129
    14  O   -1.712334
    15  O   -1.797965
    16  O   -2.361739
    17  H   -0.126427
    18  H   -0.058866
    19  H   -0.101584
    20  H    0.231361
 Sum of Mulliken charges =   0.00000

 Dipole moment (field-independent basis, Debye):
    X=              0.1241    Y=              1.6502    Z=              0.1405  Tot=              1.6608

 Test job not archived.
 1\1\GINC-SE108\SP\RHF\Aug-CC-pVDZ\C1H8O8P2Si1\OHZDE\08-Apr-2025\0\\#t
 hf aug-cc-pvdz iop(5/13=1,5/36=2,99/5=2) pseudo=read geom=check guess=
 (read,tcheck) scf=(maxcycle=1)\\title\\0,1\Si,0,0.51487,2.160044,-0.35
 8679\C,0,-0.953697,1.820852,0.801709\P,0,-1.889416,-0.490351,-0.086132
 \O,0,-1.47343,-1.218368,1.235651\O,0,-3.397226,-0.905065,-0.319538\H,0
 ,-0.47781,-1.235265,1.355658\H,0,-3.524164,-1.317879,-1.181242\O,0,-1.
 001172,-0.739406,-1.250799\P,0,1.876732,-0.542538,0.077835\O,0,1.56122
 5,-1.360601,-1.222626\H,0,0.589317,-1.294474,-1.419758\O,0,3.447648,-0

 Normal termination of Gaussian 16 at Tue Apr  8 23:58:11 2025.
