 Gaussian 16, Revision C.01,

 ----------------------------------------------------------------------
 #t hf aug-cc-pvdz symm=none int=(grid=ultrafine) guess=(read,tcheck) s
 table=opt
 ----------------------------------------------------------------------
 -----
 title
 -----
 Symbolic Z-matrix:
 Charge =  0 Multiplicity = 2

 SCF Done:  E(UHF) =  -1029.82831352     A.U. after   18 cycles

 1\1\GINC-SE044\Stability\UHF\Aug-CC-pVDZ\C6H13S2\OHZDE\08-Apr-2025\0\\
 #t hf aug-cc-pvdz symm=none int=(grid=ultrafine) guess=(read,tcheck) s
 table=opt\\title\\0,2\C,0,1.946068,-1.101554,-0.296102\S,0,1.029127,0.
 260142,-1.134133\C,0,-0.003268,0.918023,0.117343\C,0,-0.217231,2.40438
 4,0.149451\H,0,-0.468966,2.735208,1.1615\H,0,-1.051102,2.714364,-0.497
 115\H,0,0.677701,2.937721,-0.179605\S,0,-0.957584,-0.099222,1.182803\C
 ,0,-1.869247,-1.244137,0.05289\C,0,-2.931086,-0.557912,-0.797724\H,0,-
 2.311473,-1.974431,0.735591\H,0,-1.140051,-1.766247,-0.568471\H,0,-3.6

 Normal termination of Gaussian 16 at Tue Apr  8 23:07:37 2025.
 Gaussian 16:  ES64L-G16RevC.01  3-Jul-2019

 ----------------------------------------------------------------------
 #t hf aug-cc-pvdz iop(5/13=1,5/36=2,99/5=2) pseudo=read geom=check gue
 ss=(read,tcheck) scf=(maxcycle=1)
 ----------------------------------------------------------------------
 -----
 title
 -----
 Structure from the checkpoint file:  "BDE49_expt_377_mol2.chk"
 Charge =  0 Multiplicity = 2

                         Standard orientation:
 ---------------------------------------------------------------------
 Center     Atomic      Atomic             Coordinates (Angstroms)
 Number     Number       Type             X           Y           Z
 ---------------------------------------------------------------------
      1          6           0        1.946068   -1.101554   -0.296102
      2         16           0        1.029127    0.260142   -1.134133
      3          6           0       -0.003268    0.918023    0.117343
      4          6           0       -0.217231    2.404384    0.149451
      5          1           0       -0.468966    2.735208    1.161500
      6          1           0       -1.051102    2.714364   -0.497115
      7          1           0        0.677701    2.937721   -0.179605
      8         16           0       -0.957584   -0.099222    1.182803
      9          6           0       -1.869247   -1.244137    0.052890
     10          6           0       -2.931086   -0.557913   -0.797724
     11          1           0       -2.311473   -1.974431    0.735591
     12          1           0       -1.140051   -1.766247   -0.568471
     13          1           0       -3.668490   -0.048588   -0.173560
     14          1           0       -3.453735   -1.294562   -1.417059
     15          1           0       -2.479809    0.178990   -1.465556
     16          6           0        2.975634   -0.613092    0.716250
     17          1           0        2.417688   -1.639044   -1.122522
     18          1           0        1.219469   -1.769466    0.167918
     19          1           0        3.715901    0.036494    0.244143
     20          1           0        3.499258   -1.464981    1.162411
     21          1           0        2.493699   -0.054445    1.520976
 ---------------------------------------------------------------------

 SCF Done:  E(UHF) =  -1030.20517653     A.U. after    2 cycles

 The electronic state is 2-A.
 Alpha  occ. eigenvalues --  -93.94717 -93.94569 -11.29016 -11.27153 -11.27063
 Alpha  occ. eigenvalues --  -11.23717 -11.23341 -11.23219  -8.22808  -8.22643
 Alpha  occ. eigenvalues --   -6.20567  -6.20404  -6.20383  -6.20382  -6.20236
 Alpha  occ. eigenvalues --   -6.20191  -1.14358  -1.07607  -1.04243  -0.96015
 Alpha  occ. eigenvalues --   -0.95353  -0.85607  -0.83148  -0.72828  -0.64408
 Alpha  occ. eigenvalues --   -0.63756  -0.62914  -0.59645  -0.59264  -0.57901
 Alpha  occ. eigenvalues --   -0.55503  -0.54644  -0.54424  -0.51590  -0.50835
 Alpha  occ. eigenvalues --   -0.49743  -0.46702  -0.45943  -0.39088  -0.36110
 Alpha  occ. eigenvalues --   -0.29617
 Alpha virt. eigenvalues --    0.03322   0.03758   0.04027   0.04180   0.05312
 Alpha virt. eigenvalues --    0.05430   0.05908   0.06338   0.07519   0.08419
 Alpha virt. eigenvalues --    0.08528   0.09291   0.09555   0.10557   0.12053

  Beta  occ. eigenvalues --  -93.94747 -93.94628 -11.26954 -11.26937 -11.26408
  Beta  occ. eigenvalues --  -11.24034 -11.23342 -11.23210  -8.22841  -8.22703
  Beta  occ. eigenvalues --   -6.20783  -6.20651  -6.20550  -6.20420  -6.20190
  Beta  occ. eigenvalues --   -6.20086  -1.11677  -1.07259  -1.02625  -0.95878
  Beta  occ. eigenvalues --   -0.95262  -0.84520  -0.82906  -0.69451  -0.63885
  Beta  occ. eigenvalues --   -0.63337  -0.61022  -0.58919  -0.58333  -0.56218
  Beta  occ. eigenvalues --   -0.54714  -0.54386  -0.54240  -0.51469  -0.50211
  Beta  occ. eigenvalues --   -0.48797  -0.45486  -0.43065  -0.36444  -0.34932
  Beta virt. eigenvalues --    0.03332   0.03771   0.04049   0.04071   0.05320
  Beta virt. eigenvalues --    0.05389   0.05906   0.06290   0.07525   0.08429
  Beta virt. eigenvalues --    0.08484   0.08900   0.09370   0.09787   0.10648

 Mulliken charges and spin densities:
               1          2
     1  C   -0.579811   0.033201
     2  S    0.322413  -0.097106
     3  C   -0.275434   1.336686
     4  C   -0.615340  -0.237012
     5  H    0.190421   0.014937
     6  H    0.226573   0.041474
     7  H    0.166278   0.006224
     8  S    0.273069  -0.144042
     9  C   -0.558511   0.071933
    10  C   -0.461151  -0.006926
    11  H    0.190141  -0.004091
    12  H    0.182461  -0.003193
    13  H    0.180194   0.000315
    14  H    0.117558   0.000466
    15  H    0.199080  -0.006455
    16  C   -0.446868   0.003229
    17  H    0.179052  -0.003945
    18  H    0.215518  -0.000665
    19  H    0.170874   0.000728
    20  H    0.125713  -0.000346
    21  H    0.197770  -0.005410
 Sum of Mulliken charges =   0.00000   1.00000

 Dipole moment (field-independent basis, Debye):
    X=             -0.0928    Y=             -1.0365    Z=             -0.2093  Tot=              1.0615
                          Isotropic Fermi Contact Couplings
        Atom                 a.u.       MegaHertz       Gauss      10(-4) cm-1
     1  C(13)              0.02200      24.73079       8.82456       8.24930
     2  S(33)              0.00938       3.22129       1.14944       1.07451
     3  C(13)              0.26320     295.89088     105.58123      98.69858
     4  C(13)             -0.05710     -64.19201     -22.90531     -21.41215
     5  H(1)               0.00965      43.14733      15.39604      14.39240
     6  H(1)               0.02260     101.00637      36.04158      33.69210
     7  H(1)               0.00442      19.75544       7.04923       6.58971
     8  S(33)              0.02755       9.46181       3.37621       3.15612

 Normal termination of Gaussian 16 at Tue Apr  8 23:07:50 2025.
