 Gaussian 16, Revision C.01,

 ----------------------------------------------------------------------
 #t hf aug-cc-pvdz symm=none int=(grid=ultrafine) guess=(read,tcheck) s
 table=opt
 ----------------------------------------------------------------------
 -----
 title
 -----
 Symbolic Z-matrix:
 Charge =  0 Multiplicity = 2

 SCF Done:  E(UHF) =  -51.0223503064     A.U. after   14 cycles
 Normal termination of Gaussian 16 at Tue Apr  8 23:31:58 2025.
 Gaussian 16:  ES64L-G16RevC.01  3-Jul-2019

 ----------------------------------------------------------------------
 #t hf aug-cc-pvdz iop(5/13=1,5/36=2,99/5=2) pseudo=read geom=check gue
 ss=(read,tcheck) scf=(maxcycle=1)
 ----------------------------------------------------------------------
 -----
 title
 -----
 Structure from the checkpoint file:  "BDE49_nonexpt_142_mol2.chk"
 Charge =  0 Multiplicity = 2

                         Standard orientation:
 ---------------------------------------------------------------------
 Center     Atomic      Atomic             Coordinates (Angstroms)
 Number     Number       Type             X           Y           Z
 ---------------------------------------------------------------------
      1          5           0        0.844449   -0.000001    0.000002
      2          5           0       -0.717137   -0.000000   -0.000003
      3          1           0       -1.328764    1.026897    0.000002
      4          1           0       -1.328773   -1.026892   -0.000003
      5          1           0        2.020977    0.000000    0.000006
 ---------------------------------------------------------------------

 SCF Done:  E(UHF) =  -51.0743766268     A.U. after    2 cycles

 The electronic state is 2-A.
 Alpha  occ. eigenvalues --   -7.63711  -7.57035  -0.77857  -0.64482  -0.49419
 Alpha  occ. eigenvalues --   -0.49055  -0.33451
 Alpha virt. eigenvalues --    0.03124   0.03381   0.05060   0.05703   0.06004
 Alpha virt. eigenvalues --    0.06827   0.07450   0.09504   0.10921   0.13083
 Alpha virt. eigenvalues --    0.14009   0.14270   0.14834   0.24063   0.24197

  Beta  occ. eigenvalues --   -7.62724  -7.56805  -0.72819  -0.62900  -0.48952
  Beta  occ. eigenvalues --   -0.48240
  Beta virt. eigenvalues --    0.01552   0.03429   0.03604   0.05174   0.05940
  Beta virt. eigenvalues --    0.07460   0.07522   0.09288   0.10307   0.11116
  Beta virt. eigenvalues --    0.13680   0.14040   0.15044   0.19533   0.24488

 Mulliken charges and spin densities:
               1          2
     1  B   -0.703993   0.773286
     2  B   -0.091606   0.363953
     3  H    0.154465  -0.056887
     4  H    0.154465  -0.056887
     5  H    0.486668  -0.023465
 Sum of Mulliken charges =  -0.00000   1.00000

 Dipole moment (field-independent basis, Debye):
    X=              1.3768    Y=             -0.0000    Z=              0.0000  Tot=              1.3768
                          Isotropic Fermi Contact Couplings
        Atom                 a.u.       MegaHertz       Gauss      10(-4) cm-1
     1  B(11)              0.05110      73.29682      26.15413      24.44919
     2  B(11)              0.00107       1.53541       0.54787       0.51216
     3  H(1)              -0.00689     -30.79695     -10.98912     -10.27276
     4  H(1)              -0.00689     -30.79693     -10.98911     -10.27275
     5  H(1)              -0.01515     -67.70761     -24.15976     -22.58483
 --------------------------------------------------------
       Center         ----  Spin Dipole Couplings  ----
                      3XX-RR        3YY-RR        3ZZ-RR

 Normal termination of Gaussian 16 at Tue Apr  8 23:31:59 2025.
