 Gaussian 16, Revision C.01,

 ----------------------------------------------------------------------
 #t hf aug-cc-pvdz symm=none int=(grid=ultrafine) guess=(read,tcheck) s
 table=(opt,rrhf)
 ----------------------------------------------------------------------
 -----
 title
 -----
 Symbolic Z-matrix:
 Charge =  0 Multiplicity = 1

 SCF Done:  E(RHF) =  -693.163968744     A.U. after   12 cycles
 Normal termination of Gaussian 16 at Tue Apr  8 22:49:18 2025.
 Gaussian 16:  ES64L-G16RevC.01  3-Jul-2019

 ----------------------------------------------------------------------
 #t hf aug-cc-pvdz iop(5/13=1,5/36=2,99/5=2) pseudo=read geom=check gue
 ss=(read,tcheck) scf=(maxcycle=1)
 ----------------------------------------------------------------------
 -----
 title
 -----
 Structure from the checkpoint file:  "BDE49_expt_1670_mol1.chk"
 Charge =  0 Multiplicity = 1

                         Standard orientation:
 ---------------------------------------------------------------------
 Center     Atomic      Atomic             Coordinates (Angstroms)
 Number     Number       Type             X           Y           Z
 ---------------------------------------------------------------------
      1          6           0       -0.502870    0.508038    0.000000
      2          6           0        0.159574   -0.023200    1.267718
      3          6           0        0.159574   -1.562790    1.266765
      4          1           0       -0.357501    0.363395    2.149275
      5          1           0        1.189404    0.348109    1.309453
      6          6           0        0.816994   -2.127781   -0.000000
      7          1           0       -0.873449   -1.926818    1.333529
      8          1           0        0.674132   -1.926037    2.161347
      9          6           0        0.159574   -1.562790   -1.266765
     10          1           0        0.759828   -3.220615   -0.000000
     11          1           0        1.883392   -1.869547   -0.000000
     12          6           0        0.159574   -0.023200   -1.267718
     13          1           0       -0.873449   -1.926818   -1.333529
     14          1           0        0.674132   -1.926037   -2.161347
     15          1           0        1.189404    0.348109   -1.309453
     16          1           0       -0.357501    0.363395   -2.149275
     17         17           0       -0.473855    2.344593    0.000000
     18          1           0       -1.567367    0.265123    0.000000
 ---------------------------------------------------------------------

 SCF Done:  E(RHF) =  -693.497912492     A.U. after    2 cycles

 The electronic state is 1-A'.
 Alpha  occ. eigenvalues -- -105.54224 -11.30247 -11.24083 -11.24059 -11.23884
 Alpha  occ. eigenvalues --  -11.23868 -11.23569 -10.59014  -7.75944  -7.75600
 Alpha  occ. eigenvalues --   -7.75594  -1.14897  -1.06461  -1.01910  -0.96761
 Alpha  occ. eigenvalues --   -0.85283  -0.82789  -0.77471  -0.66946  -0.62894
 Alpha  occ. eigenvalues --   -0.62287  -0.61852  -0.56092  -0.55103  -0.54313
 Alpha  occ. eigenvalues --   -0.51971  -0.50652  -0.47523  -0.46631  -0.45876
 Alpha  occ. eigenvalues --   -0.43047  -0.42778
 Alpha virt. eigenvalues --    0.03283   0.03373   0.03426   0.04426   0.05860
 Alpha virt. eigenvalues --    0.05997   0.06459   0.06756   0.07167   0.09261
 Alpha virt. eigenvalues --    0.09375   0.10916   0.13474   0.13571   0.14397

 Mulliken charges:
               1
     1  C   -0.405300
     2  C   -0.138688
     3  C   -0.245478
     4  H    0.117472
     5  H    0.200128
     6  C   -0.259032
     7  H    0.150866
     8  H    0.104720
     9  C   -0.245478
    10  H    0.119712
    11  H    0.152125
    12  C   -0.138688
    13  H    0.150866
    14  H    0.104720
    15  H    0.200128
    16  H    0.117472
    17  Cl  -0.110604
    18  H    0.125058
 Sum of Mulliken charges =  -0.00000

 Dipole moment (field-independent basis, Debye):
    X=              0.2253    Y=             -2.8876    Z=             -0.0000  Tot=              2.8964

 Test job not archived.
 1\1\GINC-SE086\SP\RHF\Aug-CC-pVDZ\C6H11Cl1\OHZDE\08-Apr-2025\0\\#t hf
 aug-cc-pvdz iop(5/13=1,5/36=2,99/5=2) pseudo=read geom=check guess=(re
 ad,tcheck) scf=(maxcycle=1)\\title\\0,1\C,0,-0.50287,0.508038,0.\C,0,0
 .159574,-0.0232,1.267718\C,0,0.159574,-1.56279,1.266765\H,0,-0.357501,
 0.363395,2.149275\H,0,1.189404,0.348109,1.309453\C,0,0.816994,-2.12778
 1,0.\H,0,-0.873449,-1.926818,1.333529\H,0,0.674132,-1.926037,2.161347\
 C,0,0.159574,-1.56279,-1.266765\H,0,0.759828,-3.220615,0.\H,0,1.883392
 ,-1.869547,0.\C,0,0.159574,-0.0232,-1.267718\H,0,-0.873449,-1.926818,-

 Normal termination of Gaussian 16 at Tue Apr  8 22:49:24 2025.
