 Gaussian 16, Revision C.01,

 ----------------------------------------------------------------------
 #t hf aug-cc-pvdz symm=none int=(grid=ultrafine) guess=(read,tcheck) s
 table=(opt,rrhf)
 ----------------------------------------------------------------------
 -----
 title
 -----
 Symbolic Z-matrix:
 Charge =  0 Multiplicity = 1

 SCF Done:  E(RHF) =  -591.596028795     A.U. after   14 cycles
 Normal termination of Gaussian 16 at Wed Apr  9 00:20:37 2025.
 Gaussian 16:  ES64L-G16RevC.01  3-Jul-2019

 ----------------------------------------------------------------------
 #t hf aug-cc-pvdz iop(5/13=1,5/36=2,99/5=2) pseudo=read geom=check gue
 ss=(read,tcheck) scf=(maxcycle=1)
 ----------------------------------------------------------------------
 -----
 title
 -----
 Structure from the checkpoint file:  "BDE49_nonexpt_2620_mol1.chk"
 Charge =  0 Multiplicity = 1

                         Standard orientation:
 ---------------------------------------------------------------------
 Center     Atomic      Atomic             Coordinates (Angstroms)
 Number     Number       Type             X           Y           Z
 ---------------------------------------------------------------------
      1          9           0       -1.498952    0.885073    0.118271
      2          7           0        0.819464   -0.387004    0.423152
      3         16           0       -0.663115   -0.584879   -0.192660
      4          6           0        1.851492    0.443524   -0.207621
      5          1           0        0.912457   -0.493239    1.426882
      6          1           0        1.757344    0.348198   -1.288910
      7          1           0        2.837965    0.087477    0.098529
      8          1           0        1.747444    1.497863    0.065281
 ---------------------------------------------------------------------

 SCF Done:  E(RHF) =  -591.846762700     A.U. after    2 cycles

 The electronic state is 1-A.
 Alpha  occ. eigenvalues --  -94.05137 -26.43534 -15.55560 -11.28581  -8.32063
 Alpha  occ. eigenvalues --   -6.29824  -6.29571  -6.29236  -1.52946  -1.26434
 Alpha  occ. eigenvalues --   -1.01189  -0.89998  -0.73239  -0.67722  -0.65641
 Alpha  occ. eigenvalues --   -0.61259  -0.60099  -0.58287  -0.52783  -0.46379
 Alpha  occ. eigenvalues --   -0.38342
 Alpha virt. eigenvalues --    0.03104   0.04888   0.05552   0.05821   0.08534
 Alpha virt. eigenvalues --    0.08665   0.10248   0.12650   0.14471   0.15121
 Alpha virt. eigenvalues --    0.16441   0.17332   0.18965   0.20264   0.21551

 Mulliken charges:
               1
     1  F   -0.656565
     2  N   -0.092390
     3  S    0.775703
     4  C   -0.486439
     5  H    0.078590
     6  H    0.107190
     7  H    0.103221
     8  H    0.170690
 Sum of Mulliken charges =  -0.00000

 Dipole moment (field-independent basis, Debye):
    X=              2.8842    Y=             -0.4897    Z=              0.5612  Tot=              2.9788

 Test job not archived.
 1\1\GINC-SE329\SP\RHF\Aug-CC-pVDZ\C1H4F1N1S1\OHZDE\09-Apr-2025\0\\#t h
 f aug-cc-pvdz iop(5/13=1,5/36=2,99/5=2) pseudo=read geom=check guess=(
 read,tcheck) scf=(maxcycle=1)\\title\\0,1\F,0,-1.498952,0.885073,0.118
 271\N,0,0.819464,-0.387004,0.423152\S,0,-0.663115,-0.584879,-0.19266\C
 ,0,1.851492,0.443524,-0.207621\H,0,0.912457,-0.493239,1.426882\H,0,1.7
 57344,0.348198,-1.28891\H,0,2.837965,0.087477,0.098529\H,0,1.747444,1.
 497863,0.065281\\Version=ES64L-G16RevC.01\State=1-A\HF=-591.8467627\RM
 SD=7.993e-03\Dipole=1.1347382,-0.1926468,0.2207953\Quadrupole=0.423959

 Normal termination of Gaussian 16 at Wed Apr  9 00:20:39 2025.
