 Gaussian 16, Revision C.01,

 ----------------------------------------------------------------------
 #t hf aug-cc-pvdz symm=none int=(grid=ultrafine) guess=(read,tcheck) s
 table=(opt,rrhf)
 ----------------------------------------------------------------------
 -----
 title
 -----
 Symbolic Z-matrix:
 Charge =  0 Multiplicity = 1

 SCF Done:  E(RHF) =  -683.120264233     A.U. after   13 cycles
 Normal termination of Gaussian 16 at Tue Apr  8 23:27:23 2025.
 Gaussian 16:  ES64L-G16RevC.01  3-Jul-2019

 ----------------------------------------------------------------------
 #t hf aug-cc-pvdz iop(5/13=1,5/36=2,99/5=2) pseudo=read geom=check gue
 ss=(read,tcheck) scf=(maxcycle=1)
 ----------------------------------------------------------------------
 -----
 title
 -----
 Structure from the checkpoint file:  "BDE49_nonexpt_1310_mol1.chk"
 Charge =  0 Multiplicity = 1

                         Standard orientation:
 ---------------------------------------------------------------------
 Center     Atomic      Atomic             Coordinates (Angstroms)
 Number     Number       Type             X           Y           Z
 ---------------------------------------------------------------------
      1          6           0        0.810279   -0.507035    0.189956
      2         15           0       -0.847426    0.090464   -0.056000
      3          8           0       -0.971101    1.453723   -0.591553
      4          8           0       -1.617474   -0.105177    1.356166
      5          6           0        1.859105    0.262988   -0.108383
      6          1           0        0.929356   -1.506630    0.598840
      7          6           0        3.294408   -0.120094    0.069550
      8          1           0        1.661912    1.251387   -0.518380
      9          1           0        3.403498   -1.124169    0.483823
     10          1           0        3.801663    0.588545    0.733305
     11          1           0        3.822219   -0.079273   -0.889405
     12          1           0       -1.708203    0.740638    1.810888
     13          8           0       -1.483145   -1.109332   -0.908075
     14          1           0       -2.408042   -0.956340   -1.138109
 ---------------------------------------------------------------------

 SCF Done:  E(RHF) =  -683.514624966     A.U. after    2 cycles

 The electronic state is 1-A.
 Alpha  occ. eigenvalues --  -84.42220 -20.58705 -20.58371 -20.49557 -11.27712
 Alpha  occ. eigenvalues --  -11.25137 -11.24724  -6.87483  -4.41610  -4.40860
 Alpha  occ. eigenvalues --   -4.40381  -1.52583  -1.46498  -1.38086  -1.09824
 Alpha  occ. eigenvalues --   -0.97387  -0.86012  -0.77051  -0.73040  -0.68018
 Alpha  occ. eigenvalues --   -0.65710  -0.62472  -0.61096  -0.59144  -0.57811
 Alpha  occ. eigenvalues --   -0.54943  -0.54087  -0.53169  -0.49251  -0.45210
 Alpha  occ. eigenvalues --   -0.44509  -0.39639
 Alpha virt. eigenvalues --    0.03346   0.03961   0.04633   0.04896   0.05698
 Alpha virt. eigenvalues --    0.06477   0.07693   0.10025   0.10311   0.11229
 Alpha virt. eigenvalues --    0.12226   0.12735   0.14166   0.14356   0.14540

 Mulliken charges:
               1
     1  C   -0.392930
     2  P    4.280792
     3  O   -1.500718
     4  O   -1.316533
     5  C    0.286385
     6  H   -0.273324
     7  C   -0.760513
     8  H   -0.218682
     9  H    0.110851
    10  H    0.256591
    11  H    0.260703
    12  H    0.291616
    13  O   -1.399968
    14  H    0.375729
 Sum of Mulliken charges =   0.00000

 Dipole moment (field-independent basis, Debye):
    X=              1.3662    Y=             -1.2700    Z=              1.3688  Tot=              2.3136

 Test job not archived.
 1\1\GINC-SE461\SP\RHF\Aug-CC-pVDZ\C3H7O3P1\OHZDE\08-Apr-2025\0\\#t hf
 aug-cc-pvdz iop(5/13=1,5/36=2,99/5=2) pseudo=read geom=check guess=(re
 ad,tcheck) scf=(maxcycle=1)\\title\\0,1\C,0,0.810279,-0.507035,0.18995
 6\P,0,-0.847426,0.090464,-0.056\O,0,-0.971101,1.453723,-0.591553\O,0,-
 1.617474,-0.105177,1.356166\C,0,1.859105,0.262988,-0.108383\H,0,0.9293
 56,-1.50663,0.59884\C,0,3.294408,-0.120094,0.06955\H,0,1.661912,1.2513
 87,-0.51838\H,0,3.403498,-1.124169,0.483823\H,0,3.801663,0.588545,0.73
 3305\H,0,3.822219,-0.079273,-0.889405\H,0,-1.708203,0.740638,1.810888\

 Normal termination of Gaussian 16 at Tue Apr  8 23:27:28 2025.
