 Gaussian 16, Revision C.01,

 ----------------------------------------------------------------------
 #t hf aug-cc-pvdz symm=none int=(grid=ultrafine) guess=(read,tcheck) s
 table=(opt,rrhf)
 ----------------------------------------------------------------------
 -----
 title
 -----
 Symbolic Z-matrix:
 Charge =  0 Multiplicity = 1

 SCF Done:  E(RHF) =  -292.221083695     A.U. after   12 cycles
 Normal termination of Gaussian 16 at Wed Apr  9 00:29:55 2025.
 Gaussian 16:  ES64L-G16RevC.01  3-Jul-2019

 ----------------------------------------------------------------------
 #t hf aug-cc-pvdz iop(5/13=1,5/36=2,99/5=2) pseudo=read geom=check gue
 ss=(read,tcheck) scf=(maxcycle=1)
 ----------------------------------------------------------------------
 -----
 title
 -----
 Structure from the checkpoint file:  "BDE49_nonexpt_334_mol1.chk"
 Charge =  0 Multiplicity = 1

                         Standard orientation:
 ---------------------------------------------------------------------
 Center     Atomic      Atomic             Coordinates (Angstroms)
 Number     Number       Type             X           Y           Z
 ---------------------------------------------------------------------
      1          5           0       -0.872001   -0.046593   -0.000019
      2          8           0       -1.947900   -0.886470    0.000001
      3          8           0       -1.132056    1.305270    0.000009
      4          6           0        0.560352   -0.656846   -0.000007
      5          6           0        1.697777    0.031964    0.747008
      6          6           0        1.697786    0.031966   -0.747004
      7          1           0        2.413830   -0.597752    1.261089
      8          1           0        1.480124    0.957983    1.269720
      9          1           0        0.603554   -1.740923   -0.000008
     10          1           0        1.480139    0.957985   -1.269718
     11          1           0        2.413844   -0.597750   -1.261079
     12          1           0       -0.348363    1.859781    0.000018
     13          1           0       -2.778960   -0.399270    0.000012
 ---------------------------------------------------------------------

 SCF Done:  E(RHF) =  -292.524184359     A.U. after    2 cycles

 The electronic state is 1-A.
 Alpha  occ. eigenvalues --  -20.55595 -20.54661 -11.24610 -11.24550 -11.21860
 Alpha  occ. eigenvalues --   -7.63094  -1.47566  -1.43189  -1.14091  -0.84343
 Alpha  occ. eigenvalues --   -0.83110  -0.75768  -0.72151  -0.69134  -0.63421
 Alpha  occ. eigenvalues --   -0.58510  -0.56701  -0.54988  -0.52814  -0.48610
 Alpha  occ. eigenvalues --   -0.48576  -0.43524  -0.42848
 Alpha virt. eigenvalues --    0.03320   0.03997   0.04065   0.04355   0.06441
 Alpha virt. eigenvalues --    0.06594   0.07237   0.07584   0.09173   0.10215
 Alpha virt. eigenvalues --    0.10377   0.12951   0.13305   0.15143   0.15637

 Mulliken charges:
               1
     1  B    1.735356
     2  O   -1.309945
     3  O   -1.349120
     4  C    0.397315
     5  C    0.142776
     6  C    0.142779
     7  H   -0.100655
     8  H   -0.188417
     9  H   -0.243251
    10  H   -0.188417
    11  H   -0.100654
    12  H    0.584263
    13  H    0.477970
 Sum of Mulliken charges =  -0.00000

 Dipole moment (field-independent basis, Debye):
    X=              1.1917    Y=              1.0995    Z=             -0.0000  Tot=              1.6214

 Test job not archived.
 1\1\GINC-SE250\SP\RHF\Aug-CC-pVDZ\C3H7B1O2\OHZDE\09-Apr-2025\0\\#t hf
 aug-cc-pvdz iop(5/13=1,5/36=2,99/5=2) pseudo=read geom=check guess=(re
 ad,tcheck) scf=(maxcycle=1)\\title\\0,1\B,0,-0.872001,-0.046593,-0.000
 019\O,0,-1.9479,-0.88647,0.000001\O,0,-1.132056,1.30527,0.000009\C,0,0
 .560352,-0.656846,-0.000007\C,0,1.697777,0.031964,0.747008\C,0,1.69778
 6,0.031966,-0.747004\H,0,2.41383,-0.597752,1.261089\H,0,1.480124,0.957
 983,1.26972\H,0,0.603554,-1.740923,-0.000008\H,0,1.480139,0.957985,-1.
 269718\H,0,2.413844,-0.59775,-1.261079\H,0,-0.348363,1.859781,0.000018

 Normal termination of Gaussian 16 at Wed Apr  9 00:29:59 2025.
