 Gaussian 16, Revision C.01,

 ----------------------------------------------------------------------
 #t hf aug-cc-pvdz symm=none int=(grid=ultrafine) guess=(read,tcheck) s
 table=(opt,rrhf)
 ----------------------------------------------------------------------
 -----
 title
 -----
 Symbolic Z-matrix:
 Charge =  0 Multiplicity = 1

 SCF Done:  E(RHF) =  -1655.15131818     A.U. after   14 cycles
 Normal termination of Gaussian 16 at Wed Apr  9 00:27:25 2025.
 Gaussian 16:  ES64L-G16RevC.01  3-Jul-2019

 ----------------------------------------------------------------------
 #t hf aug-cc-pvdz iop(5/13=1,5/36=2,99/5=2) pseudo=read geom=check gue
 ss=(read,tcheck) scf=(maxcycle=1)
 ----------------------------------------------------------------------
 -----
 title
 -----
 Structure from the checkpoint file:  "BDE49_nonexpt_2745_mol1.chk"
 Charge =  0 Multiplicity = 1

                         Standard orientation:
 ---------------------------------------------------------------------
 Center     Atomic      Atomic             Coordinates (Angstroms)
 Number     Number       Type             X           Y           Z
 ---------------------------------------------------------------------
      1          6           0        3.127545    0.198211    0.121596
      2          8           0        1.959877   -0.485637    0.431736
      3          9           0        3.523622   -0.050500   -1.124746
      4          9           0        4.051317   -0.240918    0.967440
      5          9           0        2.982249    1.511770    0.277090
      6          6           0        0.814510   -0.229824   -0.296687
      7         16           0       -0.432712   -1.328634    0.424645
      8          8           0        0.702638    0.537176   -1.189119
      9         16           0       -2.062522   -0.910372   -0.770311
     10          6           0       -2.846901    0.460452    0.172810
     11          9           0       -3.935782    0.811078   -0.527871
     12          9           0       -3.229852    0.090973    1.399859
     13          9           0       -2.052365    1.526348    0.297494
 ---------------------------------------------------------------------

 SCF Done:  E(RHF) =  -1656.05465402     A.U. after    2 cycles

 The electronic state is 1-A.
 Alpha  occ. eigenvalues --  -94.04709 -94.03879 -26.54150 -26.53966 -26.53942
 Alpha  occ. eigenvalues --  -26.53715 -26.53358 -26.53336 -20.67011 -20.60325
 Alpha  occ. eigenvalues --  -11.61082 -11.56973 -11.47736  -8.32651  -8.31886
 Alpha  occ. eigenvalues --   -6.30416  -6.30210  -6.29974  -6.29638  -6.29449
 Alpha  occ. eigenvalues --   -6.29177  -1.77032  -1.74642  -1.65610  -1.65397
 Alpha  occ. eigenvalues --   -1.64536  -1.64172  -1.61352  -1.53510  -1.17470
 Alpha  occ. eigenvalues --   -1.06816  -1.00156  -0.94242  -0.90663  -0.86310
 Alpha  occ. eigenvalues --   -0.86217  -0.83994  -0.83878  -0.80090  -0.78223
 Alpha  occ. eigenvalues --   -0.73681  -0.73512  -0.71517  -0.71322  -0.70769
 Alpha  occ. eigenvalues --   -0.69833  -0.68544  -0.66754  -0.66708  -0.66297
 Alpha  occ. eigenvalues --   -0.65744  -0.65171  -0.64642  -0.61663  -0.57693
 Alpha  occ. eigenvalues --   -0.55213  -0.53579  -0.49372  -0.44254  -0.43896
 Alpha virt. eigenvalues --    0.04817   0.05857   0.07299   0.07800   0.08088
 Alpha virt. eigenvalues --    0.08937   0.09260   0.09739   0.10226   0.10524
 Alpha virt. eigenvalues --    0.12048   0.12211   0.13209   0.13468   0.14549

 Mulliken charges:
               1
     1  C    2.930045
     2  O   -1.232094
     3  F   -0.668587
     4  F   -0.669662
     5  F   -0.667774
     6  C    0.930091
     7  S    0.137771
     8  O   -0.859289
     9  S    0.213505
    10  C    1.914074
    11  F   -0.664680
    12  F   -0.670152
    13  F   -0.693246
 Sum of Mulliken charges =  -0.00000

 Dipole moment (field-independent basis, Debye):
    X=             -0.1762    Y=             -1.4335    Z=              0.5062  Tot=              1.5304

 Test job not archived.
 1\1\GINC-SE097\SP\RHF\Aug-CC-pVDZ\C3F6O2S2\OHZDE\09-Apr-2025\0\\#t hf
 aug-cc-pvdz iop(5/13=1,5/36=2,99/5=2) pseudo=read geom=check guess=(re
 ad,tcheck) scf=(maxcycle=1)\\title\\0,1\C,0,-3.127545,0.198211,-0.1215
 96\O,0,-1.959877,-0.485637,-0.431736\F,0,-3.523622,-0.0505,1.124746\F,
 0,-4.051317,-0.240918,-0.96744\F,0,-2.982249,1.51177,-0.27709\C,0,-0.8
 1451,-0.229824,0.296687\S,0,0.432712,-1.328634,-0.424645\O,0,-0.702638
 ,0.537176,1.189119\S,0,2.062522,-0.910372,0.770311\C,0,2.846901,0.4604
 52,-0.17281\F,0,3.935782,0.811078,0.527871\F,0,3.229852,0.090973,-1.39

 Normal termination of Gaussian 16 at Wed Apr  9 00:27:33 2025.
