 Gaussian 16, Revision C.01,

 ----------------------------------------------------------------------
 #t hf aug-cc-pvdz symm=none int=(grid=ultrafine) guess=(read,tcheck) s
 table=(opt,rrhf)
 ----------------------------------------------------------------------
 -----
 title
 -----
 Symbolic Z-matrix:
 Charge =  0 Multiplicity = 1

 SCF Done:  E(RHF) =  -1126.21619793     A.U. after   15 cycles
 Normal termination of Gaussian 16 at Wed Apr  9 00:21:00 2025.
 Gaussian 16:  ES64L-G16RevC.01  3-Jul-2019

 ----------------------------------------------------------------------
 #t hf aug-cc-pvdz iop(5/13=1,5/36=2,99/5=2) pseudo=read geom=check gue
 ss=(read,tcheck) scf=(maxcycle=1)
 ----------------------------------------------------------------------
 -----
 title
 -----
 Structure from the checkpoint file:  "BDE49_nonexpt_2608_mol1.chk"
 Charge =  0 Multiplicity = 1

                         Standard orientation:
 ---------------------------------------------------------------------
 Center     Atomic      Atomic             Coordinates (Angstroms)
 Number     Number       Type             X           Y           Z
 ---------------------------------------------------------------------
      1          6           0        0.666733   -1.370257    1.205937
      2          6           0        0.666733   -2.761957    1.206037
      3          6           0        0.667686   -3.460334    0.000000
      4          6           0        0.666733   -2.761957   -1.206037
      5          6           0        0.666733   -1.370257   -1.205937
      6          6           0        0.668601    0.847368   -0.000000
      7          6           0        0.676215   -0.659680    0.000000
      8         16           0       -1.103489    1.336415   -0.000000
      9         17           0       -0.943559    3.419365   -0.000000
     10          1           0        1.143516    1.256264   -0.891589
     11          1           0        1.143516    1.256264    0.891589
     12          1           0        0.664444   -0.827912    2.145454
     13          1           0        0.667210   -3.300866    2.146574
     14          1           0        0.669389   -4.544357    0.000000
     15          1           0        0.667210   -3.300866   -2.146574
     16          1           0        0.664444   -0.827912   -2.145454
 ---------------------------------------------------------------------

 SCF Done:  E(RHF) =  -1126.63202996     A.U. after    2 cycles

 The electronic state is 1-A'.
 Alpha  occ. eigenvalues -- -105.57720 -94.00639 -11.29389 -11.26916 -11.25831
 Alpha  occ. eigenvalues --  -11.25821 -11.25685 -11.25576 -11.25573 -10.62413
 Alpha  occ. eigenvalues --   -8.28284  -7.79348  -7.78920  -7.78887  -6.26095
 Alpha  occ. eigenvalues --   -6.25825  -6.25549  -1.17873  -1.12543  -1.06207
 Alpha  occ. eigenvalues --   -1.03157  -0.98045  -0.87710  -0.85218  -0.81778
 Alpha  occ. eigenvalues --   -0.72363  -0.67630  -0.66145  -0.61527  -0.61519
 Alpha  occ. eigenvalues --   -0.59723  -0.58213  -0.53042  -0.51827  -0.51658
 Alpha  occ. eigenvalues --   -0.50426  -0.50108  -0.44844  -0.37149  -0.35572
 Alpha  occ. eigenvalues --   -0.35365
 Alpha virt. eigenvalues --    0.03039   0.03375   0.03774   0.04861   0.05144
 Alpha virt. eigenvalues --    0.05491   0.06965   0.08204   0.08597   0.08723
 Alpha virt. eigenvalues --    0.09442   0.10456   0.11702   0.12473   0.13131

 Mulliken charges:
               1
     1  C   -0.172059
     2  C    0.254491
     3  C   -0.055353
     4  C    0.254491
     5  C   -0.172059
     6  C   -0.727736
     7  C    1.717774
     8  S    0.394580
     9  Cl  -0.312231
    10  H    0.024612
    11  H    0.024612
    12  H   -0.292064
    13  H   -0.217982
    14  H   -0.211034
    15  H   -0.217982
    16  H   -0.292064
 Sum of Mulliken charges =  -0.00000

 Dipole moment (field-independent basis, Debye):
    X=              1.7992    Y=             -2.4757    Z=             -0.0000  Tot=              3.0604

 Test job not archived.
 1\1\GINC-SE103\SP\RHF\Aug-CC-pVDZ\C7H7Cl1S1\OHZDE\09-Apr-2025\0\\#t hf
  aug-cc-pvdz iop(5/13=1,5/36=2,99/5=2) pseudo=read geom=check guess=(r
 ead,tcheck) scf=(maxcycle=1)\\title\\0,1\C,0,0.666733,-1.370257,1.2059
 37\C,0,0.666733,-2.761957,1.206037\C,0,0.667686,-3.460334,0.\C,0,0.666
 733,-2.761957,-1.206037\C,0,0.666733,-1.370257,-1.205937\C,0,0.668601,
 0.847368,0.\C,0,0.676215,-0.65968,0.\S,0,-1.103489,1.336415,0.\Cl,0,-0
 .943559,3.419365,0.\H,0,1.143516,1.256264,-0.891589\H,0,1.143516,1.256
 264,0.891589\H,0,0.664444,-0.827912,2.145454\H,0,0.66721,-3.300866,2.1

 Normal termination of Gaussian 16 at Wed Apr  9 00:21:06 2025.
