 Gaussian 16, Revision C.01,

 ----------------------------------------------------------------------
 #t hf aug-cc-pvdz symm=none int=(grid=ultrafine) guess=(read,tcheck) s
 table=(opt,rrhf)
 ----------------------------------------------------------------------
 -----
 title
 -----
 Symbolic Z-matrix:
 Charge =  0 Multiplicity = 1

 SCF Done:  E(RHF) =  -590.420803032     A.U. after   14 cycles
 Normal termination of Gaussian 16 at Wed Apr  9 00:22:36 2025.
 Gaussian 16:  ES64L-G16RevC.01  3-Jul-2019

 ----------------------------------------------------------------------
 #t hf aug-cc-pvdz iop(5/13=1,5/36=2,99/5=2) pseudo=read geom=check gue
 ss=(read,tcheck) scf=(maxcycle=1)
 ----------------------------------------------------------------------
 -----
 title
 -----
 Structure from the checkpoint file:  "BDE49_nonexpt_2672_mol1.chk"
 Charge =  0 Multiplicity = 1

                         Standard orientation:
 ---------------------------------------------------------------------
 Center     Atomic      Atomic             Coordinates (Angstroms)
 Number     Number       Type             X           Y           Z
 ---------------------------------------------------------------------
      1          9           0       -1.051857    1.029467    0.000037
      2         16           0       -0.737081   -0.603565   -0.000035
      3          6           0        1.037353   -0.511633    0.000032
      4          7           0        1.766513    0.515479    0.000008
      5          1           0        1.208565    1.373051   -0.000024
      6          1           0        1.461731   -1.519775    0.000009
 ---------------------------------------------------------------------

 SCF Done:  E(RHF) =  -590.662224305     A.U. after    2 cycles

 The electronic state is 1-A.
 Alpha  occ. eigenvalues --  -94.06544 -26.49842 -15.52260 -11.34854  -8.33920
 Alpha  occ. eigenvalues --   -6.31706  -6.31397  -6.31118  -1.60014  -1.25034
 Alpha  occ. eigenvalues --   -1.05094  -0.85460  -0.73851  -0.69155  -0.68075
 Alpha  occ. eigenvalues --   -0.64164  -0.58840  -0.53622  -0.46969  -0.40503
 Alpha virt. eigenvalues --    0.03488   0.04232   0.06679   0.06999   0.08696
 Alpha virt. eigenvalues --    0.10598   0.11370   0.13422   0.14549   0.14936
 Alpha virt. eigenvalues --    0.16634   0.20650   0.20955   0.21688   0.23198

 Mulliken charges:
               1
     1  F   -0.696837
     2  S    1.103967
     3  C   -1.157619
     4  N    0.564922
     5  H    0.143454
     6  H    0.042113
 Sum of Mulliken charges =  -0.00000

 Dipole moment (field-independent basis, Debye):
    X=             -1.1099    Y=             -1.8527    Z=             -0.0001  Tot=              2.1597

 Test job not archived.
 1\1\GINC-SE455\SP\RHF\Aug-CC-pVDZ\C1H2F1N1S1\OHZDE\09-Apr-2025\0\\#t h
 f aug-cc-pvdz iop(5/13=1,5/36=2,99/5=2) pseudo=read geom=check guess=(
 read,tcheck) scf=(maxcycle=1)\\title\\0,1\F,0,1.051857,1.029467,-0.000
 037\S,0,0.737081,-0.603565,0.000035\C,0,-1.037353,-0.511633,-0.000032\
 N,0,-1.766513,0.515479,-0.000008\H,0,-1.208564,1.373051,0.000024\H,0,-
 1.461731,-1.519775,-0.000009\\Version=ES64L-G16RevC.01\State=1-A\HF=-5
 90.6622243\RMSD=1.270e-02\Dipole=0.4366556,-0.7289043,0.0000342\Quadru
 pole=-3.4572709,3.7646621,-0.3073912,1.2441254,0.0000306,0.0000403\PG=

 Normal termination of Gaussian 16 at Wed Apr  9 00:22:38 2025.
