 Gaussian 16, Revision C.01,

 ----------------------------------------------------------------------
 #t hf aug-cc-pvdz symm=none int=(grid=ultrafine) guess=(read,tcheck) s
 table=opt
 ----------------------------------------------------------------------
 -----
 title
 -----
 Symbolic Z-matrix:
 Charge =  0 Multiplicity = 2

 SCF Done:  E(UHF) =  -653.024904762     A.U. after   18 cycles

 1\1\GINC-SE108\Stability\UHF\Aug-CC-pVDZ\C8H16P1\OHZDE\08-Apr-2025\0\\
 #t hf aug-cc-pvdz symm=none int=(grid=ultrafine) guess=(read,tcheck) s
 table=opt\\title\\0,2\P,0,0.293367,-1.64122,0.\C,0,-0.329201,-0.587454
 ,1.41624\C,0,0.107983,0.884352,1.275496\C,0,-0.389712,1.583696,0.\C,0,
 0.107983,-1.184262,2.760778\C,0,0.010641,3.064172,0.\H,0,-0.230054,-2.
 218171,2.870981\H,0,1.198174,-1.180266,2.858274\H,0,-0.303182,-0.60544
 7,3.594426\H,0,-0.375837,3.579893,0.88393\H,0,-0.375837,3.579893,-0.88
 393\C,0,0.107983,0.884352,-1.275496\C,0,-0.329201,-0.587454,-1.41624\C

 Normal termination of Gaussian 16 at Tue Apr  8 23:29:03 2025.
 Gaussian 16:  ES64L-G16RevC.01  3-Jul-2019

 ----------------------------------------------------------------------
 #t hf aug-cc-pvdz iop(5/13=1,5/36=2,99/5=2) pseudo=read geom=check gue
 ss=(read,tcheck) scf=(maxcycle=1)
 ----------------------------------------------------------------------
 -----
 title
 -----
 Structure from the checkpoint file:  "BDE49_nonexpt_1255_mol2.chk"
 Charge =  0 Multiplicity = 2

                         Standard orientation:
 ---------------------------------------------------------------------
 Center     Atomic      Atomic             Coordinates (Angstroms)
 Number     Number       Type             X           Y           Z
 ---------------------------------------------------------------------
      1         15           0        0.293367   -1.641220    0.000000
      2          6           0       -0.329201   -0.587454    1.416240
      3          6           0        0.107983    0.884352    1.275496
      4          6           0       -0.389712    1.583696   -0.000000
      5          6           0        0.107983   -1.184262    2.760778
      6          6           0        0.010641    3.064172   -0.000000
      7          1           0       -0.230054   -2.218171    2.870981
      8          1           0        1.198174   -1.180266    2.858274
      9          1           0       -0.303182   -0.605447    3.594426
     10          1           0       -0.375837    3.579893    0.883930
     11          1           0       -0.375837    3.579893   -0.883930
     12          6           0        0.107983    0.884352   -1.275496
     13          6           0       -0.329201   -0.587454   -1.416240
     14          6           0        0.107983   -1.184262   -2.760778
     15          1           0       -0.230054   -2.218171   -2.870981
     16          1           0        1.198174   -1.180266   -2.858274
     17          1           0       -0.303182   -0.605447   -3.594426
     18          1           0        1.100403    3.175745   -0.000000
     19          1           0       -1.427556   -0.619925    1.362531
     20          1           0        1.204721    0.941145    1.313496
     21          1           0       -0.255877    1.438600    2.150931
     22          1           0       -1.488453    1.532052   -0.000000
     23          1           0        1.204721    0.941145   -1.313496
     24          1           0       -0.255877    1.438600   -2.150931
     25          1           0       -1.427556   -0.619925   -1.362531
 ---------------------------------------------------------------------

 SCF Done:  E(UHF) =  -653.410061475     A.U. after    2 cycles

 The electronic state is 2-A'.
 Alpha  occ. eigenvalues --  -84.25701 -11.23920 -11.23904 -11.23531 -11.23148
 Alpha  occ. eigenvalues --  -11.23131 -11.22715 -11.22710 -11.22442  -6.72920
 Alpha  occ. eigenvalues --   -4.25791  -4.25369  -4.24759  -1.12348  -1.05346
 Alpha  occ. eigenvalues --   -1.03385  -0.93011  -0.92480  -0.87573  -0.79145
 Alpha  occ. eigenvalues --   -0.78455  -0.73380  -0.63455  -0.62556  -0.61145
 Alpha  occ. eigenvalues --   -0.60109  -0.58054  -0.56012  -0.55321  -0.54183
 Alpha  occ. eigenvalues --   -0.54075  -0.52413  -0.51263  -0.48083  -0.46915
 Alpha  occ. eigenvalues --   -0.46444  -0.46350  -0.40210  -0.34811  -0.29801
 Alpha virt. eigenvalues --    0.03155   0.03353   0.03469   0.04135   0.05169
 Alpha virt. eigenvalues --    0.05397   0.05812   0.06007   0.06331   0.07808
 Alpha virt. eigenvalues --    0.08551   0.08852   0.09204   0.09453   0.09698

  Beta  occ. eigenvalues --  -84.25026 -11.24059 -11.24043 -11.23542 -11.23071
  Beta  occ. eigenvalues --  -11.23053 -11.22706 -11.22701 -11.22438  -6.72065
  Beta  occ. eigenvalues --   -4.24837  -4.24390  -4.22488  -1.12031  -1.05285
  Beta  occ. eigenvalues --   -1.03003  -0.92941  -0.92369  -0.85679  -0.79137
  Beta  occ. eigenvalues --   -0.77935  -0.70749  -0.63183  -0.61909  -0.60337
  Beta  occ. eigenvalues --   -0.60032  -0.57639  -0.55996  -0.54754  -0.54137
  Beta  occ. eigenvalues --   -0.54079  -0.52375  -0.50857  -0.47777  -0.46661
  Beta  occ. eigenvalues --   -0.46249  -0.46168  -0.39963  -0.33021
  Beta virt. eigenvalues --    0.03131   0.03297   0.03357   0.04120   0.05175
  Beta virt. eigenvalues --    0.05193   0.05434   0.05818   0.06336   0.07814
  Beta virt. eigenvalues --    0.07995   0.08603   0.08885   0.09275   0.09467

 Mulliken charges and spin densities:
               1          2
     1  P    0.755388   1.344900
     2  C   -0.159416  -0.197164
     3  C   -0.375086  -0.001553
     4  C   -0.912516   0.035187
     5  C   -0.477055   0.035576
     6  C   -0.215491  -0.014733
     7  H    0.151721   0.000828
     8  H    0.209495  -0.002985
     9  H    0.166530  -0.000319
    10  H    0.170767  -0.000502
    11  H    0.170767  -0.000502
    12  C   -0.375086  -0.001553
    13  C   -0.159416  -0.197164
    14  C   -0.477055   0.035576
    15  H    0.151721   0.000828
    16  H    0.209495  -0.002985
    17  H    0.166530  -0.000319
    18  H    0.233359  -0.002022
    19  H    0.083658  -0.009357
    20  H    0.141837  -0.007829
    21  H    0.098953   0.004191
    22  H    0.116451  -0.005109
    23  H    0.141837  -0.007829
    24  H    0.098953   0.004191
    25  H    0.083658  -0.009357
 Sum of Mulliken charges =   0.00000   1.00000

 Dipole moment (field-independent basis, Debye):
    X=             -0.8168    Y=              1.1538    Z=              0.0000  Tot=              1.4136
                          Isotropic Fermi Contact Couplings
        Atom                 a.u.       MegaHertz       Gauss      10(-4) cm-1
     1  P(31)              0.19755     357.78728     127.66740     119.34499
     2  C(13)             -0.02493     -28.03112     -10.00220      -9.35017
     3  C(13)              0.01896      21.31502       7.60573       7.10993
     4  C(13)             -0.00173      -1.94161      -0.69281      -0.64765
     5  C(13)              0.00107       1.20368       0.42950       0.40150
     6  C(13)              0.00121       1.36106       0.48566       0.45400
     7  H(1)              -0.00033      -1.46741      -0.52361      -0.48948
     8  H(1)              -0.00034      -1.51462      -0.54045      -0.50522

 Normal termination of Gaussian 16 at Tue Apr  8 23:29:15 2025.
