 Gaussian 16, Revision C.01,

 ----------------------------------------------------------------------
 #t hf aug-cc-pvdz symm=none int=(grid=ultrafine) guess=(read,tcheck) s
 table=(opt,rrhf)
 ----------------------------------------------------------------------
 -----
 title
 -----
 Symbolic Z-matrix:
 Charge =  0 Multiplicity = 1

 SCF Done:  E(RHF) =  -834.759733207     A.U. after   12 cycles
 Normal termination of Gaussian 16 at Tue Apr  8 22:28:19 2025.
 Gaussian 16:  ES64L-G16RevC.01  3-Jul-2019

 ----------------------------------------------------------------------
 #t hf aug-cc-pvdz iop(5/13=1,5/36=2,99/5=2) pseudo=read geom=check gue
 ss=(read,tcheck) scf=(maxcycle=1)
 ----------------------------------------------------------------------
 -----
 title
 -----
 Structure from the checkpoint file:  "BDE49_expt_1003_mol1.chk"
 Charge =  0 Multiplicity = 1

                         Standard orientation:
 ---------------------------------------------------------------------
 Center     Atomic      Atomic             Coordinates (Angstroms)
 Number     Number       Type             X           Y           Z
 ---------------------------------------------------------------------
      1          6           0        0.942712   -0.226810   -0.325031
      2          6           0       -0.257903    0.424773    0.359100
      3          1           0        0.852465   -0.232447   -1.413024
      4          9           0        1.086095   -1.498820    0.129847
      5          9           0        2.054818    0.475176    0.028471
      6         17           0       -1.763104   -0.446969   -0.059953
      7          9           0       -0.345310    1.716609   -0.071079
      8          1           0       -0.148982    0.406461    1.442673
 ---------------------------------------------------------------------

 SCF Done:  E(RHF) =  -835.184172279     A.U. after    2 cycles

 The electronic state is 1-A.
 Alpha  occ. eigenvalues -- -105.59649 -26.50622 -26.50509 -26.50290 -11.45321
 Alpha  occ. eigenvalues --  -11.42834 -10.64504  -7.81446  -7.81039  -7.81030
 Alpha  occ. eigenvalues --   -1.67297  -1.63627  -1.60249  -1.14437  -1.01989
 Alpha  occ. eigenvalues --   -0.90782  -0.80702  -0.78798  -0.77385  -0.74019
 Alpha  occ. eigenvalues --   -0.70502  -0.66746  -0.66104  -0.62797  -0.61700
 Alpha  occ. eigenvalues --   -0.57039  -0.54837  -0.49540  -0.48377
 Alpha virt. eigenvalues --    0.04076   0.04317   0.07420   0.08613   0.10774
 Alpha virt. eigenvalues --    0.11502   0.12541   0.13104   0.14601   0.15618
 Alpha virt. eigenvalues --    0.16287   0.17380   0.19427   0.20455   0.23975

 Mulliken charges:
               1
     1  C    1.582714
     2  C    0.242515
     3  H    0.112732
     4  F   -0.692640
     5  F   -0.692548
     6  Cl  -0.078965
     7  F   -0.699061
     8  H    0.225253
 Sum of Mulliken charges =  -0.00000

 Dipole moment (field-independent basis, Debye):
    X=             -0.0854    Y=             -0.0504    Z=             -0.0428  Tot=              0.1080

 Test job not archived.
 1\1\GINC-SE461\SP\RHF\Aug-CC-pVDZ\C2H2Cl1F3\OHZDE\08-Apr-2025\0\\#t hf
  aug-cc-pvdz iop(5/13=1,5/36=2,99/5=2) pseudo=read geom=check guess=(r
 ead,tcheck) scf=(maxcycle=1)\\title\\0,1\C,0,0.942712,-0.22681,-0.3250
 31\C,0,-0.257903,0.424773,0.3591\H,0,0.852465,-0.232447,-1.413024\F,0,
 1.086096,-1.49882,0.129847\F,0,2.054818,0.475177,0.028471\Cl,0,-1.7631
 04,-0.44697,-0.059953\F,0,-0.34531,1.716609,-0.071079\H,0,-0.148982,0.
 406461,1.442673\\Version=ES64L-G16RevC.01\State=1-A\HF=-835.1841723\RM
 SD=5.616e-03\Dipole=-0.0336111,-0.0198307,-0.0168499\Quadrupole=-1.678

 Normal termination of Gaussian 16 at Tue Apr  8 22:28:22 2025.
