 Gaussian 16, Revision C.01,

 ----------------------------------------------------------------------
 #t hf aug-cc-pvdz symm=none int=(grid=ultrafine) guess=(read,tcheck) s
 table=(opt,rrhf)
 ----------------------------------------------------------------------
 -----
 title
 -----
 Symbolic Z-matrix:
 Charge =  0 Multiplicity = 1

 SCF Done:  E(RHF) =  -400.548733110     A.U. after   15 cycles
 Normal termination of Gaussian 16 at Tue Apr  8 22:38:53 2025.
 Gaussian 16:  ES64L-G16RevC.01  3-Jul-2019

 ----------------------------------------------------------------------
 #t hf aug-cc-pvdz iop(5/13=1,5/36=2,99/5=2) pseudo=read geom=check gue
 ss=(read,tcheck) scf=(maxcycle=1)
 ----------------------------------------------------------------------
 -----
 title
 -----
 Structure from the checkpoint file:  "BDE49_expt_1163_mol1.chk"
 Charge =  0 Multiplicity = 1

                         Standard orientation:
 ---------------------------------------------------------------------
 Center     Atomic      Atomic             Coordinates (Angstroms)
 Number     Number       Type             X           Y           Z
 ---------------------------------------------------------------------
      1          6           0       -2.269501   -0.530432   -0.475665
      2          7           0       -2.966475   -1.427515   -0.672255
      3          6           0        0.073839    0.219572   -0.129622
      4          6           0        2.797467   -0.403920    0.075375
      5          6           0        2.397387    0.800662   -0.498296
      6          6           0        1.043074    1.108621   -0.600717
      7          6           0        0.482089   -0.987957    0.441651
      8          6           0        1.836256   -1.297258    0.542997
      9          1           0        3.137969    1.498382   -0.872578
     10          1           0        0.737853    2.046332   -1.054624
     11          1           0        3.850921   -0.647676    0.151544
     12          1           0        2.139159   -2.240541    0.983114
     13          1           0       -0.259973   -1.696123    0.793829
     14          6           0       -1.398834    0.617327   -0.196974
     15          6           0       -1.862828    1.336681    1.093454
     16          1           0       -1.523745    1.309144   -1.036902
     17          1           0       -2.906019    1.648533    1.011402
     18          1           0       -1.241893    2.218557    1.260278
     19          1           0       -1.762640    0.676223    1.956493
 ---------------------------------------------------------------------

 SCF Done:  E(RHF) =  -400.958935829     A.U. after    2 cycles

 The electronic state is 1-A.
 Alpha  occ. eigenvalues --  -15.51146 -11.30211 -11.27958 -11.26918 -11.25745
 Alpha  occ. eigenvalues --  -11.25693 -11.25595 -11.25499 -11.25347 -11.25320
 Alpha  occ. eigenvalues --   -1.23453  -1.17634  -1.10508  -1.03004  -1.01214
 Alpha  occ. eigenvalues --   -0.91711  -0.85347  -0.83420  -0.73748  -0.70897
 Alpha  occ. eigenvalues --   -0.67190  -0.64083  -0.63057  -0.61266  -0.61028
 Alpha  occ. eigenvalues --   -0.59822  -0.56781  -0.55255  -0.52624  -0.51851
 Alpha  occ. eigenvalues --   -0.51727  -0.48763  -0.48713  -0.35860  -0.35459
 Alpha virt. eigenvalues --    0.02761   0.03093   0.03627   0.04154   0.04837
 Alpha virt. eigenvalues --    0.05312   0.06591   0.07628   0.08415   0.09122
 Alpha virt. eigenvalues --    0.09289   0.09497   0.10636   0.11247   0.12656

 Mulliken charges:
               1
     1  C   -1.939974
     2  N    1.104098
     3  C    1.580783
     4  C    0.103344
     5  C    0.233854
     6  C   -0.075438
     7  C    0.491081
     8  C   -0.068191
     9  H   -0.229021
    10  H   -0.351112
    11  H   -0.217103
    12  H   -0.242332
    13  H   -0.262105
    14  C   -0.762676
    15  C   -0.015366
    16  H    0.156296
    17  H    0.118895
    18  H    0.134210
    19  H    0.240756
 Sum of Mulliken charges =   0.00000

 Dipole moment (field-independent basis, Debye):
    X=              3.1138    Y=              3.5523    Z=              1.1178  Tot=              4.8543

 Test job not archived.
 1\1\GINC-SE048\SP\RHF\Aug-CC-pVDZ\C9H9N1\OHZDE\08-Apr-2025\0\\#t hf au
 g-cc-pvdz iop(5/13=1,5/36=2,99/5=2) pseudo=read geom=check guess=(read
 ,tcheck) scf=(maxcycle=1)\\title\\0,1\C,0,-2.269501,-0.530432,-0.47566
 5\N,0,-2.966475,-1.427515,-0.672255\C,0,0.073839,0.219572,-0.129622\C,
 0,2.797467,-0.40392,0.075375\C,0,2.397387,0.800662,-0.498296\C,0,1.043
 074,1.108621,-0.600717\C,0,0.482089,-0.987957,0.441651\C,0,1.836256,-1
 .297258,0.542997\H,0,3.137969,1.498382,-0.872578\H,0,0.737853,2.046332
 ,-1.054624\H,0,3.850921,-0.647676,0.151544\H,0,2.139159,-2.240541,0.98

 Normal termination of Gaussian 16 at Tue Apr  8 22:39:03 2025.
