 Gaussian 16, Revision C.01,

 ----------------------------------------------------------------------
 #t hf aug-cc-pvdz symm=none int=(grid=ultrafine) guess=(read,tcheck) s
 table=(opt,rrhf)
 ----------------------------------------------------------------------
 -----
 title
 -----
 Symbolic Z-matrix:
 Charge =  0 Multiplicity = 1

 SCF Done:  E(RHF) =  -1074.18051947     A.U. after   13 cycles
 Normal termination of Gaussian 16 at Wed Apr  9 00:38:52 2025.
 Gaussian 16:  ES64L-G16RevC.01  3-Jul-2019

 ----------------------------------------------------------------------
 #t hf aug-cc-pvdz iop(5/13=1,5/36=2,99/5=2) pseudo=read geom=check gue
 ss=(read,tcheck) scf=(maxcycle=1)
 ----------------------------------------------------------------------
 -----
 title
 -----
 Structure from the checkpoint file:  "BDE49_nonexpt_606_mol1.chk"
 Charge =  0 Multiplicity = 1

                         Standard orientation:
 ---------------------------------------------------------------------
 Center     Atomic      Atomic             Coordinates (Angstroms)
 Number     Number       Type             X           Y           Z
 ---------------------------------------------------------------------
      1          7           0       -0.088194   -0.179011   -0.000000
      2          5           0        0.905104   -1.208863    0.000002
      3         17           0        0.323640    1.504044    0.000004
      4         17           0       -1.776503   -0.496621   -0.000007
      5          8           0        2.228638   -0.937887    0.000005
      6          1           0        2.448273    0.001019    0.000007
      7          1           0        0.513121   -2.326735   -0.000003
 ---------------------------------------------------------------------

 SCF Done:  E(RHF) =  -1074.48439513     A.U. after    2 cycles

 The electronic state is 1-A.
 Alpha  occ. eigenvalues -- -105.63016-105.62577 -20.57514 -15.61072 -10.67493
 Alpha  occ. eigenvalues --  -10.67033  -7.84453  -7.84009  -7.83980  -7.83918
 Alpha  occ. eigenvalues --   -7.83501  -7.83452  -7.65238  -1.48057  -1.28213
 Alpha  occ. eigenvalues --   -1.09057  -0.98695  -0.78232  -0.73543  -0.68238
 Alpha  occ. eigenvalues --   -0.65100  -0.58726  -0.54588  -0.53901  -0.51539
 Alpha  occ. eigenvalues --   -0.50974  -0.48681  -0.42338
 Alpha virt. eigenvalues --    0.03643   0.04924   0.05567   0.05585   0.06220
 Alpha virt. eigenvalues --    0.07464   0.09110   0.11543   0.13070   0.13589
 Alpha virt. eigenvalues --    0.14299   0.15452   0.16015   0.16464   0.17863

 Mulliken charges:
               1
     1  N   -0.008021
     2  B    0.429478
     3  Cl   0.032479
     4  Cl   0.058161
     5  O   -1.153970
     6  H    0.559078
     7  H    0.082796
 Sum of Mulliken charges =  -0.00000

 Dipole moment (field-independent basis, Debye):
    X=              0.0474    Y=              1.0068    Z=              0.0000  Tot=              1.0079

 Test job not archived.
 1\1\GINC-SE249\SP\RHF\Aug-CC-pVDZ\B1Cl2H2N1O1\OHZDE\09-Apr-2025\0\\#t
 hf aug-cc-pvdz iop(5/13=1,5/36=2,99/5=2) pseudo=read geom=check guess=
 (read,tcheck) scf=(maxcycle=1)\\title\\0,1\N,0,-0.088194,-0.179011,0.\
 B,0,0.905103,-1.208864,0.000002\Cl,0,0.323641,1.504044,0.000004\Cl,0,-
 1.776503,-0.49662,-0.000007\O,0,2.228637,-0.937888,0.000005\H,0,2.4482
 73,0.001018,0.000007\H,0,0.51312,-2.326735,-0.000003\\Version=ES64L-G1
 6RevC.01\State=1-A\HF=-1074.4843951\RMSD=9.934e-03\Dipole=0.0186475,0.
 3961077,0.0000017\Quadrupole=0.451953,0.2751946,-0.7271476,3.2452405,0

 Normal termination of Gaussian 16 at Wed Apr  9 00:38:55 2025.
