 Gaussian 16, Revision C.01,

 ----------------------------------------------------------------------
 #t hf aug-cc-pvdz symm=none int=(grid=ultrafine) guess=(read,tcheck) s
 table=(opt,rrhf)
 ----------------------------------------------------------------------
 -----
 title
 -----
 Symbolic Z-matrix:
 Charge =  0 Multiplicity = 1

 SCF Done:  E(RHF) =  -797.527298453     A.U. after   14 cycles
 Normal termination of Gaussian 16 at Tue Apr  8 23:15:21 2025.
 Gaussian 16:  ES64L-G16RevC.01  3-Jul-2019

 ----------------------------------------------------------------------
 #t hf aug-cc-pvdz iop(5/13=1,5/36=2,99/5=2) pseudo=read geom=check gue
 ss=(read,tcheck) scf=(maxcycle=1)
 ----------------------------------------------------------------------
 -----
 title
 -----
 Structure from the checkpoint file:  "BDE49_expt_843_mol1.chk"
 Charge =  0 Multiplicity = 1

                         Standard orientation:
 ---------------------------------------------------------------------
 Center     Atomic      Atomic             Coordinates (Angstroms)
 Number     Number       Type             X           Y           Z
 ---------------------------------------------------------------------
      1          6           0       -3.203117    0.309059   -0.750542
      2          6           0       -1.883045    0.957194   -0.327505
      3          1           0       -3.116443   -0.136409   -1.745575
      4          1           0       -4.002263    1.053705   -0.785163
      5          1           0       -3.504801   -0.480829   -0.060511
      6          6           0       -0.674405    0.012876   -0.314762
      7          1           0       -1.995070    1.424161    0.658953
      8          1           0       -1.649437    1.772314   -1.024409
      9          6           0        0.664868    0.756627   -0.128274
     10          6           0        1.855994   -0.122285   -0.580969
     11          8           0        1.782828   -0.904446   -1.490942
     12          8           0        2.981555    0.113089    0.100004
     13          7           0        0.948949    1.309663    1.199337
     14         16           0       -0.844440   -1.374374    0.904697
     15          1           0       -0.606458   -0.507496   -1.272495
     16          1           0        0.667223    1.597900   -0.833491
     17          1           0        2.731599    0.762696    0.792901
     18          1           0        0.651088    0.658282    1.921588
     19          1           0        0.490661    2.199312    1.354206
     20          1           0       -1.474548   -0.671268    1.863296
 ---------------------------------------------------------------------

 SCF Done:  E(RHF) =  -797.999051484     A.U. after    2 cycles

 The electronic state is 1-A.
 Alpha  occ. eigenvalues --  -93.96088 -20.58687 -20.52795 -15.53023 -11.38736
 Alpha  occ. eigenvalues --  -11.30713 -11.29237 -11.26015 -11.23913  -8.24125
 Alpha  occ. eigenvalues --   -6.21966  -6.21819  -6.21608  -1.53696  -1.44963
 Alpha  occ. eigenvalues --   -1.23120  -1.11591  -1.02295  -0.99115  -0.90429
 Alpha  occ. eigenvalues --   -0.82469  -0.80314  -0.76313  -0.72335  -0.68808
 Alpha  occ. eigenvalues --   -0.65458  -0.64009  -0.63603  -0.60683  -0.58903
 Alpha  occ. eigenvalues --   -0.57156  -0.54229  -0.53293  -0.52597  -0.50126
 Alpha  occ. eigenvalues --   -0.49250  -0.46356  -0.45704  -0.42813  -0.38183
 Alpha virt. eigenvalues --    0.02131   0.03213   0.03418   0.04432   0.05336
 Alpha virt. eigenvalues --    0.05969   0.06132   0.06994   0.08032   0.08620
 Alpha virt. eigenvalues --    0.09134   0.10146   0.11043   0.12099   0.13070

 Mulliken charges:
               1
     1  C   -0.363324
     2  C   -0.432894
     3  H    0.165190
     4  H    0.127105
     5  H    0.212870
     6  C   -0.112588
     7  H    0.092865
     8  H    0.133587
     9  C   -1.740131
    10  C    2.561453
    11  O   -1.332542
    12  O   -1.363168
    13  N    0.253712
    14  S   -0.138116
    15  H    0.190838
    16  H    0.300354
    17  H    0.506253
    18  H    0.285667
    19  H    0.267572
    20  H    0.385295
 Sum of Mulliken charges =  -0.00000

 Dipole moment (field-independent basis, Debye):
    X=             -3.6857    Y=              4.4982    Z=              2.4318  Tot=              6.3033

 Test job not archived.
 1\1\GINC-SE074\SP\RHF\Aug-CC-pVDZ\C5H11N1O2S1\OHZDE\08-Apr-2025\0\\#t
 hf aug-cc-pvdz iop(5/13=1,5/36=2,99/5=2) pseudo=read geom=check guess=
 (read,tcheck) scf=(maxcycle=1)\\title\\0,1\C,0,-3.203117,0.309058,-0.7
 50542\C,0,-1.883045,0.957194,-0.327505\H,0,-3.116443,-0.13641,-1.74557
 5\H,0,-4.002263,1.053704,-0.785163\H,0,-3.504801,-0.48083,-0.060511\C,
 0,-0.674405,0.012876,-0.314762\H,0,-1.99507,1.424161,0.658953\H,0,-1.6
 49438,1.772314,-1.024409\C,0,0.664868,0.756627,-0.128274\C,0,1.855994,
 -0.122285,-0.580969\O,0,1.782828,-0.904446,-1.490942\O,0,2.981555,0.11

 Normal termination of Gaussian 16 at Tue Apr  8 23:15:32 2025.
