 Gaussian 16, Revision C.01,

 ----------------------------------------------------------------------
 #t hf aug-cc-pvdz symm=none int=(grid=ultrafine) guess=(read,tcheck) s
 table=(opt,rrhf)
 ----------------------------------------------------------------------
 -----
 title
 -----
 Symbolic Z-matrix:
 Charge =  0 Multiplicity = 1

 SCF Done:  E(RHF) =  -1531.12962773     A.U. after   14 cycles
 Normal termination of Gaussian 16 at Wed Apr  9 00:26:59 2025.
 Gaussian 16:  ES64L-G16RevC.01  3-Jul-2019

 ----------------------------------------------------------------------
 #t hf aug-cc-pvdz iop(5/13=1,5/36=2,99/5=2) pseudo=read geom=check gue
 ss=(read,tcheck) scf=(maxcycle=1)
 ----------------------------------------------------------------------
 -----
 title
 -----
 Structure from the checkpoint file:  "BDE49_nonexpt_2746_mol1.chk"
 Charge =  0 Multiplicity = 1

                         Standard orientation:
 ---------------------------------------------------------------------
 Center     Atomic      Atomic             Coordinates (Angstroms)
 Number     Number       Type             X           Y           Z
 ---------------------------------------------------------------------
      1         16           0        0.697409   -1.287481   -0.588893
      2         16           0        2.379577   -0.859716    0.533611
      3          6           0        2.953482    0.639361   -0.268684
      4          6           0       -0.511547   -0.216819    0.224209
      5          8           0       -1.702730   -0.486726   -0.414820
      6          8           0       -0.338338    0.556653    1.102461
      7          8           0        2.482869    1.260076   -1.148849
      8          9           0        4.102638    0.977796    0.355295
      9          6           0       -2.847691    0.203949   -0.036083
     10          9           0       -3.158078   -0.028174    1.237231
     11          9           0       -3.825280   -0.246453   -0.811788
     12          9           0       -2.711685    1.514185   -0.218789
 ---------------------------------------------------------------------

 SCF Done:  E(RHF) =  -1531.92286258     A.U. after    2 cycles

 The electronic state is 1-A.
 Alpha  occ. eigenvalues --  -94.04965 -94.04856 -26.54250 -26.54071 -26.54040
 Alpha  occ. eigenvalues --  -26.53418 -20.67188 -20.60627 -20.60534 -11.61202
 Alpha  occ. eigenvalues --  -11.48912 -11.48006  -8.32929  -8.32809  -6.30697
 Alpha  occ. eigenvalues --   -6.30577  -6.30490  -6.30374  -6.30243  -6.30127
 Alpha  occ. eigenvalues --   -1.77158  -1.67666  -1.65729  -1.65513  -1.61559
 Alpha  occ. eigenvalues --   -1.54992  -1.53694  -1.17857  -1.06754  -0.99439
 Alpha  occ. eigenvalues --   -0.91722  -0.87102  -0.86419  -0.85686  -0.78781
 Alpha  occ. eigenvalues --   -0.76497  -0.74886  -0.73990  -0.73651  -0.73343
 Alpha  occ. eigenvalues --   -0.71028  -0.69759  -0.68671  -0.66761  -0.66032
 Alpha  occ. eigenvalues --   -0.65280  -0.63162  -0.61909  -0.58096  -0.55582
 Alpha  occ. eigenvalues --   -0.55190  -0.50154  -0.49464  -0.45176  -0.43849
 Alpha virt. eigenvalues --    0.04505   0.05401   0.07156   0.07739   0.08303
 Alpha virt. eigenvalues --    0.08826   0.09081   0.09545   0.09814   0.10674
 Alpha virt. eigenvalues --    0.11393   0.12050   0.12364   0.13435   0.13581

 Mulliken charges:
               1
     1  S    0.177704
     2  S    0.290564
     3  C    1.242582
     4  C    0.936277
     5  O   -1.226952
     6  O   -0.875221
     7  O   -0.861368
     8  F   -0.608743
     9  C    2.925367
    10  F   -0.667715
    11  F   -0.668231
    12  F   -0.664265
 Sum of Mulliken charges =  -0.00000

 Dipole moment (field-independent basis, Debye):
    X=              0.2370    Y=             -2.2169    Z=              0.0383  Tot=              2.2299

 Test job not archived.
 1\1\GINC-SE166\SP\RHF\Aug-CC-pVDZ\C3F4O3S2\OHZDE\09-Apr-2025\0\\#t hf
 aug-cc-pvdz iop(5/13=1,5/36=2,99/5=2) pseudo=read geom=check guess=(re
 ad,tcheck) scf=(maxcycle=1)\\title\\0,1\S,0,0.697409,-1.287481,-0.5888
 93\S,0,2.379577,-0.859716,0.533611\C,0,2.953482,0.639361,-0.268684\C,0
 ,-0.511547,-0.216819,0.224209\O,0,-1.70273,-0.486726,-0.41482\O,0,-0.3
 38338,0.556653,1.102461\O,0,2.482869,1.260076,-1.148849\F,0,4.102638,0
 .977796,0.355295\C,0,-2.847691,0.203949,-0.036083\F,0,-3.158078,-0.028
 174,1.237231\F,0,-3.82528,-0.246453,-0.811788\F,0,-2.711685,1.514185,-

 Normal termination of Gaussian 16 at Wed Apr  9 00:27:09 2025.
