 Gaussian 16, Revision C.01,

 ----------------------------------------------------------------------
 #t hf aug-cc-pvdz symm=none int=(grid=ultrafine) guess=(read,tcheck) s
 table=(opt,rrhf)
 ----------------------------------------------------------------------
 -----
 title
 -----
 Symbolic Z-matrix:
 Charge =  0 Multiplicity = 1

 SCF Done:  E(RHF) =  -341.648911091     A.U. after   14 cycles
 Normal termination of Gaussian 16 at Tue Apr  8 22:54:49 2025.
 Gaussian 16:  ES64L-G16RevC.01  3-Jul-2019

 ----------------------------------------------------------------------
 #t hf aug-cc-pvdz iop(5/13=1,5/36=2,99/5=2) pseudo=read geom=check gue
 ss=(read,tcheck) scf=(maxcycle=1)
 ----------------------------------------------------------------------
 -----
 title
 -----
 Structure from the checkpoint file:  "BDE49_expt_1850_mol1.chk"
 Charge =  0 Multiplicity = 1

                         Standard orientation:
 ---------------------------------------------------------------------
 Center     Atomic      Atomic             Coordinates (Angstroms)
 Number     Number       Type             X           Y           Z
 ---------------------------------------------------------------------
      1          8           0        2.365017   -0.087468    0.171894
      2          8           0        1.103702   -0.776232    0.070695
      3          1           0        2.064547    0.844397    0.086401
      4          6           0        0.081208    0.087060   -0.128709
      5          8           0        0.254938    1.282291   -0.174904
      6          6           0       -1.221815   -0.652405   -0.295264
      7          6           0       -2.403410    0.117867    0.300412
      8          1           0       -1.122476   -1.649968    0.137126
      9          1           0       -1.362272   -0.788780   -1.373710
     10          1           0       -2.309097    0.207693    1.384883
     11          1           0       -3.338894   -0.400975    0.082815
     12          1           0       -2.456954    1.123766   -0.117628
 ---------------------------------------------------------------------

 SCF Done:  E(RHF) =  -341.990917286     A.U. after    2 cycles

 The electronic state is 1-A.
 Alpha  occ. eigenvalues --  -20.65692 -20.63516 -20.56327 -11.41404 -11.27490
 Alpha  occ. eigenvalues --  -11.24989  -1.64160  -1.49909  -1.33299  -1.08017
 Alpha  occ. eigenvalues --   -0.92017  -0.82763  -0.74719  -0.70356  -0.69109
 Alpha  occ. eigenvalues --   -0.64085  -0.61726  -0.59221  -0.56445  -0.54835
 Alpha  occ. eigenvalues --   -0.53918  -0.51833  -0.47357  -0.46077
 Alpha virt. eigenvalues --    0.03227   0.04205   0.04628   0.04865   0.06395
 Alpha virt. eigenvalues --    0.07383   0.10762   0.11643   0.11757   0.13033
 Alpha virt. eigenvalues --    0.14386   0.14636   0.15931   0.16421   0.16905

 Mulliken charges:
               1
     1  O   -0.487306
     2  O   -0.731858
     3  H    0.409928
     4  C    1.978039
     5  O   -1.193930
     6  C   -0.617014
     7  C   -0.310423
     8  H    0.159420
     9  H    0.299087
    10  H    0.169301
    11  H    0.136353
    12  H    0.188403
 Sum of Mulliken charges =  -0.00000

 Dipole moment (field-independent basis, Debye):
    X=             -2.4569    Y=             -0.6849    Z=             -0.2617  Tot=              2.5640

 Test job not archived.
 1\1\GINC-SE393\SP\RHF\Aug-CC-pVDZ\C3H6O3\OHZDE\08-Apr-2025\0\\#t hf au
 g-cc-pvdz iop(5/13=1,5/36=2,99/5=2) pseudo=read geom=check guess=(read
 ,tcheck) scf=(maxcycle=1)\\title\\0,1\O,0,2.365017,-0.087468,0.171894\
 O,0,1.103702,-0.776232,0.070695\H,0,2.064547,0.844397,0.086401\C,0,0.0
 81208,0.08706,-0.128709\O,0,0.254938,1.282291,-0.174904\C,0,-1.221815,
 -0.652405,-0.295264\C,0,-2.40341,0.117867,0.300412\H,0,-1.122476,-1.64
 9968,0.137126\H,0,-1.362272,-0.78878,-1.37371\H,0,-2.309097,0.207693,1
 .384883\H,0,-3.338894,-0.400975,0.082815\H,0,-2.456954,1.123766,-0.117

 Normal termination of Gaussian 16 at Tue Apr  8 22:54:53 2025.
