 Gaussian 16, Revision C.01,

 ----------------------------------------------------------------------
 #t hf aug-cc-pvdz symm=none int=(grid=ultrafine) guess=(read,tcheck) s
 table=(opt,rrhf)
 ----------------------------------------------------------------------
 -----
 title
 -----
 Symbolic Z-matrix:
 Charge =  0 Multiplicity = 1

 SCF Done:  E(RHF) =  -489.117905374     A.U. after   10 cycles

 1\1\GINC-SE333\Stability\RHF\Aug-CC-pVDZ\F2H2Si1\OHZDE\08-Apr-2025\0\\
 #t hf aug-cc-pvdz symm=none int=(grid=ultrafine) guess=(read,tcheck) s
 table=(opt,rrhf)\\title\\0,1\Si,0,0.,0.,0.450113\F,0,0.,1.29063,-0.487
 796\F,0,0.,-1.29063,-0.487796\H,0,-1.237675,0.,1.239369\H,0,1.237675,0
 .,1.239369\\Version=ES64L-G16RevC.01\HF=-489.1179054\RMSD=2.565e-09\Di
 pole=0.,0.,0.7297364\Quadrupole=1.058572,-1.9129558,0.8543838,0.,0.,0.
 \PG=Unknown\\@
 The archive entry for this job was punched.

 Normal termination of Gaussian 16 at Tue Apr  8 23:55:17 2025.
 Gaussian 16:  ES64L-G16RevC.01  3-Jul-2019

 ----------------------------------------------------------------------
 #t hf aug-cc-pvdz iop(5/13=1,5/36=2,99/5=2) pseudo=read geom=check gue
 ss=(read,tcheck) scf=(maxcycle=1)
 ----------------------------------------------------------------------
 -----
 title
 -----
 Structure from the checkpoint file:  "BDE49_nonexpt_1986_mol1.chk"
 Charge =  0 Multiplicity = 1

                         Standard orientation:
 ---------------------------------------------------------------------
 Center     Atomic      Atomic             Coordinates (Angstroms)
 Number     Number       Type             X           Y           Z
 ---------------------------------------------------------------------
      1         14           0       -0.000000   -0.000000    0.450113
      2          9           0        0.000000    1.290630   -0.487796
      3          9           0       -0.000000   -1.290630   -0.487796
      4          1           0       -1.237675    0.000000    1.239369
      5          1           0        1.237675   -0.000000    1.239369
 ---------------------------------------------------------------------

 SCF Done:  E(RHF) =  -489.332313977     A.U. after    2 cycles

 The electronic state is 1-A1.
 Alpha  occ. eigenvalues --  -69.63704 -26.47020 -26.47020  -6.29876  -4.05321
 Alpha  occ. eigenvalues --   -4.05154  -4.04968  -1.59555  -1.57326  -0.80669
 Alpha  occ. eigenvalues --   -0.70415  -0.68790  -0.68422  -0.64174  -0.62372
 Alpha  occ. eigenvalues --   -0.59383  -0.50513
 Alpha virt. eigenvalues --    0.04405   0.05251   0.05270   0.05838   0.09256
 Alpha virt. eigenvalues --    0.13636   0.15565   0.16474   0.20949   0.22236
 Alpha virt. eigenvalues --    0.24979   0.25380   0.26333   0.29401   0.31450

 Mulliken charges:
               1
     1  Si   2.087816
     2  F   -0.804017
     3  F   -0.804017
     4  H   -0.239891
     5  H   -0.239891
 Sum of Mulliken charges =  -0.00000

 Dipole moment (field-independent basis, Debye):
    X=              0.0000    Y=              0.0000    Z=              1.6890  Tot=              1.6890

 Test job not archived.
 1\1\GINC-SE333\SP\RHF\Aug-CC-pVDZ\F2H2Si1\OHZDE\08-Apr-2025\0\\#t hf a
 ug-cc-pvdz iop(5/13=1,5/36=2,99/5=2) pseudo=read geom=check guess=(rea
 d,tcheck) scf=(maxcycle=1)\\title\\0,1\Si,0,0.,0.,0.450113\F,0,0.,1.29
 063,-0.487796\F,0,0.,-1.29063,-0.487796\H,0,-1.237675,0.,1.239369\H,0,
 1.237675,0.,1.239369\\Version=ES64L-G16RevC.01\State=1-A1\HF=-489.3323
 14\RMSD=4.218e-03\Dipole=0.,0.,0.6645006\Quadrupole=0.973508,-1.746014
 7,0.7725067,0.,0.,0.\PG=C02V [C2(Si1),SGV(F2),SGV'(H2)]\\@

 Normal termination of Gaussian 16 at Tue Apr  8 23:55:18 2025.
