 Gaussian 16, Revision C.01,

 ----------------------------------------------------------------------
 #t hf aug-cc-pvdz symm=none int=(grid=ultrafine) guess=(read,tcheck) s
 table=(opt,rrhf)
 ----------------------------------------------------------------------
 -----
 title
 -----
 Symbolic Z-matrix:
 Charge =  0 Multiplicity = 1

 SCF Done:  E(RHF) =  -1167.48384454     A.U. after   12 cycles

 1\1\GINC-SE343\Stability\RHF\Aug-CC-pVDZ\B2Cl2F2\OHZDE\08-Apr-2025\0\\
 #t hf aug-cc-pvdz symm=none int=(grid=ultrafine) guess=(read,tcheck) s
 table=(opt,rrhf)\\title\\0,1\B,0,0.,0.,1.352966\B,0,0.,0.,-0.34436\Cl,
 0,0.,-1.515982,-1.231857\Cl,0,0.,1.515982,-1.231857\F,0,-1.128283,0.00
 0012,2.046672\F,0,1.128283,-0.000012,2.046672\\Version=ES64L-G16RevC.0
 1\HF=-1167.4838445\RMSD=3.752e-09\Dipole=0.,0.,-0.2169435\Quadrupole=0
 .3567501,1.8553901,-2.2121402,0.0000333,0.,0.\PG=Unknown\\@
 The archive entry for this job was punched.

 Normal termination of Gaussian 16 at Tue Apr  8 23:47:15 2025.
 Gaussian 16:  ES64L-G16RevC.01  3-Jul-2019

 ----------------------------------------------------------------------
 #t hf aug-cc-pvdz iop(5/13=1,5/36=2,99/5=2) pseudo=read geom=check gue
 ss=(read,tcheck) scf=(maxcycle=1)
 ----------------------------------------------------------------------
 -----
 title
 -----
 Structure from the checkpoint file:  "BDE49_nonexpt_17_mol1.chk"
 Charge =  0 Multiplicity = 1

                         Standard orientation:
 ---------------------------------------------------------------------
 Center     Atomic      Atomic             Coordinates (Angstroms)
 Number     Number       Type             X           Y           Z
 ---------------------------------------------------------------------
      1          5           0       -0.000000   -0.000000    1.352966
      2          5           0        0.000000    0.000000   -0.344360
      3         17           0        0.000000    1.515982   -1.231857
      4         17           0       -0.000000   -1.515982   -1.231857
      5          9           0        1.128283   -0.000012    2.046672
      6          9           0       -1.128283    0.000012    2.046672
 ---------------------------------------------------------------------

 SCF Done:  E(RHF) =  -1167.86033357     A.U. after    2 cycles

 The electronic state is 1-A.
 Alpha  occ. eigenvalues -- -105.59674-105.59673 -26.49614 -26.49614 -10.64698
 Alpha  occ. eigenvalues --  -10.64666  -7.81582  -7.81559  -7.81292  -7.81287
 Alpha  occ. eigenvalues --   -7.81243  -7.81236  -7.73554  -7.72820  -1.64759
 Alpha  occ. eigenvalues --   -1.60704  -1.12793  -1.07776  -0.83167  -0.76700
 Alpha  occ. eigenvalues --   -0.75781  -0.70866  -0.68695  -0.64799  -0.64104
 Alpha  occ. eigenvalues --   -0.60300  -0.59061  -0.54513  -0.49562  -0.48555
 Alpha  occ. eigenvalues --   -0.46702
 Alpha virt. eigenvalues --    0.04206   0.04278   0.04790   0.04798   0.06269
 Alpha virt. eigenvalues --    0.07711   0.07788   0.07916   0.11522   0.12300
 Alpha virt. eigenvalues --    0.13346   0.14674   0.15951   0.18060   0.18551

 Mulliken charges:
               1
     1  B    1.894515
     2  B   -0.044620
     3  Cl  -0.290284
     4  Cl  -0.290284
     5  F   -0.634664
     6  F   -0.634664
 Sum of Mulliken charges =  -0.00000

 Dipole moment (field-independent basis, Debye):
    X=              0.0000    Y=             -0.0000    Z=             -0.4424  Tot=              0.4424

 Test job not archived.
 1\1\GINC-SE343\SP\RHF\Aug-CC-pVDZ\B2Cl2F2\OHZDE\08-Apr-2025\0\\#t hf a
 ug-cc-pvdz iop(5/13=1,5/36=2,99/5=2) pseudo=read geom=check guess=(rea
 d,tcheck) scf=(maxcycle=1)\\title\\0,1\B,0,0.,0.,1.352966\B,0,0.,0.,-0
 .34436\Cl,0,0.,-1.515982,-1.231857\Cl,0,0.,1.515982,-1.231857\F,0,-1.1
 28283,0.000012,2.046672\F,0,1.128283,-0.000012,2.046672\\Version=ES64L
 -G16RevC.01\State=1-A\HF=-1167.8603336\RMSD=1.171e-02\Dipole=0.,0.,-0.
 174071\Quadrupole=0.3289056,1.6747555,-2.0036611,0.0000294,0.,0.\PG=C0
 2 [C2(B1B1),X(Cl2F2)]\\@

 Normal termination of Gaussian 16 at Tue Apr  8 23:47:17 2025.
