 Gaussian 16, Revision C.01,

 ----------------------------------------------------------------------
 #t hf aug-cc-pvdz symm=none int=(grid=ultrafine) guess=(read,tcheck) s
 table=(opt,rrhf)
 ----------------------------------------------------------------------
 -----
 title
 -----
 Symbolic Z-matrix:
 Charge =  0 Multiplicity = 1

 SCF Done:  E(RHF) =  -611.959334045     A.U. after   14 cycles
 Normal termination of Gaussian 16 at Wed Apr  9 00:09:04 2025.
 Gaussian 16:  ES64L-G16RevC.01  3-Jul-2019

 ----------------------------------------------------------------------
 #t hf aug-cc-pvdz iop(5/13=1,5/36=2,99/5=2) pseudo=read geom=check gue
 ss=(read,tcheck) scf=(maxcycle=1)
 ----------------------------------------------------------------------
 -----
 title
 -----
 Structure from the checkpoint file:  "BDE49_nonexpt_2294_mol1.chk"
 Charge =  0 Multiplicity = 1

                         Standard orientation:
 ---------------------------------------------------------------------
 Center     Atomic      Atomic             Coordinates (Angstroms)
 Number     Number       Type             X           Y           Z
 ---------------------------------------------------------------------
      1         14           0        0.717789   -0.008136    0.000001
      2          8           0       -0.863153    0.661657   -0.000003
      3          7           0       -1.951230   -0.266824   -0.000001
      4          8           0       -2.981846    0.282895   -0.000003
      5          6           0        0.942702   -1.038211    1.545039
      6          6           0        1.821001    1.497170   -0.000007
      7          1           0        2.873985    1.197750   -0.000005
      8          1           0        1.645559    2.115528    0.884121
      9          1           0        1.645560    2.115518   -0.884143
     10          6           0        0.942702   -1.038228   -1.545026
     11          1           0        0.244350   -1.879262   -1.568040
     12          1           0        1.958087   -1.444907   -1.591297
     13          1           0        0.780575   -0.439824   -2.445925
     14          1           0        0.780574   -0.439798    2.445931
     15          1           0        1.958086   -1.444890    1.591315
     16          1           0        0.244350   -1.879245    1.568062
 ---------------------------------------------------------------------

 SCF Done:  E(RHF) =  -612.319233432     A.U. after    2 cycles

 The electronic state is 1-A.
 Alpha  occ. eigenvalues --  -69.55349 -20.63777 -20.58048 -15.72282 -11.22083
 Alpha  occ. eigenvalues --  -11.22080 -11.22042  -6.22025  -3.97464  -3.97319
 Alpha  occ. eigenvalues --   -3.97290  -1.66980  -1.45450  -0.99399  -0.95858
 Alpha  occ. eigenvalues --   -0.94301  -0.93958  -0.78072  -0.74223  -0.68871
 Alpha  occ. eigenvalues --   -0.64307  -0.58815  -0.58326  -0.57967  -0.56303
 Alpha  occ. eigenvalues --   -0.55989  -0.54886  -0.52070  -0.51045  -0.46996
 Alpha  occ. eigenvalues --   -0.44225  -0.43760
 Alpha virt. eigenvalues --    0.02996   0.04130   0.04143   0.04528   0.06046
 Alpha virt. eigenvalues --    0.06335   0.07235   0.07268   0.07377   0.08801
 Alpha virt. eigenvalues --    0.09217   0.10787   0.11050   0.11569   0.14449

 Mulliken charges:
               1
     1  Si   3.330531
     2  O   -2.042604
     3  N    1.688414
     4  O   -0.922493
     5  C   -0.621112
     6  C   -0.584895
     7  H   -0.026983
     8  H   -0.032882
     9  H   -0.032880
    10  C   -0.621116
    11  H   -0.029860
    12  H    0.005491
    13  H   -0.042620
    14  H   -0.042622
    15  H    0.005489
    16  H   -0.029859
 Sum of Mulliken charges =  -0.00000

 Dipole moment (field-independent basis, Debye):
    X=              2.5723    Y=             -0.5799    Z=              0.0000  Tot=              2.6369

 Test job not archived.
 1\1\GINC-SE403\SP\RHF\Aug-CC-pVDZ\C3H9N1O2Si1\OHZDE\09-Apr-2025\0\\#t
 hf aug-cc-pvdz iop(5/13=1,5/36=2,99/5=2) pseudo=read geom=check guess=
 (read,tcheck) scf=(maxcycle=1)\\title\\0,1\Si,0,0.717789,-0.008136,0.0
 00001\O,0,-0.863153,0.661657,-0.000003\N,0,-1.95123,-0.266824,-0.00000
 1\O,0,-2.981846,0.282895,-0.000003\C,0,0.942702,-1.038211,1.545039\C,0
 ,1.821001,1.49717,-0.000007\H,0,2.873985,1.19775,-0.000005\H,0,1.64555
 9,2.115528,0.884121\H,0,1.64556,2.115518,-0.884143\C,0,0.942702,-1.038
 228,-1.545026\H,0,0.24435,-1.879262,-1.56804\H,0,1.958087,-1.444907,-1

 Normal termination of Gaussian 16 at Wed Apr  9 00:09:09 2025.
