 Gaussian 16, Revision C.01,

 ----------------------------------------------------------------------
 #t hf aug-cc-pvdz symm=none int=(grid=ultrafine) guess=(read,tcheck) s
 table=(opt,rrhf)
 ----------------------------------------------------------------------
 -----
 title
 -----
 Symbolic Z-matrix:
 Charge =  0 Multiplicity = 1

 SCF Done:  E(RHF) =  -443.482336626     A.U. after   15 cycles
 Normal termination of Gaussian 16 at Tue Apr  8 22:42:17 2025.
 Gaussian 16:  ES64L-G16RevC.01  3-Jul-2019

 ----------------------------------------------------------------------
 #t hf aug-cc-pvdz iop(5/13=1,5/36=2,99/5=2) pseudo=read geom=check gue
 ss=(read,tcheck) scf=(maxcycle=1)
 ----------------------------------------------------------------------
 -----
 title
 -----
 Structure from the checkpoint file:  "BDE49_expt_1399_mol1.chk"
 Charge =  0 Multiplicity = 1

                         Standard orientation:
 ---------------------------------------------------------------------
 Center     Atomic      Atomic             Coordinates (Angstroms)
 Number     Number       Type             X           Y           Z
 ---------------------------------------------------------------------
      1          6           0       -0.872711   -2.194993    0.000000
      2          6           0        0.494039   -1.905039    0.000000
      3          6           0        0.911281   -0.590049    0.000000
      4          6           0       -1.791825   -1.154539    0.000000
      5          6           0       -1.362747    0.175548    0.000000
      6          6           0        0.000000    0.477940    0.000000
      7          1           0       -1.205085   -3.225708    0.000000
      8          1           0        1.244523   -2.686127    0.000000
      9          9           0        2.229760   -0.306595    0.000000
     10          1           0       -2.854684   -1.365825    0.000000
     11          1           0       -2.094802    0.971785    0.000000
     12          8           0        0.539135    1.724041    0.000000
     13          6           0       -0.345399    2.835337    0.000000
     14          1           0        0.290564    3.718713    0.000000
     15          1           0       -0.978631    2.844481    0.894288
     16          1           0       -0.978631    2.844481   -0.894288
 ---------------------------------------------------------------------

 SCF Done:  E(RHF) =  -443.925322193     A.U. after    2 cycles

 The electronic state is 1-A'.
 Alpha  occ. eigenvalues --  -26.46935 -20.58042 -11.32919 -11.31812 -11.30182
 Alpha  occ. eigenvalues --  -11.25401 -11.25263 -11.25170 -11.24783  -1.59923
 Alpha  occ. eigenvalues --   -1.50496  -1.16186  -1.03385  -1.02784  -0.95633
 Alpha  occ. eigenvalues --   -0.85576  -0.83890  -0.75073  -0.71331  -0.71000
 Alpha  occ. eigenvalues --   -0.67782  -0.65305  -0.65213  -0.63172  -0.62291
 Alpha  occ. eigenvalues --   -0.58716  -0.55693  -0.53490  -0.52590  -0.50373
 Alpha  occ. eigenvalues --   -0.47905  -0.35561  -0.32550
 Alpha virt. eigenvalues --    0.03182   0.03521   0.04064   0.05145   0.05176
 Alpha virt. eigenvalues --    0.06119   0.08666   0.08874   0.10261   0.11192
 Alpha virt. eigenvalues --    0.11482   0.12564   0.13040   0.13461   0.13960

 Mulliken charges:
               1
     1  C    0.356686
     2  C    0.081701
     3  C    1.177733
     4  C    0.324831
     5  C   -0.004989
     6  C    1.634496
     7  H   -0.203442
     8  H   -0.199554
     9  F   -1.039265
    10  H   -0.219630
    11  H   -0.424032
    12  O   -1.890357
    13  C    0.089822
    14  H   -0.033508
    15  H    0.174753
    16  H    0.174753
 Sum of Mulliken charges =  -0.00000

 Dipole moment (field-independent basis, Debye):
    X=             -2.5702    Y=              0.6426    Z=             -0.0000  Tot=              2.6493

 Test job not archived.
 1\1\GINC-SE398\SP\RHF\Aug-CC-pVDZ\C7H7F1O1\OHZDE\08-Apr-2025\0\\#t hf
 aug-cc-pvdz iop(5/13=1,5/36=2,99/5=2) pseudo=read geom=check guess=(re
 ad,tcheck) scf=(maxcycle=1)\\title\\0,1\C,0,0.872711,-2.194993,0.\C,0,
 -0.494039,-1.905039,0.\C,0,-0.911281,-0.590049,0.\C,0,1.791825,-1.1545
 39,0.\C,0,1.362747,0.175548,0.\C,0,0.,0.47794,0.\H,0,1.205085,-3.22570
 8,0.\H,0,-1.244523,-2.686127,0.\F,0,-2.22976,-0.306595,0.\H,0,2.854684
 ,-1.365825,0.\H,0,2.094802,0.971785,0.\O,0,-0.539135,1.724041,0.\C,0,0
 .345399,2.835337,0.\H,0,-0.290564,3.718713,0.\H,0,0.978631,2.844481,-0

 Normal termination of Gaussian 16 at Tue Apr  8 22:42:23 2025.
