 Gaussian 16, Revision C.01,

 ----------------------------------------------------------------------
 #t hf aug-cc-pvdz symm=none int=(grid=ultrafine) guess=(read,tcheck) s
 table=opt
 ----------------------------------------------------------------------
 -----
 title
 -----
 Symbolic Z-matrix:
 Charge =  0 Multiplicity = 2

 SCF Done:  E(UHF) =  -788.594130461     A.U. after   16 cycles
 Normal termination of Gaussian 16 at Tue Apr  8 23:45:13 2025.
 Gaussian 16:  ES64L-G16RevC.01  3-Jul-2019

 ----------------------------------------------------------------------
 #t hf aug-cc-pvdz iop(5/13=1,5/36=2,99/5=2) pseudo=read geom=check gue
 ss=(read,tcheck) scf=(maxcycle=1)
 ----------------------------------------------------------------------
 -----
 title
 -----
 Structure from the checkpoint file:  "BDE49_nonexpt_1758_mol2.chk"
 Charge =  0 Multiplicity = 2

                         Standard orientation:
 ---------------------------------------------------------------------
 Center     Atomic      Atomic             Coordinates (Angstroms)
 Number     Number       Type             X           Y           Z
 ---------------------------------------------------------------------
      1         14           0        1.582790   -0.127171    0.000001
      2          6           0       -0.028381    0.862490    0.000002
      3          1           0       -0.127009    1.487615   -0.886269
      4          1           0       -0.127010    1.487611    0.886276
      5         17           0       -1.476784   -0.261884   -0.000001
      6          1           0        1.685288   -0.958868   -1.222707
      7          1           0        1.685286   -0.958874    1.222705
 ---------------------------------------------------------------------

 SCF Done:  E(UHF) =  -788.743568221     A.U. after    2 cycles

 The electronic state is 2-A.
 Alpha  occ. eigenvalues -- -105.56203 -69.55306 -11.30236 -10.60943  -7.77968
 Alpha  occ. eigenvalues --   -7.77509  -7.77481  -6.22437  -3.98413  -3.97497
 Alpha  occ. eigenvalues --   -3.97474  -1.09344  -0.91294  -0.73913  -0.63554
 Alpha  occ. eigenvalues --   -0.57209  -0.52886  -0.50263  -0.45025  -0.44272
 Alpha  occ. eigenvalues --   -0.34414
 Alpha virt. eigenvalues --    0.03381   0.04252   0.04509   0.06524   0.07516
 Alpha virt. eigenvalues --    0.08055   0.08879   0.09325   0.13068   0.14297
 Alpha virt. eigenvalues --    0.15486   0.16460   0.16510   0.17586   0.18089

  Beta  occ. eigenvalues -- -105.56121 -69.54751 -11.30211 -10.60853  -7.77714
  Beta  occ. eigenvalues --   -7.77431  -7.77400  -6.21601  -3.97123  -3.97094
  Beta  occ. eigenvalues --   -3.96240  -1.08832  -0.90581  -0.70128  -0.63416
  Beta  occ. eigenvalues --   -0.55843  -0.52426  -0.49352  -0.44887  -0.43220
  Beta virt. eigenvalues --    0.01330   0.04036   0.04488   0.04584   0.07607
  Beta virt. eigenvalues --    0.08092   0.08390   0.09377   0.09721   0.13708
  Beta virt. eigenvalues --    0.15151   0.15989   0.16926   0.17325   0.17792

 Mulliken charges and spin densities:
               1          2
     1  Si   0.942284   0.945028
     2  C   -0.809493  -0.013817
     3  H    0.185537  -0.001465
     4  H    0.185538  -0.001466
     5  Cl  -0.157485   0.039040
     6  H   -0.173191   0.016340
     7  H   -0.173191   0.016340
 Sum of Mulliken charges =  -0.00000   1.00000

 Dipole moment (field-independent basis, Debye):
    X=              1.4412    Y=              1.3629    Z=              0.0000  Tot=              1.9836
                          Isotropic Fermi Contact Couplings
        Atom                 a.u.       MegaHertz       Gauss      10(-4) cm-1
     1  Si(29)             0.55530    -493.51202    -176.09736    -164.61789
     2  C(13)              0.02915      32.77475      11.69485      10.93248
     3  H(1)              -0.00001      -0.06037      -0.02154      -0.02014
     4  H(1)              -0.00001      -0.06036      -0.02154      -0.02013
     5  Cl(35)             0.04670      20.47617       7.30641       6.83012
     6  H(1)               0.00403      17.99272       6.42025       6.00172
     7  H(1)               0.00403      17.99273       6.42025       6.00173
 --------------------------------------------------------

 Normal termination of Gaussian 16 at Tue Apr  8 23:45:15 2025.
