 Gaussian 16, Revision C.01,

 ----------------------------------------------------------------------
 #t hf aug-cc-pvdz symm=none int=(grid=ultrafine) guess=(read,tcheck) s
 table=(opt,rrhf)
 ----------------------------------------------------------------------
 -----
 title
 -----
 Symbolic Z-matrix:
 Charge =  0 Multiplicity = 1

 SCF Done:  E(RHF) =  -806.125179255     A.U. after   12 cycles

 1\1\GINC-SE402\Stability\RHF\Aug-CC-pVDZ\H6O3Si2\OHZDE\09-Apr-2025\0\\
 #t hf aug-cc-pvdz symm=none int=(grid=ultrafine) guess=(read,tcheck) s
 table=(opt,rrhf)\\title\\0,1\Si,0,-0.432099,0.020862,-0.007476\Si,0,1.
 912643,-0.045349,0.04721\O,0,-1.064774,-1.080937,-1.06504\H,0,-0.81320
 5,-1.025412,-1.990155\O,0,-0.815623,1.572662,-0.374105\H,0,-1.710523,1
 .876137,-0.193785\O,0,-1.123788,-0.369745,1.431499\H,0,-1.46994,-1.261
 065,1.523709\H,0,2.362867,-1.413669,0.405174\H,0,2.456318,0.906073,1.0
 44464\H,0,2.480347,0.284909,-1.284503\\Version=ES64L-G16RevC.01\HF=-80

 Normal termination of Gaussian 16 at Wed Apr  9 00:09:34 2025.
 Gaussian 16:  ES64L-G16RevC.01  3-Jul-2019

 ----------------------------------------------------------------------
 #t hf aug-cc-pvdz iop(5/13=1,5/36=2,99/5=2) pseudo=read geom=check gue
 ss=(read,tcheck) scf=(maxcycle=1)
 ----------------------------------------------------------------------
 -----
 title
 -----
 Structure from the checkpoint file:  "BDE49_nonexpt_2334_mol1.chk"
 Charge =  0 Multiplicity = 1

                         Standard orientation:
 ---------------------------------------------------------------------
 Center     Atomic      Atomic             Coordinates (Angstroms)
 Number     Number       Type             X           Y           Z
 ---------------------------------------------------------------------
      1         14           0       -0.432099    0.020862   -0.007476
      2         14           0        1.912643   -0.045349    0.047210
      3          8           0       -1.064774   -1.080937   -1.065040
      4          1           0       -0.813205   -1.025412   -1.990155
      5          8           0       -0.815623    1.572662   -0.374105
      6          1           0       -1.710523    1.876137   -0.193785
      7          8           0       -1.123788   -0.369745    1.431499
      8          1           0       -1.469940   -1.261065    1.523709
      9          1           0        2.362867   -1.413669    0.405174
     10          1           0        2.456318    0.906073    1.044464
     11          1           0        2.480347    0.284909   -1.284503
 ---------------------------------------------------------------------

 SCF Done:  E(RHF) =  -806.417269613     A.U. after    2 cycles

 The electronic state is 1-A.
 Alpha  occ. eigenvalues --  -69.60162 -69.52244 -20.55631 -20.55267 -20.55115
 Alpha  occ. eigenvalues --   -6.26175  -6.19490  -4.01672  -4.01645  -4.01423
 Alpha  occ. eigenvalues --   -3.94850  -3.94847  -3.94828  -1.46675  -1.43261
 Alpha  occ. eigenvalues --   -1.42750  -0.80125  -0.73811  -0.71643  -0.70477
 Alpha  occ. eigenvalues --   -0.58905  -0.58135  -0.55400  -0.53392  -0.51462
 Alpha  occ. eigenvalues --   -0.49965  -0.48659  -0.48409  -0.41184
 Alpha virt. eigenvalues --    0.03181   0.04375   0.04964   0.05287   0.07259
 Alpha virt. eigenvalues --    0.07454   0.07509   0.08171   0.08562   0.09753
 Alpha virt. eigenvalues --    0.10360   0.10597   0.13685   0.15296   0.16293

 Mulliken charges:
               1
     1  Si   3.200127
     2  Si   0.159082
     3  O   -1.392616
     4  H    0.390739
     5  O   -1.379556
     6  H    0.420890
     7  O   -1.350181
     8  H    0.387111
     9  H   -0.135105
    10  H   -0.147606
    11  H   -0.152886
 Sum of Mulliken charges =  -0.00000

 Dipole moment (field-independent basis, Debye):
    X=             -0.8979    Y=             -0.7378    Z=             -1.0039  Tot=              1.5357

 Test job not archived.
 1\1\GINC-SE402\SP\RHF\Aug-CC-pVDZ\H6O3Si2\OHZDE\09-Apr-2025\0\\#t hf a
 ug-cc-pvdz iop(5/13=1,5/36=2,99/5=2) pseudo=read geom=check guess=(rea
 d,tcheck) scf=(maxcycle=1)\\title\\0,1\Si,0,-0.432099,0.020862,-0.0074
 76\Si,0,1.912643,-0.045349,0.04721\O,0,-1.064774,-1.080937,-1.06504\H,
 0,-0.813205,-1.025412,-1.990155\O,0,-0.815623,1.572662,-0.374105\H,0,-
 1.710523,1.876137,-0.193785\O,0,-1.123788,-0.369745,1.431499\H,0,-1.46
 994,-1.261065,1.523709\H,0,2.362867,-1.413669,0.405174\H,0,2.456318,0.
 906073,1.044464\H,0,2.480347,0.284909,-1.284503\\Version=ES64L-G16RevC

 Normal termination of Gaussian 16 at Wed Apr  9 00:09:38 2025.
