 Gaussian 16, Revision C.01,

 ----------------------------------------------------------------------
 #t hf aug-cc-pvdz symm=none int=(grid=ultrafine) guess=(read,tcheck) s
 table=(opt,rrhf)
 ----------------------------------------------------------------------
 -----
 title
 -----
 Symbolic Z-matrix:
 Charge =  0 Multiplicity = 1

 SCF Done:  E(RHF) =  -610.137289508     A.U. after   15 cycles
 Normal termination of Gaussian 16 at Tue Apr  8 23:20:51 2025.
 Gaussian 16:  ES64L-G16RevC.01  3-Jul-2019

 ----------------------------------------------------------------------
 #t hf aug-cc-pvdz iop(5/13=1,5/36=2,99/5=2) pseudo=read geom=check gue
 ss=(read,tcheck) scf=(maxcycle=1)
 ----------------------------------------------------------------------
 -----
 title
 -----
 Structure from the checkpoint file:  "BDE49_nonexpt_1145_mol1.chk"
 Charge =  0 Multiplicity = 1

                         Standard orientation:
 ---------------------------------------------------------------------
 Center     Atomic      Atomic             Coordinates (Angstroms)
 Number     Number       Type             X           Y           Z
 ---------------------------------------------------------------------
      1          9           0       -2.173750    0.109742   -0.000002
      2          8           0       -0.843287   -0.530639   -0.000001
      3          6           0        0.088934    0.426736    0.000000
      4         16           0        1.630659   -0.046332    0.000001
      5          1           0       -0.314093    1.438330    0.000001
 ---------------------------------------------------------------------

 SCF Done:  E(RHF) =  -610.391788283     A.U. after    2 cycles

 The electronic state is 1-A.
 Alpha  occ. eigenvalues --  -93.96515 -26.55053 -20.74652 -11.42443  -8.24813
 Alpha  occ. eigenvalues --   -6.22641  -6.22377  -6.22189  -1.70056  -1.45419
 Alpha  occ. eigenvalues --   -1.09665  -0.88787  -0.77092  -0.74449  -0.70171
 Alpha  occ. eigenvalues --   -0.62595  -0.61426  -0.57718  -0.42212  -0.39329
 Alpha virt. eigenvalues --    0.03350   0.03706   0.06658   0.08657   0.10255
 Alpha virt. eigenvalues --    0.10313   0.12862   0.13340   0.15162   0.16174
 Alpha virt. eigenvalues --    0.20742   0.23132   0.23352   0.25721   0.26943

 Mulliken charges:
               1
     1  F   -0.344941
     2  O   -0.324200
     3  C    0.241556
     4  S    0.216908
     5  H    0.210677
 Sum of Mulliken charges =  -0.00000

 Dipole moment (field-independent basis, Debye):
    X=             -0.6941    Y=              1.4677    Z=              0.0000  Tot=              1.6235

 Test job not archived.
 1\1\GINC-SE232\SP\RHF\Aug-CC-pVDZ\C1H1F1O1S1\OHZDE\08-Apr-2025\0\\#t h
 f aug-cc-pvdz iop(5/13=1,5/36=2,99/5=2) pseudo=read geom=check guess=(
 read,tcheck) scf=(maxcycle=1)\\title\\0,1\F,0,2.17375,0.109742,0.00000
 2\O,0,0.843287,-0.530639,0.000001\C,0,-0.088934,0.426736,0.\S,0,-1.630
 659,-0.046332,-0.000001\H,0,0.314093,1.43833,-0.000001\\Version=ES64L-
 G16RevC.01\State=1-A\HF=-610.3917883\RMSD=6.258e-03\Dipole=0.2730692,0
 .5774359,-0.0000003\Quadrupole=-1.6317108,1.093273,0.5384378,1.15015,-
 0.0000021,0.0000002\PG=C01 [X(C1H1F1O1S1)]\\@

 Normal termination of Gaussian 16 at Tue Apr  8 23:20:53 2025.
