 Gaussian 16, Revision C.01,

 ----------------------------------------------------------------------
 #t hf aug-cc-pvdz symm=none int=(grid=ultrafine) guess=(read,tcheck) s
 table=(opt,rrhf)
 ----------------------------------------------------------------------
 -----
 title
 -----
 Symbolic Z-matrix:
 Charge =  0 Multiplicity = 1

 SCF Done:  E(RHF) =  -682.075730459     A.U. after   15 cycles
 Normal termination of Gaussian 16 at Tue Apr  8 23:39:09 2025.
 Gaussian 16:  ES64L-G16RevC.01  3-Jul-2019

 ----------------------------------------------------------------------
 #t hf aug-cc-pvdz iop(5/13=1,5/36=2,99/5=2) pseudo=read geom=check gue
 ss=(read,tcheck) scf=(maxcycle=1)
 ----------------------------------------------------------------------
 -----
 title
 -----
 Structure from the checkpoint file:  "BDE49_nonexpt_1553_mol1.chk"
 Charge =  0 Multiplicity = 1

                         Standard orientation:
 ---------------------------------------------------------------------
 Center     Atomic      Atomic             Coordinates (Angstroms)
 Number     Number       Type             X           Y           Z
 ---------------------------------------------------------------------
      1          7           0       -1.239410    0.384276    0.000006
      2          6           0        0.156660    0.153787   -0.000003
      3          6           0        1.060860    1.229210   -0.000028
      4          6           0        0.672215   -1.152072    0.000010
      5          6           0        2.047725   -1.368729   -0.000003
      6          6           0        2.940090   -0.301921   -0.000029
      7          6           0        2.430650    0.995372   -0.000041
      8          1           0        4.009497   -0.476371   -0.000038
      9          1           0        3.107063    1.843471   -0.000061
     10          1           0        0.669433    2.235301   -0.000037
     11          1           0        0.007757   -2.004524    0.000032
     12          1           0        2.417809   -2.388250    0.000008
     13          7           0       -1.642643    1.745946    0.000024
     14         15           0       -2.492653   -0.799018    0.000020
     15          1           0       -2.201433    1.940705    0.824657
     16          1           0       -2.201481    1.940711   -0.824574
     17          1           0       -2.046838   -1.675597    1.030102
     18          1           0       -2.046832   -1.675615   -1.030042
 ---------------------------------------------------------------------

 SCF Done:  E(RHF) =  -682.472752514     A.U. after    2 cycles

 The electronic state is 1-A.
 Alpha  occ. eigenvalues --  -84.30544 -15.54137 -15.53439 -11.28464 -11.23997
 Alpha  occ. eigenvalues --  -11.23815 -11.23093 -11.22620 -11.22486  -6.77264
 Alpha  occ. eigenvalues --   -4.30414  -4.29368  -4.29215  -1.29821  -1.15174
 Alpha  occ. eigenvalues --   -1.08729  -1.01148  -0.98705  -0.88836  -0.83111
 Alpha  occ. eigenvalues --   -0.79922  -0.73442  -0.73158  -0.68602  -0.65595
 Alpha  occ. eigenvalues --   -0.61964  -0.61045  -0.59231  -0.56964  -0.52015
 Alpha  occ. eigenvalues --   -0.50620  -0.50343  -0.46713  -0.44815  -0.36700
 Alpha  occ. eigenvalues --   -0.34143  -0.30973
 Alpha virt. eigenvalues --    0.03156   0.04040   0.04136   0.04793   0.05919
 Alpha virt. eigenvalues --    0.05961   0.06769   0.07348   0.07739   0.08647
 Alpha virt. eigenvalues --    0.10468   0.11057   0.11791   0.12115   0.12975

 Mulliken charges:
               1
     1  N    0.715088
     2  C   -1.311766
     3  C    0.180849
     4  C    0.579822
     5  C    0.437076
     6  C    0.035276
     7  C    0.450249
     8  H   -0.227820
     9  H   -0.234395
    10  H   -0.337006
    11  H   -0.351834
    12  H   -0.224925
    13  N   -0.152510
    14  P   -0.414728
    15  H    0.177737
    16  H    0.177735
    17  H    0.250576
    18  H    0.250575
 Sum of Mulliken charges =   0.00000

 Dipole moment (field-independent basis, Debye):
    X=             -1.4778    Y=             -0.1864    Z=              0.0001  Tot=              1.4895

 Test job not archived.
 1\1\GINC-SE043\SP\RHF\Aug-CC-pVDZ\C6H9N2P1\OHZDE\08-Apr-2025\0\\#t hf
 aug-cc-pvdz iop(5/13=1,5/36=2,99/5=2) pseudo=read geom=check guess=(re
 ad,tcheck) scf=(maxcycle=1)\\title\\0,1\N,0,-1.23941,0.384276,0.000006
 \C,0,0.15666,0.153787,-0.000003\C,0,1.06086,1.22921,-0.000028\C,0,0.67
 2215,-1.152072,0.00001\C,0,2.047725,-1.368729,-0.000003\C,0,2.94009,-0
 .301921,-0.000029\C,0,2.43065,0.995372,-0.000041\H,0,4.009497,-0.47637
 1,-0.000038\H,0,3.107063,1.843471,-0.000061\H,0,0.669433,2.235301,-0.0
 00037\H,0,0.007757,-2.004524,0.000032\H,0,2.417809,-2.38825,0.000008\N

 Normal termination of Gaussian 16 at Tue Apr  8 23:39:19 2025.
