 Gaussian 16, Revision C.01,

 ----------------------------------------------------------------------
 #t hf aug-cc-pvdz symm=none int=(grid=ultrafine) guess=(read,tcheck) s
 table=(opt,rrhf)
 ----------------------------------------------------------------------
 -----
 title
 -----
 Symbolic Z-matrix:
 Charge =  0 Multiplicity = 1

 SCF Done:  E(RHF) =  -1456.00322394     A.U. after   12 cycles

 1\1\GINC-SE072\Stability\RHF\Aug-CC-pVDZ\C2H3Cl3\OHZDE\08-Apr-2025\0\\
 #t hf aug-cc-pvdz symm=none int=(grid=ultrafine) guess=(read,tcheck) s
 table=(opt,rrhf)\\title\\0,1\C,0,0.410014,-0.080105,-0.359075\C,0,-0.6
 67115,-0.832464,0.403525\Cl,0,1.995106,-0.873585,-0.015204\Cl,0,0.4656
 59,1.656315,0.080654\H,0,0.263341,-0.128264,-1.433266\H,0,-0.571248,-0
 .668847,1.474418\H,0,-0.594242,-1.894114,0.176544\Cl,0,-2.316956,-0.30
 2339,-0.093945\\Version=ES64L-G16RevC.01\HF=-1456.0032239\RMSD=9.760e-
 09\Dipole=0.0386374,-0.5546757,-0.0433249\Quadrupole=-3.4070206,1.0582

 Normal termination of Gaussian 16 at Tue Apr  8 22:29:20 2025.
 Gaussian 16:  ES64L-G16RevC.01  3-Jul-2019

 ----------------------------------------------------------------------
 #t hf aug-cc-pvdz iop(5/13=1,5/36=2,99/5=2) pseudo=read geom=check gue
 ss=(read,tcheck) scf=(maxcycle=1)
 ----------------------------------------------------------------------
 -----
 title
 -----
 Structure from the checkpoint file:  "BDE49_expt_1016_mol1.chk"
 Charge =  0 Multiplicity = 1

                         Standard orientation:
 ---------------------------------------------------------------------
 Center     Atomic      Atomic             Coordinates (Angstroms)
 Number     Number       Type             X           Y           Z
 ---------------------------------------------------------------------
      1          6           0        0.410014   -0.080105   -0.359075
      2          6           0       -0.667115   -0.832464    0.403525
      3         17           0        1.995106   -0.873585   -0.015204
      4         17           0        0.465659    1.656315    0.080654
      5          1           0        0.263341   -0.128264   -1.433266
      6          1           0       -0.571248   -0.668847    1.474418
      7          1           0       -0.594242   -1.894114    0.176544
      8         17           0       -2.316956   -0.302339   -0.093945
 ---------------------------------------------------------------------

 SCF Done:  E(RHF) =  -1456.31279011     A.U. after    2 cycles

 The electronic state is 1-A.
 Alpha  occ. eigenvalues -- -105.59134-105.58654-105.57827 -11.39870 -11.34033
 Alpha  occ. eigenvalues --  -10.63939 -10.63477 -10.62624  -7.80879  -7.80481
 Alpha  occ. eigenvalues --   -7.80470  -7.80423  -7.80011  -7.80007  -7.79568
 Alpha  occ. eigenvalues --   -7.79183  -7.79168  -1.19995  -1.10349  -1.05970
 Alpha  occ. eigenvalues --   -0.96029  -0.84950  -0.70170  -0.65052  -0.64542
 Alpha  occ. eigenvalues --   -0.59347  -0.56006  -0.49540  -0.48908  -0.47886
 Alpha  occ. eigenvalues --   -0.46670  -0.46277  -0.45735
 Alpha virt. eigenvalues --    0.03853   0.04583   0.05496   0.06993   0.08137
 Alpha virt. eigenvalues --    0.09728   0.11616   0.12816   0.13744   0.14460
 Alpha virt. eigenvalues --    0.15182   0.15685   0.16537   0.17181   0.17339

 Mulliken charges:
               1
     1  C   -0.651632
     2  C   -0.267550
     3  Cl   0.021113
     4  Cl   0.038777
     5  H    0.320958
     6  H    0.300206
     7  H    0.267566
     8  Cl  -0.029437
 Sum of Mulliken charges =  -0.00000

 Dipole moment (field-independent basis, Debye):
    X=              0.1048    Y=             -1.4071    Z=             -0.1104  Tot=              1.4153

 Test job not archived.
 1\1\GINC-SE072\SP\RHF\Aug-CC-pVDZ\C2H3Cl3\OHZDE\08-Apr-2025\0\\#t hf a
 ug-cc-pvdz iop(5/13=1,5/36=2,99/5=2) pseudo=read geom=check guess=(rea
 d,tcheck) scf=(maxcycle=1)\\title\\0,1\C,0,0.410014,-0.080105,-0.35907
 5\C,0,-0.667115,-0.832464,0.403525\Cl,0,1.995106,-0.873585,-0.015204\C
 l,0,0.465659,1.656315,0.080654\H,0,0.263341,-0.128264,-1.433266\H,0,-0
 .571248,-0.668847,1.474418\H,0,-0.594242,-1.894114,0.176544\Cl,0,-2.31
 6956,-0.302339,-0.093945\\Version=ES64L-G16RevC.01\State=1-A\HF=-1456.
 3127901\RMSD=6.022e-03\Dipole=0.0412339,-0.5536095,-0.04344\Quadrupole

 Normal termination of Gaussian 16 at Tue Apr  8 22:29:23 2025.
