 Gaussian 16, Revision C.01,

 ----------------------------------------------------------------------
 #t hf aug-cc-pvdz symm=none int=(grid=ultrafine) guess=(read,tcheck) s
 table=opt
 ----------------------------------------------------------------------
 -----
 title
 -----
 Symbolic Z-matrix:
 Charge =  0 Multiplicity = 2

 SCF Done:  E(UHF) =  -608.312278313     A.U. after   19 cycles
 Normal termination of Gaussian 16 at Wed Apr  9 00:01:38 2025.
 Gaussian 16:  ES64L-G16RevC.01  3-Jul-2019

 ----------------------------------------------------------------------
 #t hf aug-cc-pvdz iop(5/13=1,5/36=2,99/5=2) pseudo=read geom=check gue
 ss=(read,tcheck) scf=(maxcycle=1)
 ----------------------------------------------------------------------
 -----
 title
 -----
 Structure from the checkpoint file:  "BDE49_nonexpt_2149_mol2.chk"
 Charge =  0 Multiplicity = 2

                         Standard orientation:
 ---------------------------------------------------------------------
 Center     Atomic      Atomic             Coordinates (Angstroms)
 Number     Number       Type             X           Y           Z
 ---------------------------------------------------------------------
      1          6           0       -1.779386   -0.641921    0.076086
      2          7           0       -0.485896   -1.015342   -0.156100
      3         14           0        0.878417    0.091259   -0.419165
      4          8           0       -2.167377    0.507961    0.201720
      5          8           0        0.367167    1.561688    0.064316
      6          1           0       -0.331032   -2.013602   -0.213846
      7          1           0       -0.603513    1.598728    0.177146
      8          8           0        2.077103   -0.581928    0.494676
      9          1           0        2.981684   -0.315346    0.309627
     10          1           0       -2.482528   -1.490254    0.145869
 ---------------------------------------------------------------------

 SCF Done:  E(UHF) =  -608.653577568     A.U. after    2 cycles

 The electronic state is 2-A.
 Alpha  occ. eigenvalues --  -69.61534 -20.57029 -20.54461 -20.54075 -15.53454
 Alpha  occ. eigenvalues --  -11.38510  -6.27694  -4.03322  -4.02842  -4.02780
 Alpha  occ. eigenvalues --   -1.48699  -1.46280  -1.43410  -1.23288  -0.88470
 Alpha  occ. eigenvalues --   -0.79391  -0.77826  -0.70530  -0.67871  -0.63803
 Alpha  occ. eigenvalues --   -0.61131  -0.59644  -0.55821  -0.55335  -0.50707
 Alpha  occ. eigenvalues --   -0.46929  -0.45133  -0.35195
 Alpha virt. eigenvalues --    0.02897   0.03957   0.05186   0.06059   0.06741
 Alpha virt. eigenvalues --    0.07385   0.08172   0.09819   0.11648   0.12415
 Alpha virt. eigenvalues --    0.14584   0.15029   0.15826   0.16927   0.17526

  Beta  occ. eigenvalues --  -69.60983 -20.56540 -20.54039 -20.54005 -15.53163
  Beta  occ. eigenvalues --  -11.38522  -6.26762  -4.02520  -4.02429  -4.01559
  Beta  occ. eigenvalues --   -1.48503  -1.44923  -1.42241  -1.22614  -0.87698
  Beta  occ. eigenvalues --   -0.78790  -0.76837  -0.69392  -0.67129  -0.62958
  Beta  occ. eigenvalues --   -0.60420  -0.56627  -0.55087  -0.53493  -0.49427
  Beta  occ. eigenvalues --   -0.45812  -0.44914
  Beta virt. eigenvalues --    0.01915   0.03702   0.05017   0.05494   0.06894
  Beta virt. eigenvalues --    0.07055   0.07582   0.08248   0.10518   0.12460
  Beta virt. eigenvalues --    0.12989   0.15002   0.15827   0.16577   0.17710

 Mulliken charges and spin densities:
               1          2
     1  C    0.328054  -0.028015
     2  N    0.355788   0.035470
     3  Si   2.162483   0.940586
     4  O   -1.103047   0.018946
     5  O   -1.503736   0.016515
     6  H   -0.021344  -0.005144
     7  H    0.583743  -0.000390
     8  O   -1.277382   0.045078
     9  H    0.402873  -0.026060
    10  H    0.072568   0.003013
 Sum of Mulliken charges =  -0.00000   1.00000

 Dipole moment (field-independent basis, Debye):
    X=              1.2124    Y=             -3.2579    Z=             -1.0117  Tot=              3.6204
                          Isotropic Fermi Contact Couplings
        Atom                 a.u.       MegaHertz       Gauss      10(-4) cm-1
     1  C(13)             -0.00165      -1.84934      -0.65989      -0.61687
     2  N(14)              0.09021      29.14666      10.40025       9.72228
     3  Si(29)             0.97717    -868.43432    -309.87896    -289.67851
     4  O(17)              0.00555      -3.36149      -1.19946      -1.12127
     5  O(17)              0.08686     -52.65192     -18.78752     -17.56279
     6  H(1)              -0.00126      -5.65287      -2.01708      -1.88559
     7  H(1)               0.00026       1.15815       0.41326       0.38632
     8  O(17)              0.06466     -39.19927     -13.98728     -13.07547

 1\1\GINC-SE460\SP\UHF\Aug-CC-pVDZ\C1H4N1O3Si1(2)\OHZDE\09-Apr-2025\0\\
 #t hf aug-cc-pvdz iop(5/13=1,5/36=2,99/5=2) pseudo=read geom=check gue
 ss=(read,tcheck) scf=(maxcycle=1)\\title\\0,2\C,0,1.779386,-0.641921,-
 0.076086\N,0,0.485896,-1.015342,0.1561\Si,0,-0.878417,0.091259,0.41916
 5\O,0,2.167377,0.507961,-0.20172\O,0,-0.367167,1.561688,-0.064316\H,0,
 0.331032,-2.013602,0.213846\H,0,0.603513,1.598728,-0.177146\O,0,-2.077
 103,-0.581928,-0.494676\H,0,-2.981684,-0.315346,-0.309627\H,0,2.482528
 ,-1.490254,-0.145869\\Version=ES64L-G16RevC.01\State=2-A\HF=-608.65357

 Normal termination of Gaussian 16 at Wed Apr  9 00:01:41 2025.
