 Gaussian 16, Revision C.01,

 ----------------------------------------------------------------------
 #t hf aug-cc-pvdz symm=none int=(grid=ultrafine) guess=(read,tcheck) s
 table=(opt,rrhf)
 ----------------------------------------------------------------------
 -----
 title
 -----
 Symbolic Z-matrix:
 Charge =  0 Multiplicity = 1

 SCF Done:  E(RHF) =  -1201.06258742     A.U. after   15 cycles
 Normal termination of Gaussian 16 at Tue Apr  8 23:53:28 2025.
 Gaussian 16:  ES64L-G16RevC.01  3-Jul-2019

 ----------------------------------------------------------------------
 #t hf aug-cc-pvdz iop(5/13=1,5/36=2,99/5=2) pseudo=read geom=check gue
 ss=(read,tcheck) scf=(maxcycle=1)
 ----------------------------------------------------------------------
 -----
 title
 -----
 Structure from the checkpoint file:  "BDE49_nonexpt_1938_mol1.chk"
 Charge =  0 Multiplicity = 1

                         Standard orientation:
 ---------------------------------------------------------------------
 Center     Atomic      Atomic             Coordinates (Angstroms)
 Number     Number       Type             X           Y           Z
 ---------------------------------------------------------------------
      1          6           0       -0.694218    0.539712    1.016558
      2         14           0        0.559492    1.407331   -0.117726
      3          6           0        2.039404    0.306398   -0.534398
      4          1           0        1.091121    2.605459    0.577341
      5          1           0       -0.079857    1.826131   -1.385024
      6         16           0        2.319327   -1.174163    0.070524
      7          1           0        2.772732    0.718464   -1.235639
      8          6           0       -1.414513   -0.572859    0.346221
      9         16           0       -2.869618   -0.479543   -0.372364
     10          1           0       -0.877001   -1.522442    0.332410
     11          1           0       -1.391675    1.318096    1.338663
     12          1           0       -0.127573    0.171466    1.879570
 ---------------------------------------------------------------------

 SCF Done:  E(RHF) =  -1201.33022328     A.U. after    2 cycles

 The electronic state is 1-A.
 Alpha  occ. eigenvalues --  -93.96549 -93.93290 -69.56513 -11.33427 -11.32711
 Alpha  occ. eigenvalues --  -11.25912  -8.24672  -8.21519  -6.23541  -6.22457
 Alpha  occ. eigenvalues --   -6.22339  -6.22044  -6.19332  -6.19156  -6.18914
 Alpha  occ. eigenvalues --   -3.98920  -3.98882  -3.98875  -1.11694  -1.09657
 Alpha  occ. eigenvalues --   -0.98093  -0.84565  -0.79058  -0.72427  -0.65232
 Alpha  occ. eigenvalues --   -0.61035  -0.58274  -0.54522  -0.52578  -0.51447
 Alpha  occ. eigenvalues --   -0.50963  -0.43298  -0.39519  -0.36236  -0.34750
 Alpha virt. eigenvalues --    0.01156   0.02709   0.03588   0.04215   0.04395
 Alpha virt. eigenvalues --    0.05136   0.06331   0.06999   0.07305   0.08038
 Alpha virt. eigenvalues --    0.08941   0.09667   0.10732   0.12264   0.13723

 Mulliken charges:
               1
     1  C   -0.747251
     2  Si   1.602429
     3  C   -0.735056
     4  H   -0.215311
     5  H   -0.155654
     6  S    0.117705
     7  H   -0.051829
     8  C   -0.146689
     9  S    0.072098
    10  H   -0.023779
    11  H    0.073744
    12  H    0.209593
 Sum of Mulliken charges =  -0.00000

 Dipole moment (field-independent basis, Debye):
    X=              2.3118    Y=              2.0895    Z=              0.7969  Tot=              3.2165

 Test job not archived.
 1\1\GINC-SE329\SP\RHF\Aug-CC-pVDZ\C3H6S2Si1\OHZDE\08-Apr-2025\0\\#t hf
  aug-cc-pvdz iop(5/13=1,5/36=2,99/5=2) pseudo=read geom=check guess=(r
 ead,tcheck) scf=(maxcycle=1)\\title\\0,1\C,0,-0.694218,0.539712,1.0165
 58\Si,0,0.559492,1.407331,-0.117726\C,0,2.039404,0.306398,-0.534398\H,
 0,1.091121,2.605459,0.577341\H,0,-0.079857,1.826131,-1.385024\S,0,2.31
 9327,-1.174163,0.070524\H,0,2.772732,0.718464,-1.235639\C,0,-1.414513,
 -0.572859,0.346221\S,0,-2.869618,-0.479543,-0.372364\H,0,-0.877001,-1.
 522442,0.33241\H,0,-1.391675,1.318096,1.338663\H,0,-0.127573,0.171466,

 Normal termination of Gaussian 16 at Tue Apr  8 23:53:33 2025.
