 Gaussian 16, Revision C.01,

 ----------------------------------------------------------------------
 #t hf aug-cc-pvdz symm=none int=(grid=ultrafine) guess=(read,tcheck) s
 table=(opt,rrhf)
 ----------------------------------------------------------------------
 -----
 title
 -----
 Symbolic Z-matrix:
 Charge =  0 Multiplicity = 1

 SCF Done:  E(RHF) =  -689.165888972     A.U. after   15 cycles

 1\1\GINC-SE177\Stability\RHF\Aug-CC-pVDZ\C9H13P1\OHZDE\08-Apr-2025\0\\
 #t hf aug-cc-pvdz symm=none int=(grid=ultrafine) guess=(read,tcheck) s
 table=(opt,rrhf)\\title\\0,1\P,0,1.956353,-0.361541,-0.495961\C,0,3.54
 3626,-0.373403,0.470672\C,0,-0.690324,-0.210267,0.508967\C,0,1.890731,
 1.433839,-0.960399\H,0,2.648532,1.63336,-1.722105\H,0,2.064985,2.09657
 5,-0.106605\H,0,0.91429,1.661667,-1.392657\H,0,3.576959,0.405547,1.239
 055\H,0,4.382397,-0.226688,-0.214351\H,0,3.673643,-1.347638,0.948498\C
 ,0,-1.376768,0.990024,0.723043\C,0,-1.366523,-1.253753,-0.136813\C,0,-

 Normal termination of Gaussian 16 at Tue Apr  8 23:29:28 2025.
 Gaussian 16:  ES64L-G16RevC.01  3-Jul-2019

 ----------------------------------------------------------------------
 #t hf aug-cc-pvdz iop(5/13=1,5/36=2,99/5=2) pseudo=read geom=check gue
 ss=(read,tcheck) scf=(maxcycle=1)
 ----------------------------------------------------------------------
 -----
 title
 -----
 Structure from the checkpoint file:  "BDE49_nonexpt_1296_mol1.chk"
 Charge =  0 Multiplicity = 1

                         Standard orientation:
 ---------------------------------------------------------------------
 Center     Atomic      Atomic             Coordinates (Angstroms)
 Number     Number       Type             X           Y           Z
 ---------------------------------------------------------------------
      1         15           0        1.956353   -0.361541   -0.495961
      2          6           0        3.543626   -0.373403    0.470672
      3          6           0       -0.690324   -0.210267    0.508967
      4          6           0        1.890731    1.433839   -0.960399
      5          1           0        2.648532    1.633360   -1.722105
      6          1           0        2.064985    2.096575   -0.106605
      7          1           0        0.914290    1.661667   -1.392657
      8          1           0        3.576959    0.405547    1.239055
      9          1           0        4.382397   -0.226688   -0.214351
     10          1           0        3.673643   -1.347638    0.948498
     11          6           0       -1.376768    0.990024    0.723043
     12          6           0       -1.366523   -1.253753   -0.136813
     13          6           0       -2.686805   -1.102746   -0.549922
     14          6           0       -3.359139    0.098377   -0.328831
     15          6           0       -2.698711    1.144813    0.309372
     16          1           0       -3.212468    2.082713    0.489987
     17          1           0       -0.872987    1.809195    1.226174
     18          1           0       -3.192526   -1.924767   -1.044565
     19          1           0       -4.388183    0.215600   -0.649220
     20          1           0       -0.850373   -2.191045   -0.316732
     21          6           0        0.745197   -0.371357    0.943610
     22          1           0        0.882634   -1.335108    1.444669
     23          1           0        1.020104    0.410536    1.659077
 ---------------------------------------------------------------------

 SCF Done:  E(RHF) =  -689.582427600     A.U. after    2 cycles

 The electronic state is 1-A.
 Alpha  occ. eigenvalues --  -84.26262 -11.24981 -11.24162 -11.24126 -11.24106
 Alpha  occ. eigenvalues --  -11.23813 -11.23774 -11.23658 -11.23280 -11.22965
 Alpha  occ. eigenvalues --   -6.73234  -4.25830  -4.25673  -4.24986  -1.15593
 Alpha  occ. eigenvalues --   -1.05885  -1.01335  -1.00700  -0.93714  -0.92886
 Alpha  occ. eigenvalues --   -0.83382  -0.80972  -0.72816  -0.70055  -0.65244
 Alpha  occ. eigenvalues --   -0.64058  -0.59859  -0.59390  -0.58955  -0.58688
 Alpha  occ. eigenvalues --   -0.55809  -0.55599  -0.54722  -0.52060  -0.50189
 Alpha  occ. eigenvalues --   -0.49729  -0.45041  -0.44644  -0.34508  -0.32987
 Alpha  occ. eigenvalues --   -0.30801
 Alpha virt. eigenvalues --    0.03375   0.03506   0.03784   0.04052   0.04749
 Alpha virt. eigenvalues --    0.04910   0.05915   0.06672   0.07144   0.07568
 Alpha virt. eigenvalues --    0.07849   0.08679   0.10027   0.10330   0.10915

 Mulliken charges:
               1
     1  P    1.191458
     2  C   -0.710868
     3  C    1.706781
     4  C   -0.840688
     5  H    0.090985
     6  H    0.120483
     7  H    0.081864
     8  H    0.095935
     9  H    0.101621
    10  H    0.094845
    11  C    0.220237
    12  C   -0.008929
    13  C    0.000359
    14  C    0.142661
    15  C    0.050662
    16  H   -0.239157
    17  H   -0.350464
    18  H   -0.242830
    19  H   -0.218134
    20  H   -0.293009
    21  C   -0.913155
    22  H   -0.034231
    23  H   -0.046429
 Sum of Mulliken charges =  -0.00000

 Dipole moment (field-independent basis, Debye):
    X=              0.5436    Y=              0.6331    Z=              0.6748  Tot=              1.0732

 Test job not archived.
 1\1\GINC-SE177\SP\RHF\Aug-CC-pVDZ\C9H13P1\OHZDE\08-Apr-2025\0\\#t hf a
 ug-cc-pvdz iop(5/13=1,5/36=2,99/5=2) pseudo=read geom=check guess=(rea
 d,tcheck) scf=(maxcycle=1)\\title\\0,1\P,0,1.956353,-0.361541,-0.49596
 1\C,0,3.543626,-0.373403,0.470672\C,0,-0.690324,-0.210267,0.508967\C,0
 ,1.890731,1.433839,-0.960399\H,0,2.648532,1.63336,-1.722105\H,0,2.0649
 85,2.096575,-0.106605\H,0,0.91429,1.661667,-1.392657\H,0,3.576959,0.40
 5547,1.239055\H,0,4.382397,-0.226688,-0.214351\H,0,3.673643,-1.347638,
 0.948498\C,0,-1.376768,0.990024,0.723043\C,0,-1.366523,-1.253753,-0.13

 Normal termination of Gaussian 16 at Tue Apr  8 23:29:44 2025.
