 Gaussian 16, Revision C.01,

 ----------------------------------------------------------------------
 #t hf aug-cc-pvdz symm=none int=(grid=ultrafine) guess=(read,tcheck) s
 table=(opt,rrhf)
 ----------------------------------------------------------------------
 -----
 title
 -----
 Symbolic Z-matrix:
 Charge =  0 Multiplicity = 1

 SCF Done:  E(RHF) =  -831.794438084     A.U. after   16 cycles
 Normal termination of Gaussian 16 at Wed Apr  9 00:54:41 2025.
 Gaussian 16:  ES64L-G16RevC.01  3-Jul-2019

 ----------------------------------------------------------------------
 #t hf aug-cc-pvdz iop(5/13=1,5/36=2,99/5=2) pseudo=read geom=check gue
 ss=(read,tcheck) scf=(maxcycle=1)
 ----------------------------------------------------------------------
 -----
 title
 -----
 Structure from the checkpoint file:  "BDE49_nonexpt_968_mol1.chk"
 Charge =  0 Multiplicity = 1

                         Standard orientation:
 ---------------------------------------------------------------------
 Center     Atomic      Atomic             Coordinates (Angstroms)
 Number     Number       Type             X           Y           Z
 ---------------------------------------------------------------------
      1          9           0       -2.448073   -1.860559   -0.558349
      2          7           0       -1.078881   -1.566297   -0.353528
      3          6           0       -0.995987   -0.348423    0.070022
      4          7           0       -2.017107    0.486372    0.362373
      5          1           0       -2.915304    0.101668    0.105854
      6          6           0       -1.939763    1.934473    0.537192
      7          1           0       -2.850996    2.262243    1.036336
      8          1           0       -1.844497    2.462257   -0.416262
      9          1           0       -1.101944    2.199422    1.181395
     10          6           0        0.425087    0.077812    0.352729
     11          9           0        0.582625    0.512527    1.604557
     12          7           0        1.443012   -1.094921    0.128427
     13          8           0        1.841364   -1.239180   -1.003612
     14          8           0        1.731822   -1.709963    1.123631
     15          7           0        0.907255    1.209867   -0.602346
     16          8           0        1.851403    1.852967   -0.204460
     17          8           0        0.298635    1.330972   -1.643976
 ---------------------------------------------------------------------

 SCF Done:  E(RHF) =  -832.579179078     A.U. after    2 cycles

 The electronic state is 1-A.
 Alpha  occ. eigenvalues --  -26.57389 -26.50045 -20.65084 -20.65076 -20.64210
 Alpha  occ. eigenvalues --  -20.63917 -15.85189 -15.84669 -15.62614 -15.58378
 Alpha  occ. eigenvalues --  -11.53045 -11.40821 -11.31992  -1.74550  -1.72651
 Alpha  occ. eigenvalues --   -1.70688  -1.61497  -1.57642  -1.57089  -1.33709
 Alpha  occ. eigenvalues --   -1.23716  -1.18200  -1.05305  -1.01670  -0.97329
 Alpha  occ. eigenvalues --   -0.89341  -0.87796  -0.85641  -0.82731  -0.80197
 Alpha  occ. eigenvalues --   -0.79691  -0.79489  -0.78580  -0.76162  -0.73543
 Alpha  occ. eigenvalues --   -0.72902  -0.71319  -0.68717  -0.66997  -0.65762
 Alpha  occ. eigenvalues --   -0.61280  -0.57604  -0.56139  -0.55361  -0.54566
 Alpha  occ. eigenvalues --   -0.53742  -0.52432  -0.50158  -0.49126  -0.45218
 Alpha virt. eigenvalues --    0.00601   0.02066   0.02603   0.04014   0.04653
 Alpha virt. eigenvalues --    0.05271   0.06954   0.08543   0.09594   0.10089
 Alpha virt. eigenvalues --    0.11265   0.11321   0.12632   0.13471   0.13959

 Mulliken charges:
               1
     1  F   -0.708176
     2  N    1.491707
     3  C   -2.245489
     4  N    0.921238
     5  H    0.183590
     6  C   -0.331581
     7  H    0.026483
     8  H    0.186356
     9  H    0.167533
    10  C    0.895979
    11  F   -0.901574
    12  N    2.973390
    13  O   -1.443178
    14  O   -1.410079
    15  N    3.157508
    16  O   -1.487401
    17  O   -1.476305
 Sum of Mulliken charges =   0.00000

 Dipole moment (field-independent basis, Debye):
    X=             -3.7964    Y=              4.0765    Z=              1.9079  Tot=              5.8882

 Test job not archived.
 1\1\GINC-SE162\SP\RHF\Aug-CC-pVDZ\C3H4F2N4O4\OHZDE\09-Apr-2025\0\\#t h
 f aug-cc-pvdz iop(5/13=1,5/36=2,99/5=2) pseudo=read geom=check guess=(
 read,tcheck) scf=(maxcycle=1)\\title\\0,1\F,0,-2.448073,-1.860559,-0.5
 58349\N,0,-1.078881,-1.566297,-0.353528\C,0,-0.995987,-0.348423,0.0700
 22\N,0,-2.017107,0.486372,0.362373\H,0,-2.915304,0.101668,0.105854\C,0
 ,-1.939763,1.934473,0.537192\H,0,-2.850996,2.262243,1.036336\H,0,-1.84
 4497,2.462257,-0.416262\H,0,-1.101944,2.199422,1.181395\C,0,0.425087,0
 .077812,0.352729\F,0,0.582625,0.512527,1.604557\N,0,1.443012,-1.094921

 Normal termination of Gaussian 16 at Wed Apr  9 00:54:52 2025.
