 Gaussian 16, Revision C.01,

 ----------------------------------------------------------------------
 #t hf aug-cc-pvdz symm=none int=(grid=ultrafine) guess=(read,tcheck) s
 table=(opt,rrhf)
 ----------------------------------------------------------------------
 -----
 title
 -----
 Symbolic Z-matrix:
 Charge =  0 Multiplicity = 1

 SCF Done:  E(RHF) =  -497.289441185     A.U. after   17 cycles
 Normal termination of Gaussian 16 at Tue Apr  8 22:46:17 2025.
 Gaussian 16:  ES64L-G16RevC.01  3-Jul-2019

 ----------------------------------------------------------------------
 #t hf aug-cc-pvdz iop(5/13=1,5/36=2,99/5=2) pseudo=read geom=check gue
 ss=(read,tcheck) scf=(maxcycle=1)
 ----------------------------------------------------------------------
 -----
 title
 -----
 Structure from the checkpoint file:  "BDE49_expt_1437_mol1.chk"
 Charge =  0 Multiplicity = 1

                         Standard orientation:
 ---------------------------------------------------------------------
 Center     Atomic      Atomic             Coordinates (Angstroms)
 Number     Number       Type             X           Y           Z
 ---------------------------------------------------------------------
      1          6           0       -1.708818    1.184748   -0.000000
      2          6           0       -0.843778    2.305111   -0.000000
      3          6           0        0.517373    2.151142   -0.000001
      4          6           0        1.088080    0.849479   -0.000001
      5          6           0        0.232603   -0.294211   -0.000000
      6          6           0       -1.185168   -0.090573   -0.000000
      7          6           0        2.491745    0.642939   -0.000001
      8          6           0        3.022110   -0.624744   -0.000001
      9          6           0        2.170624   -1.751485   -0.000000
     10          6           0        0.804923   -1.590088   -0.000000
     11          1           0        2.598182   -2.747819   -0.000000
     12          1           0        0.146176   -2.448216    0.000001
     13          1           0        3.143631    1.510306   -0.000002
     14          1           0        4.097545   -0.763827   -0.000001
     15          1           0       -1.279634    3.297979   -0.000001
     16          1           0        1.173339    3.014454   -0.000001
     17          1           0       -2.777886    1.346837    0.000001
     18          8           0       -1.929493   -1.231862    0.000001
     19          6           0       -3.344906   -1.119070    0.000002
     20          1           0       -3.704471   -0.597538   -0.893916
     21          1           0       -3.704469   -0.597537    0.893921
     22          1           0       -3.725207   -2.139238    0.000003
 ---------------------------------------------------------------------

 SCF Done:  E(RHF) =  -497.797693964     A.U. after    2 cycles

 The electronic state is 1-A.
 Alpha  occ. eigenvalues --  -20.57558 -11.31072 -11.29805 -11.25008 -11.24595
 Alpha  occ. eigenvalues --  -11.24488 -11.24304 -11.24039 -11.24002 -11.23858
 Alpha  occ. eigenvalues --  -11.23540 -11.23339  -1.50068  -1.17385  -1.10892
 Alpha  occ. eigenvalues --   -1.04963  -1.01213  -0.98606  -0.94967  -0.85664
 Alpha  occ. eigenvalues --   -0.84933  -0.80554  -0.72781  -0.72155  -0.70115
 Alpha  occ. eigenvalues --   -0.66110  -0.65963  -0.64708  -0.61085  -0.60901
 Alpha  occ. eigenvalues --   -0.58466  -0.57897  -0.54882  -0.54345  -0.52222
 Alpha  occ. eigenvalues --   -0.49723  -0.49485  -0.48415  -0.44786  -0.37304
 Alpha  occ. eigenvalues --   -0.33029  -0.28595
 Alpha virt. eigenvalues --    0.03196   0.03385   0.03695   0.04412   0.04557
 Alpha virt. eigenvalues --    0.05263   0.06617   0.07036   0.07822   0.08296
 Alpha virt. eigenvalues --    0.09580   0.09700   0.10658   0.10956   0.11602

 Mulliken charges:
               1
     1  C   -0.404776
     2  C   -0.160078
     3  C    0.004374
     4  C    1.464025
     5  C    1.960064
     6  C    1.235378
     7  C    0.289982
     8  C   -0.281600
     9  C   -0.154514
    10  C   -0.281768
    11  H   -0.232446
    12  H   -0.306250
    13  H   -0.299087
    14  H   -0.238853
    15  H   -0.253845
    16  H   -0.304206
    17  H   -0.411973
    18  O   -2.071860
    19  C    0.079770
    20  H    0.202706
    21  H    0.202707
    22  H   -0.037746
 Sum of Mulliken charges =  -0.00000

 Dipole moment (field-independent basis, Debye):
    X=             -1.3700    Y=              0.1223    Z=              0.0000  Tot=              1.3754

 Test job not archived.
 1\1\GINC-SE195\SP\RHF\Aug-CC-pVDZ\C11H10O1\OHZDE\08-Apr-2025\0\\#t hf
 aug-cc-pvdz iop(5/13=1,5/36=2,99/5=2) pseudo=read geom=check guess=(re
 ad,tcheck) scf=(maxcycle=1)\\title\\0,1\C,0,-1.708818,1.184748,0.\C,0,
 -0.843778,2.305111,0.\C,0,0.517373,2.151142,-0.000001\C,0,1.08808,0.84
 9479,-0.000001\C,0,0.232603,-0.294211,0.\C,0,-1.185168,-0.090573,0.\C,
 0,2.491745,0.642939,-0.000001\C,0,3.02211,-0.624744,-0.000001\C,0,2.17
 0624,-1.751485,0.\C,0,0.804923,-1.590088,0.\H,0,2.598182,-2.747819,0.\
 H,0,0.146176,-2.448216,0.000001\H,0,3.143631,1.510306,-0.000002\H,0,4.

 Normal termination of Gaussian 16 at Tue Apr  8 22:46:35 2025.
