 Gaussian 16, Revision C.01,

 ----------------------------------------------------------------------
 #t hf aug-cc-pvdz symm=none int=(grid=ultrafine) guess=(read,tcheck) s
 table=(opt,rrhf)
 ----------------------------------------------------------------------
 -----
 title
 -----
 Symbolic Z-matrix:
 Charge =  0 Multiplicity = 1

 SCF Done:  E(RHF) =  -785.836971065     A.U. after   14 cycles
 Normal termination of Gaussian 16 at Tue Apr  8 23:25:19 2025.
 Gaussian 16:  ES64L-G16RevC.01  3-Jul-2019

 ----------------------------------------------------------------------
 #t hf aug-cc-pvdz iop(5/13=1,5/36=2,99/5=2) pseudo=read geom=check gue
 ss=(read,tcheck) scf=(maxcycle=1)
 ----------------------------------------------------------------------
 -----
 title
 -----
 Structure from the checkpoint file:  "BDE49_nonexpt_1206_mol1.chk"
 Charge =  0 Multiplicity = 1

                         Standard orientation:
 ---------------------------------------------------------------------
 Center     Atomic      Atomic             Coordinates (Angstroms)
 Number     Number       Type             X           Y           Z
 ---------------------------------------------------------------------
      1          6           0       -2.031460   -0.752120    0.463386
      2          8           0       -1.032855   -0.992674   -0.549808
      3         16           0        0.127559   -2.156434   -0.160386
      4          6           0        1.410190   -1.145131    0.645696
      5          6           0       -3.086648    0.169432   -0.134633
      6          6           0        2.067915   -0.110568   -0.267688
      7          1           0        0.990322   -0.679617    1.542307
      8          1           0       -2.480422   -1.703870    0.765720
      9          6           0       -2.576106    1.549601   -0.576681
     10          1           0       -3.881731    0.288812    0.612549
     11          1           0       -3.534442   -0.343175   -0.992086
     12          6           0       -2.083087    2.439591    0.569079
     13          1           0       -3.389172    2.062109   -1.101928
     14          1           0       -1.776099    1.410133   -1.309225
     15          1           0       -2.867532    2.595645    1.317017
     16          1           0       -1.780466    3.422393    0.197836
     17          1           0       -1.218827    2.006851    1.080655
     18          6           0        3.108032    0.752091    0.459067
     19          1           0        1.287593    0.529513   -0.691212
     20          6           0        3.765887    1.788526   -0.456612
     21          1           0        3.880362    0.104534    0.891995
     22          1           0        2.630381    1.262778    1.304003
     23          1           0        4.284450    1.306263   -1.290765
     24          1           0        4.498355    2.391968    0.086187
     25          1           0        3.021231    2.469298   -0.880121
     26          1           0       -1.561309   -0.305628    1.347558
     27          1           0        2.535784   -0.627362   -1.112434
     28          1           0        2.135073   -1.894843    0.986889
 ---------------------------------------------------------------------

 SCF Done:  E(RHF) =  -786.320031618     A.U. after    2 cycles

 The electronic state is 1-A.
 Alpha  occ. eigenvalues --  -93.98460 -20.56532 -11.28576 -11.26675 -11.23319
 Alpha  occ. eigenvalues --  -11.23217 -11.22999 -11.22591 -11.22587 -11.22378
 Alpha  occ. eigenvalues --   -8.25903  -6.23752  -6.23506  -6.23278  -1.45459
 Alpha  occ. eigenvalues --   -1.09925  -1.07348  -1.02786  -0.97851  -0.92775
 Alpha  occ. eigenvalues --   -0.87639  -0.83278  -0.80112  -0.77879  -0.67116
 Alpha  occ. eigenvalues --   -0.66219  -0.64635  -0.61714  -0.60539  -0.60124
 Alpha  occ. eigenvalues --   -0.58597  -0.57395  -0.55688  -0.54660  -0.53184
 Alpha  occ. eigenvalues --   -0.52110  -0.50206  -0.49642  -0.48637  -0.48070
 Alpha  occ. eigenvalues --   -0.47666  -0.46656  -0.45990  -0.41159  -0.34927
 Alpha virt. eigenvalues --    0.03183   0.03300   0.03560   0.04101   0.04752
 Alpha virt. eigenvalues --    0.04963   0.05328   0.06266   0.06626   0.07309
 Alpha virt. eigenvalues --    0.07434   0.07841   0.08049   0.09389   0.09741

 Mulliken charges:
               1
     1  C    0.456463
     2  O   -1.319240
     3  S    0.877628
     4  C   -0.487756
     5  C   -0.387377
     6  C   -0.538310
     7  H    0.181715
     8  H    0.121650
     9  C   -0.290790
    10  H    0.185394
    11  H    0.128287
    12  C   -0.353283
    13  H    0.129200
    14  H    0.181197
    15  H    0.147679
    16  H    0.113780
    17  H    0.133423
    18  C   -0.219121
    19  H    0.128911
    20  C   -0.407874
    21  H    0.119569
    22  H    0.127997
    23  H    0.162641
    24  H    0.114297
    25  H    0.162060
    26  H    0.124850
    27  H    0.184431
    28  H    0.222578
 Sum of Mulliken charges =   0.00000

 Dipole moment (field-independent basis, Debye):
    X=              0.3309    Y=              1.2197    Z=              1.5186  Tot=              1.9757

 Test job not archived.
 1\1\GINC-SE460\SP\RHF\Aug-CC-pVDZ\C8H18O1S1\OHZDE\08-Apr-2025\0\\#t hf
  aug-cc-pvdz iop(5/13=1,5/36=2,99/5=2) pseudo=read geom=check guess=(r
 ead,tcheck) scf=(maxcycle=1)\\title\\0,1\C,0,-2.03146,-0.75212,0.46338
 6\O,0,-1.032855,-0.992674,-0.549808\S,0,0.127559,-2.156434,-0.160386\C
 ,0,1.41019,-1.145131,0.645696\C,0,-3.086648,0.169432,-0.134633\C,0,2.0
 67915,-0.110568,-0.267688\H,0,0.990322,-0.679617,1.542307\H,0,-2.48042
 2,-1.70387,0.76572\C,0,-2.576106,1.549601,-0.576681\H,0,-3.881731,0.28
 8812,0.612549\H,0,-3.534442,-0.343175,-0.992086\C,0,-2.083087,2.439591

 Normal termination of Gaussian 16 at Tue Apr  8 23:25:38 2025.
