 Gaussian 16, Revision C.01,

 ----------------------------------------------------------------------
 #t hf aug-cc-pvdz symm=none int=(grid=ultrafine) guess=(read,tcheck) s
 table=(opt,rrhf)
 ----------------------------------------------------------------------
 -----
 title
 -----
 Symbolic Z-matrix:
 Charge =  0 Multiplicity = 1

 SCF Done:  E(RHF) =  -685.788093651     A.U. after   17 cycles
 Normal termination of Gaussian 16 at Tue Apr  8 22:44:14 2025.
 Gaussian 16:  ES64L-G16RevC.01  3-Jul-2019

 ----------------------------------------------------------------------
 #t hf aug-cc-pvdz iop(5/13=1,5/36=2,99/5=2) pseudo=read geom=check gue
 ss=(read,tcheck) scf=(maxcycle=1)
 ----------------------------------------------------------------------
 -----
 title
 -----
 Structure from the checkpoint file:  "BDE49_expt_1106_mol1.chk"
 Charge =  0 Multiplicity = 1

                         Standard orientation:
 ---------------------------------------------------------------------
 Center     Atomic      Atomic             Coordinates (Angstroms)
 Number     Number       Type             X           Y           Z
 ---------------------------------------------------------------------
      1          6           0       -0.561076   -0.530131    0.723163
      2          6           0        0.561075    0.530140    0.723158
      3          8           0       -0.317265   -1.614107    1.219460
      4          8           0        0.317272    1.614113    1.219466
      5          6           0       -1.905324   -0.174361    0.191162
      6          6           0        1.905323    0.174365    0.191161
      7          6           0       -2.187880    1.059639   -0.411106
      8          6           0       -3.458066    1.310491   -0.921376
      9          6           0       -4.452934    0.339192   -0.833130
     10          6           0       -4.178992   -0.891304   -0.232803
     11          6           0       -2.913310   -1.146861    0.274645
     12          6           0        2.187874   -1.059637   -0.411107
     13          6           0        2.913313    1.146860    0.274645
     14          6           0        3.458060   -1.310495   -0.921375
     15          6           0        4.452932   -0.339200   -0.833127
     16          6           0        4.178995    0.891297   -0.232801
     17          1           0        4.953518    1.646464   -0.163331
     18          1           0        2.676148    2.094670    0.742045
     19          1           0        1.426775   -1.825805   -0.463942
     20          1           0        3.672588   -2.267096   -1.383515
     21          1           0        5.441792   -0.539776   -1.230285
     22          1           0       -4.953512   -1.646474   -0.163334
     23          1           0       -2.676141   -2.094669    0.742046
     24          1           0       -1.426784    1.825811   -0.463940
     25          1           0       -3.672598    2.267091   -1.383517
     26          1           0       -5.441794    0.539763   -1.230289
 ---------------------------------------------------------------------

 SCF Done:  E(RHF) =  -686.473794663     A.U. after    2 cycles

 The electronic state is 1-A.
 Alpha  occ. eigenvalues --  -20.55707 -20.55704 -11.36232 -11.36186 -11.26541
 Alpha  occ. eigenvalues --  -11.26539 -11.26497 -11.26495 -11.26250 -11.26248
 Alpha  occ. eigenvalues --  -11.26115 -11.26115 -11.25515 -11.25514 -11.25495
 Alpha  occ. eigenvalues --  -11.25494  -1.49745  -1.48130  -1.17357  -1.17342
 Alpha  occ. eigenvalues --   -1.05940  -1.05055  -1.03443  -1.03308  -0.94833
 Alpha  occ. eigenvalues --   -0.88545  -0.85907  -0.84957  -0.82712  -0.77535
 Alpha  occ. eigenvalues --   -0.74148  -0.71271  -0.69656  -0.67521  -0.66166
 Alpha  occ. eigenvalues --   -0.65415  -0.63974  -0.63357  -0.62713  -0.61635
 Alpha  occ. eigenvalues --   -0.61556  -0.57618  -0.55268  -0.54144  -0.54047
 Alpha  occ. eigenvalues --   -0.52104  -0.52045  -0.51338  -0.50165  -0.49363
 Alpha  occ. eigenvalues --   -0.40532  -0.36344  -0.36015  -0.35992  -0.35937
 Alpha virt. eigenvalues --    0.02909   0.03161   0.03481   0.03668   0.03937
 Alpha virt. eigenvalues --    0.04235   0.05302   0.05872   0.06111   0.06791
 Alpha virt. eigenvalues --    0.07078   0.08387   0.09275   0.09672   0.09989

 Mulliken charges:
               1
     1  C    0.495961
     2  C    0.495989
     3  O   -1.671196
     4  O   -1.671193
     5  C    2.131393
     6  C    2.131377
     7  C    0.352101
     8  C    0.047515
     9  C    0.044419
    10  C    0.390721
    11  C   -0.493429
    12  C    0.352114
    13  C   -0.493418
    14  C    0.047504
    15  C    0.044427
    16  C    0.390721
    17  H   -0.219421
    18  H   -0.328675
    19  H   -0.293103
    20  H   -0.241731
    21  H   -0.214571
    22  H   -0.219421
    23  H   -0.328677
    24  H   -0.293104
    25  H   -0.241730
    26  H   -0.214572
 Sum of Mulliken charges =  -0.00000

 Dipole moment (field-independent basis, Debye):
    X=             -0.0000    Y=             -0.0000    Z=             -2.8846  Tot=              2.8846

 Test job not archived.
 1\1\GINC-SE099\SP\RHF\Aug-CC-pVDZ\C14H10O2\OHZDE\08-Apr-2025\0\\#t hf
 aug-cc-pvdz iop(5/13=1,5/36=2,99/5=2) pseudo=read geom=check guess=(re
 ad,tcheck) scf=(maxcycle=1)\\title\\0,1\C,0,-0.561076,-0.530131,0.7231
 63\C,0,0.561075,0.53014,0.723158\O,0,-0.317265,-1.614107,1.21946\O,0,0
 .317272,1.614113,1.219466\C,0,-1.905324,-0.174361,0.191162\C,0,1.90532
 3,0.174365,0.191161\C,0,-2.18788,1.059639,-0.411106\C,0,-3.458066,1.31
 0491,-0.921376\C,0,-4.452934,0.339192,-0.83313\C,0,-4.178992,-0.891304
 ,-0.232803\C,0,-2.91331,-1.146861,0.274645\C,0,2.187874,-1.059637,-0.4

 Normal termination of Gaussian 16 at Tue Apr  8 22:44:44 2025.
