 Gaussian 16, Revision C.01,

 ----------------------------------------------------------------------
 #t hf aug-cc-pvdz symm=none int=(grid=ultrafine) guess=(read,tcheck) s
 table=(opt,rrhf)
 ----------------------------------------------------------------------
 -----
 title
 -----
 Symbolic Z-matrix:
 Charge =  0 Multiplicity = 1

 SCF Done:  E(RHF) =  -408.165852642     A.U. after   13 cycles
 Normal termination of Gaussian 16 at Tue Apr  8 23:37:50 2025.
 Gaussian 16:  ES64L-G16RevC.01  3-Jul-2019

 ----------------------------------------------------------------------
 #t hf aug-cc-pvdz iop(5/13=1,5/36=2,99/5=2) pseudo=read geom=check gue
 ss=(read,tcheck) scf=(maxcycle=1)
 ----------------------------------------------------------------------
 -----
 title
 -----
 Structure from the checkpoint file:  "BDE49_nonexpt_149_mol1.chk"
 Charge =  0 Multiplicity = 1

                         Standard orientation:
 ---------------------------------------------------------------------
 Center     Atomic      Atomic             Coordinates (Angstroms)
 Number     Number       Type             X           Y           Z
 ---------------------------------------------------------------------
      1          5           0        0.705919   -1.281489   -0.386278
      2          5           0       -0.705932   -1.281483    0.386162
      3          5           0       -2.107505   -0.424520   -0.028690
      4          8           0       -2.445258    0.802834    0.451409
      5          6           0       -3.120287   -1.075338   -1.055468
      6          1           0       -3.276570   -2.144623   -0.879466
      7          1           0       -2.714222   -0.994290   -2.072279
      8          1           0       -4.091116   -0.571160   -1.041913
      9          6           0       -1.655211    1.522060    1.392592
     10          1           0       -2.133101    1.481190    2.374697
     11          1           0       -1.599526    2.564666    1.073181
     12          1           0       -0.640129    1.117774    1.470234
     13          5           0        2.107479   -0.424546    0.028710
     14          8           0        2.445261    0.802808   -0.451370
     15          6           0        3.120213   -1.075382    1.055523
     16          1           0        2.713651   -0.995491    2.072220
     17          1           0        4.090710   -0.570546    1.042774
     18          1           0        3.277310   -2.144417    0.878693
     19          6           0        1.655304    1.522075   -1.392590
     20          1           0        2.133953    1.482264   -2.374366
     21          1           0        1.598543    2.564420   -1.072506
     22          1           0        0.640604    1.117028   -1.471269
     23          1           0       -0.817363   -2.026157    1.326534
     24          1           0        0.817311   -2.026092   -1.326706
 ---------------------------------------------------------------------

 SCF Done:  E(RHF) =  -408.591991327     A.U. after    2 cycles

 The electronic state is 1-A.
 Alpha  occ. eigenvalues --  -20.54966 -20.54964 -11.29560 -11.29556 -11.19711
 Alpha  occ. eigenvalues --  -11.19709  -7.59251  -7.59226  -7.55625  -7.55611
 Alpha  occ. eigenvalues --   -1.46092  -1.46063  -0.96830  -0.96726  -0.92534
 Alpha  occ. eigenvalues --   -0.92531  -0.77677  -0.72394  -0.69852  -0.65114
 Alpha  occ. eigenvalues --   -0.64062  -0.63736  -0.63556  -0.61700  -0.55606
 Alpha  occ. eigenvalues --   -0.55590  -0.54754  -0.53964  -0.51619  -0.51502
 Alpha  occ. eigenvalues --   -0.50831  -0.50829  -0.47247  -0.46593  -0.44461
 Alpha  occ. eigenvalues --   -0.40304  -0.38406
 Alpha virt. eigenvalues --    0.02766   0.02916   0.03173   0.03408   0.05273
 Alpha virt. eigenvalues --    0.05334   0.05340   0.05629   0.05889   0.07298
 Alpha virt. eigenvalues --    0.07463   0.07693   0.07966   0.08156   0.08413

 Mulliken charges:
               1
     1  B   -0.678738
     2  B   -0.678785
     3  B    1.893461
     4  O   -1.549718
     5  C   -0.596675
     6  H    0.029638
     7  H    0.096980
     8  H   -0.131167
     9  C    0.466438
    10  H    0.127042
    11  H    0.070165
    12  H    0.060484
    13  B    1.893270
    14  O   -1.549670
    15  C   -0.596610
    16  H    0.096985
    17  H   -0.131240
    18  H    0.029836
    19  C    0.466404
    20  H    0.126815
    21  H    0.070338
    22  H    0.060572
    23  H    0.212098
    24  H    0.212079
 Sum of Mulliken charges =   0.00000

 Dipole moment (field-independent basis, Debye):
    X=              0.0001    Y=              0.8335    Z=             -0.0001  Tot=              0.8335

 Test job not archived.
 1\1\GINC-SE364\SP\RHF\Aug-CC-pVDZ\C4H14B4O2\OHZDE\08-Apr-2025\0\\#t hf
  aug-cc-pvdz iop(5/13=1,5/36=2,99/5=2) pseudo=read geom=check guess=(r
 ead,tcheck) scf=(maxcycle=1)\\title\\0,1\B,0,0.705919,1.281489,0.38627
 8\B,0,-0.705932,1.281483,-0.386162\B,0,-2.107505,0.42452,0.02869\O,0,-
 2.445258,-0.802834,-0.451409\C,0,-3.120287,1.075338,1.055468\H,0,-3.27
 657,2.144623,0.879466\H,0,-2.714222,0.99429,2.072279\H,0,-4.091116,0.5
 7116,1.041913\C,0,-1.655211,-1.52206,-1.392592\H,0,-2.133101,-1.48119,
 -2.374697\H,0,-1.599526,-2.564666,-1.073181\H,0,-0.640129,-1.117774,-1

 Normal termination of Gaussian 16 at Tue Apr  8 23:38:03 2025.
