 Gaussian 16, Revision C.01,

 ----------------------------------------------------------------------
 #t hf aug-cc-pvdz symm=none int=(grid=ultrafine) guess=(read,tcheck) s
 table=opt
 ----------------------------------------------------------------------
 -----
 title
 -----
 Symbolic Z-matrix:
 Charge =  0 Multiplicity = 2

 SCF Done:  E(UHF) =  -474.979861732     A.U. after   17 cycles
 Normal termination of Gaussian 16 at Tue Apr  8 23:31:09 2025.
 Gaussian 16:  ES64L-G16RevC.01  3-Jul-2019

 ----------------------------------------------------------------------
 #t hf aug-cc-pvdz iop(5/13=1,5/36=2,99/5=2) pseudo=read geom=check gue
 ss=(read,tcheck) scf=(maxcycle=1)
 ----------------------------------------------------------------------
 -----
 title
 -----
 Structure from the checkpoint file:  "BDE49_nonexpt_1397_mol2.chk"
 Charge =  0 Multiplicity = 2

                         Standard orientation:
 ---------------------------------------------------------------------
 Center     Atomic      Atomic             Coordinates (Angstroms)
 Number     Number       Type             X           Y           Z
 ---------------------------------------------------------------------
      1          6           0        1.093322    1.220245    0.010848
      2          7           0        0.294868    0.007895   -0.046617
      3          1           0        1.623265    1.302430    0.970256
      4          1           0        0.458610    2.096521   -0.108873
      5          1           0        1.843899    1.222810   -0.789664
      6         15           0       -1.407998   -0.086584    0.008707
      7          6           0        1.064214   -1.225871    0.006280
      8          1           0        1.773410   -1.275550   -0.829136
      9          1           0        0.397866   -2.086970   -0.058880
     10          1           0        1.633560   -1.300442    0.942551
     11          1           0       -1.619930    1.318446   -0.033316
 ---------------------------------------------------------------------

 SCF Done:  E(UHF) =  -475.164991468     A.U. after    2 cycles

 The electronic state is 2-A.
 Alpha  occ. eigenvalues --  -84.28162 -15.51274 -11.26914 -11.26786  -6.75006
 Alpha  occ. eigenvalues --   -4.27662  -4.27229  -4.26773  -1.23182  -0.97634
 Alpha  occ. eigenvalues --   -0.92155  -0.79106  -0.66575  -0.65626  -0.62712
 Alpha  occ. eigenvalues --   -0.56296  -0.54565  -0.52461  -0.45568  -0.39719
 Alpha  occ. eigenvalues --   -0.27366
 Alpha virt. eigenvalues --    0.03527   0.04832   0.05210   0.05470   0.06357
 Alpha virt. eigenvalues --    0.07083   0.07365   0.09337   0.11103   0.12098
 Alpha virt. eigenvalues --    0.13399   0.14965   0.15794   0.15943   0.16311

  Beta  occ. eigenvalues --  -84.27620 -15.50150 -11.27000 -11.26872  -6.74322
  Beta  occ. eigenvalues --   -4.27340  -4.26488  -4.24456  -1.20860  -0.97609
  Beta  occ. eigenvalues --   -0.90633  -0.76145  -0.65160  -0.63737  -0.61151
  Beta  occ. eigenvalues --   -0.56190  -0.54473  -0.51808  -0.38674  -0.37227
  Beta virt. eigenvalues --    0.03577   0.04752   0.04845   0.05510   0.06396
  Beta virt. eigenvalues --    0.06515   0.07138   0.07399   0.09542   0.12129
  Beta virt. eigenvalues --    0.13571   0.14999   0.15530   0.15990   0.16253

 Mulliken charges and spin densities:
               1          2
     1  C   -0.526154  -0.036253
     2  N    0.325688   0.054454
     3  H    0.203272   0.006604
     4  H   -0.001479  -0.006108
     5  H    0.175850   0.005231
     6  P   -0.033171   1.125981
     7  C   -0.560824  -0.032226
     8  H    0.178464   0.004548
     9  H   -0.004254  -0.005820
    10  H    0.198093   0.005223
    11  H    0.044514  -0.121634
 Sum of Mulliken charges =  -0.00000   1.00000

 Dipole moment (field-independent basis, Debye):
    X=              1.4960    Y=              0.3885    Z=              0.0577  Tot=              1.5467
                          Isotropic Fermi Contact Couplings
        Atom                 a.u.       MegaHertz       Gauss      10(-4) cm-1
     1  C(13)             -0.01347     -15.14543      -5.40427      -5.05197
     2  N(14)              0.13438      43.41740      15.49241      14.48249
     3  H(1)               0.00300      13.42357       4.78986       4.47762
     4  H(1)               0.00052       2.33928       0.83471       0.78030
     5  H(1)               0.00179       7.98171       2.84807       2.66241
     6  P(31)              0.16969     307.32290     109.66045     102.51188
     7  C(13)             -0.01403     -15.76800      -5.62642      -5.25964
     8  H(1)               0.00168       7.49408       2.67407       2.49976

 Normal termination of Gaussian 16 at Tue Apr  8 23:31:12 2025.
