 Gaussian 16, Revision C.01,

 ----------------------------------------------------------------------
 #t hf aug-cc-pvdz symm=none int=(grid=ultrafine) guess=(read,tcheck) s
 table=opt
 ----------------------------------------------------------------------
 -----
 title
 -----
 Symbolic Z-matrix:
 Charge =  0 Multiplicity = 2

 SCF Done:  E(UHF) =  -663.803219463     A.U. after   22 cycles
 Normal termination of Gaussian 16 at Tue Apr  8 22:53:54 2025.
 Gaussian 16:  ES64L-G16RevC.01  3-Jul-2019

 ----------------------------------------------------------------------
 #t hf aug-cc-pvdz iop(5/13=1,5/36=2,99/5=2) pseudo=read geom=check gue
 ss=(read,tcheck) scf=(maxcycle=1)
 ----------------------------------------------------------------------
 -----
 title
 -----
 Structure from the checkpoint file:  "BDE49_expt_1818_mol2.chk"
 Charge =  0 Multiplicity = 2

                         Standard orientation:
 ---------------------------------------------------------------------
 Center     Atomic      Atomic             Coordinates (Angstroms)
 Number     Number       Type             X           Y           Z
 ---------------------------------------------------------------------
      1         16           0        2.067143    0.244932   -0.434759
      2          6           0        0.947976   -0.637752    0.652347
      3          8           0       -0.353480   -0.895607    0.114405
      4          1           0        0.868294   -0.080098    1.587695
      5          1           0        1.381038   -1.620728    0.847597
      6          6           0       -1.207096    0.166618    0.101475
      7          8           0       -0.908624    1.251954    0.525369
      8          6           0       -2.525189   -0.216032   -0.515208
      9          1           0       -2.379732   -0.409878   -1.581012
     10          1           0       -3.235511    0.597472   -0.384983
     11          1           0       -2.905684   -1.133457   -0.063022
 ---------------------------------------------------------------------

 SCF Done:  E(UHF) =  -664.123002248     A.U. after    2 cycles

 The electronic state is 2-A.
 Alpha  occ. eigenvalues --  -93.97744 -20.60264 -20.54560 -11.40075 -11.34237
 Alpha  occ. eigenvalues --  -11.25933  -8.25847  -6.25023  -6.23256  -6.22938
 Alpha  occ. eigenvalues --   -1.55471  -1.46303  -1.09202  -1.02722  -0.90612
 Alpha  occ. eigenvalues --   -0.78827  -0.71891  -0.69983  -0.66660  -0.62466
 Alpha  occ. eigenvalues --   -0.59187  -0.58014  -0.55463  -0.52209  -0.46235
 Alpha  occ. eigenvalues --   -0.45980  -0.43965  -0.39658
 Alpha virt. eigenvalues --    0.03388   0.04164   0.05053   0.05547   0.06388
 Alpha virt. eigenvalues --    0.07569   0.09258   0.11877   0.12597   0.12747
 Alpha virt. eigenvalues --    0.14206   0.14324   0.15090   0.15747   0.15912

  Beta  occ. eigenvalues --  -93.96834 -20.60283 -20.54538 -11.40079 -11.34373
  Beta  occ. eigenvalues --  -11.25932  -8.24802  -6.22728  -6.22387  -6.20989
  Beta  occ. eigenvalues --   -1.55484  -1.46277  -1.06746  -1.00636  -0.86649
  Beta  occ. eigenvalues --   -0.77778  -0.71506  -0.69888  -0.66098  -0.61479
  Beta  occ. eigenvalues --   -0.58769  -0.57814  -0.54725  -0.51546  -0.45798
  Beta  occ. eigenvalues --   -0.45229  -0.37406
  Beta virt. eigenvalues --    0.00488   0.03419   0.04222   0.05161   0.05563
  Beta virt. eigenvalues --    0.06448   0.07712   0.09287   0.12038   0.12635
  Beta virt. eigenvalues --    0.13822   0.14330   0.14547   0.15256   0.15924

 Mulliken charges and spin densities:
               1          2
     1  S    0.263857   1.094209
     2  C   -0.062012  -0.116606
     3  O   -1.178335  -0.001289
     4  H    0.292932   0.016638
     5  H    0.041197   0.014994
     6  C    1.756051  -0.012073
     7  O   -1.139310   0.003041
     8  C   -0.630262   0.000781
     9  H    0.246740   0.000404
    10  H    0.197414  -0.000125
    11  H    0.211728   0.000026
 Sum of Mulliken charges =  -0.00000   1.00000

 Dipole moment (field-independent basis, Debye):
    X=             -1.2325    Y=             -2.3542    Z=              0.1821  Tot=              2.6635
                          Isotropic Fermi Contact Couplings
        Atom                 a.u.       MegaHertz       Gauss      10(-4) cm-1
     1  S(33)              0.19257      66.14117      23.60081      22.06232
     2  C(13)             -0.02816     -31.66265     -11.29802     -10.56152
     3  O(17)             -0.00387       2.34658       0.83732       0.78273
     4  H(1)               0.01041      46.52057      16.59970      15.51759
     5  H(1)               0.01290      57.66056      20.57472      19.23349
     6  C(13)             -0.00053      -0.60121      -0.21452      -0.20054
     7  O(17)              0.00274      -1.66342      -0.59355      -0.55486
     8  C(13)              0.00021       0.23373       0.08340       0.07796

 Normal termination of Gaussian 16 at Tue Apr  8 22:54:00 2025.
