 Gaussian 16, Revision C.01,

 ----------------------------------------------------------------------
 #t hf aug-cc-pvdz symm=none int=(grid=ultrafine) guess=(read,tcheck) s
 table=(opt,rrhf)
 ----------------------------------------------------------------------
 -----
 title
 -----
 Symbolic Z-matrix:
 Charge =  0 Multiplicity = 1

 SCF Done:  E(RHF) =  -734.564222098     A.U. after   14 cycles
 Normal termination of Gaussian 16 at Wed Apr  9 00:32:57 2025.
 Gaussian 16:  ES64L-G16RevC.01  3-Jul-2019

 ----------------------------------------------------------------------
 #t hf aug-cc-pvdz iop(5/13=1,5/36=2,99/5=2) pseudo=read geom=check gue
 ss=(read,tcheck) scf=(maxcycle=1)
 ----------------------------------------------------------------------
 -----
 title
 -----
 Structure from the checkpoint file:  "BDE49_nonexpt_396_mol1.chk"
 Charge =  0 Multiplicity = 1

                         Standard orientation:
 ---------------------------------------------------------------------
 Center     Atomic      Atomic             Coordinates (Angstroms)
 Number     Number       Type             X           Y           Z
 ---------------------------------------------------------------------
      1          9           0       -0.292413   -1.870107   -0.000000
      2          9           0       -2.175088   -0.611763   -0.000000
      3          5           0       -0.866573   -0.679860   -0.000000
      4          6           0        0.000000    0.669471    0.000000
      5          8           0       -0.524944    1.753737   -0.000000
      6         16           0        1.805119    0.531286    0.000000
      7          1           0        1.858021   -0.811167    0.000000
 ---------------------------------------------------------------------

 SCF Done:  E(RHF) =  -734.932657525     A.U. after    2 cycles

 The electronic state is 1-A'.
 Alpha  occ. eigenvalues --  -93.99295 -26.52067 -26.51202 -20.58779 -11.39153
 Alpha  occ. eigenvalues --   -8.27479  -7.76843  -6.25287  -6.25158  -6.24946
 Alpha  occ. eigenvalues --   -1.66978  -1.63042  -1.51858  -1.07877  -0.88410
 Alpha  occ. eigenvalues --   -0.82124  -0.78287  -0.74804  -0.73088  -0.66862
 Alpha  occ. eigenvalues --   -0.66739  -0.65788  -0.64437  -0.58357  -0.54347
 Alpha  occ. eigenvalues --   -0.43281  -0.41274
 Alpha virt. eigenvalues --    0.03211   0.03789   0.04886   0.05107   0.05395
 Alpha virt. eigenvalues --    0.07161   0.09686   0.11452   0.12799   0.13542
 Alpha virt. eigenvalues --    0.14702   0.16194   0.17659   0.18398   0.21241

 Mulliken charges:
               1
     1  F   -0.604316
     2  F   -0.667510
     3  B    1.581388
     4  C    0.381299
     5  O   -0.990675
     6  S   -0.037364
     7  H    0.337178
 Sum of Mulliken charges =  -0.00000

 Dipole moment (field-independent basis, Debye):
    X=              0.9865    Y=             -2.2530    Z=              0.0000  Tot=              2.4595

 Test job not archived.
 1\1\GINC-SE367\SP\RHF\Aug-CC-pVDZ\C1H1B1F2O1S1\OHZDE\09-Apr-2025\0\\#t
  hf aug-cc-pvdz iop(5/13=1,5/36=2,99/5=2) pseudo=read geom=check guess
 =(read,tcheck) scf=(maxcycle=1)\\title\\0,1\F,0,-0.292413,-1.870107,0.
 \F,0,-2.175088,-0.611763,0.\B,0,-0.866573,-0.67986,0.\C,0,0.,0.669471,
 0.\O,0,-0.524944,1.753737,0.\S,0,1.805119,0.531286,0.\H,0,1.858021,-0.
 811167,0.\\Version=ES64L-G16RevC.01\State=1-A'\HF=-734.9326575\RMSD=6.
 235e-03\Dipole=0.3881041,-0.8864045,0.\Quadrupole=0.1983681,-2.4085373
 ,2.2101692,-0.415839,0.,0.\PG=CS [SG(C1H1B1F2O1S1)]\\@

 Normal termination of Gaussian 16 at Wed Apr  9 00:32:59 2025.
