 Gaussian 16, Revision C.01,

 ----------------------------------------------------------------------
 #t hf aug-cc-pvdz symm=none int=(grid=ultrafine) guess=(read,tcheck) s
 table=opt
 ----------------------------------------------------------------------
 -----
 title
 -----
 Symbolic Z-matrix:
 Charge =  0 Multiplicity = 2

 SCF Done:  E(UHF) =  -721.515388871     A.U. after   17 cycles
 Normal termination of Gaussian 16 at Tue Apr  8 23:45:15 2025.
 Gaussian 16:  ES64L-G16RevC.01  3-Jul-2019

 ----------------------------------------------------------------------
 #t hf aug-cc-pvdz iop(5/13=1,5/36=2,99/5=2) pseudo=read geom=check gue
 ss=(read,tcheck) scf=(maxcycle=1)
 ----------------------------------------------------------------------
 -----
 title
 -----
 Structure from the checkpoint file:  "BDE49_nonexpt_175_mol2.chk"
 Charge =  0 Multiplicity = 2

                         Standard orientation:
 ---------------------------------------------------------------------
 Center     Atomic      Atomic             Coordinates (Angstroms)
 Number     Number       Type             X           Y           Z
 ---------------------------------------------------------------------
      1         17           0       -1.929686   -0.025580   -0.020243
      2          5           0       -0.382339   -0.771845   -0.092015
      3          6           0        0.972553   -0.062646    0.335492
      4          9           0        1.022248    1.238242   -0.117696
      5          9           0        2.066492   -0.715104   -0.175342
      6          1           0        1.082370   -0.038270    1.428593
 ---------------------------------------------------------------------

 SCF Done:  E(UHF) =  -721.829638148     A.U. after    2 cycles

 The electronic state is 2-A.
 Alpha  occ. eigenvalues -- -105.60345 -26.48475 -26.48352 -11.42046 -10.65387
 Alpha  occ. eigenvalues --   -7.82305  -7.81995  -7.81929  -7.70962  -1.64347
 Alpha  occ. eigenvalues --   -1.57840  -1.11756  -0.97345  -0.78665  -0.76630
 Alpha  occ. eigenvalues --   -0.74305  -0.67162  -0.64717  -0.60926  -0.60703
 Alpha  occ. eigenvalues --   -0.54614  -0.52774  -0.52320  -0.38221
 Alpha virt. eigenvalues --    0.02456   0.03554   0.04921   0.05277   0.06770
 Alpha virt. eigenvalues --    0.08874   0.11773   0.12007   0.14317   0.14948
 Alpha virt. eigenvalues --    0.16242   0.16981   0.19721   0.21761   0.23450

  Beta  occ. eigenvalues -- -105.60278 -26.48368 -26.48366 -11.41887 -10.65309
  Beta  occ. eigenvalues --   -7.82206  -7.81970  -7.81730  -7.68884  -1.64199
  Beta  occ. eigenvalues --   -1.57691  -1.10794  -0.96497  -0.77331  -0.76391
  Beta  occ. eigenvalues --   -0.73877  -0.65201  -0.64242  -0.60816  -0.60071
  Beta  occ. eigenvalues --   -0.52857  -0.52536  -0.50050
  Beta virt. eigenvalues --    0.02503   0.04038   0.04703   0.05155   0.06684
  Beta virt. eigenvalues --    0.08294   0.10354   0.11995   0.12624   0.14629
  Beta virt. eigenvalues --    0.15658   0.16306   0.17123   0.20423   0.22253

 Mulliken charges and spin densities:
               1          2
     1  Cl  -0.140157  -0.000429
     2  B    0.248162   0.989501
     3  C    1.198080   0.015072
     4  F   -0.701398   0.016413
     5  F   -0.649167  -0.016023
     6  H    0.044480  -0.004535
 Sum of Mulliken charges =  -0.00000   1.00000

 Dipole moment (field-independent basis, Debye):
    X=             -0.9660    Y=             -0.5339    Z=              1.2913  Tot=              1.6987
                          Isotropic Fermi Contact Couplings
        Atom                 a.u.       MegaHertz       Gauss      10(-4) cm-1
     1  Cl(35)             0.06461      28.32805      10.10815       9.44922
     2  B(11)              0.34010     487.82964     174.06975     162.72245
     3  C(13)              0.04022      45.21080      16.13234      15.08070
     4  F(19)              0.01643      69.12515      24.66557      23.05767
     5  F(19)              0.00139       5.85397       2.08884       1.95267
     6  H(1)              -0.00014      -0.64471      -0.23005      -0.21505
 --------------------------------------------------------
       Center         ----  Spin Dipole Couplings  ----

 1\1\GINC-SE435\SP\UHF\Aug-CC-pVDZ\C1H1B1Cl1F2(2)\OHZDE\08-Apr-2025\0\\
 #t hf aug-cc-pvdz iop(5/13=1,5/36=2,99/5=2) pseudo=read geom=check gue
 ss=(read,tcheck) scf=(maxcycle=1)\\title\\0,2\Cl,0,-1.929686,-0.02558,
 -0.020243\B,0,-0.382339,-0.771845,-0.092015\C,0,0.972553,-0.062646,0.3
 35492\F,0,1.022248,1.238242,-0.117696\F,0,2.066492,-0.715104,-0.175342
 \H,0,1.08237,-0.03827,1.428593\\Version=ES64L-G16RevC.01\State=2-A\HF=
 -721.8296381\S2=0.754935\S2-1=0.\S2A=0.750017\RMSD=3.560e-03\Dipole=-0
 .3800674,-0.210039,0.5080217\Quadrupole=-1.6900207,-1.2154005,2.905421

 Normal termination of Gaussian 16 at Tue Apr  8 23:45:17 2025.
