 Gaussian 16, Revision C.01,

 ----------------------------------------------------------------------
 #t hf aug-cc-pvdz symm=none int=(grid=ultrafine) guess=(read,tcheck) s
 table=(opt,rrhf)
 ----------------------------------------------------------------------
 -----
 title
 -----
 Symbolic Z-matrix:
 Charge =  0 Multiplicity = 1

 SCF Done:  E(RHF) =  -587.381391119     A.U. after   12 cycles
 Normal termination of Gaussian 16 at Tue Apr  8 23:13:47 2025.
 Gaussian 16:  ES64L-G16RevC.01  3-Jul-2019

 ----------------------------------------------------------------------
 #t hf aug-cc-pvdz iop(5/13=1,5/36=2,99/5=2) pseudo=read geom=check gue
 ss=(read,tcheck) scf=(maxcycle=1)
 ----------------------------------------------------------------------
 -----
 title
 -----
 Structure from the checkpoint file:  "BDE49_expt_840_mol1.chk"
 Charge =  0 Multiplicity = 1

                         Standard orientation:
 ---------------------------------------------------------------------
 Center     Atomic      Atomic             Coordinates (Angstroms)
 Number     Number       Type             X           Y           Z
 ---------------------------------------------------------------------
      1          6           0        1.570500   -0.000000   -0.109085
      2         16           0       -0.191276    0.000000    0.203807
      3          1           0        2.003400    0.902637    0.321921
      4          1           0        1.693048   -0.000000   -1.193103
      5          1           0        2.003400   -0.902638    0.321922
      6          8           0       -0.741662   -1.263928   -0.226595
      7          8           0       -0.741661    1.263928   -0.226595
      8          1           0       -0.195848    0.000000    1.568371
 ---------------------------------------------------------------------

 SCF Done:  E(RHF) =  -587.636176786     A.U. after    2 cycles

 The electronic state is 1-A.
 Alpha  occ. eigenvalues --  -94.20511 -20.54683 -20.54681 -11.30023  -8.45849
 Alpha  occ. eigenvalues --   -6.44004  -6.43765  -6.43711  -1.56747  -1.44898
 Alpha  occ. eigenvalues --   -1.07929  -0.90491  -0.73844  -0.68405  -0.67236
 Alpha  occ. eigenvalues --   -0.61922  -0.61859  -0.50607  -0.50461  -0.47406
 Alpha  occ. eigenvalues --   -0.45431
 Alpha virt. eigenvalues --    0.02677   0.03624   0.04722   0.05949   0.10088
 Alpha virt. eigenvalues --    0.10688   0.11183   0.12906   0.14019   0.15038
 Alpha virt. eigenvalues --    0.15777   0.18166   0.21232   0.21565   0.22765

 Mulliken charges:
               1
     1  C   -0.794379
     2  S    2.306566
     3  H    0.216962
     4  H    0.251162
     5  H    0.216961
     6  O   -1.306689
     7  O   -1.306689
     8  H    0.416105
 Sum of Mulliken charges =   0.00000

 Dipole moment (field-independent basis, Debye):
    X=              4.1071    Y=             -0.0000    Z=              2.1281  Tot=              4.6257

 Test job not archived.
 1\1\GINC-SE343\SP\RHF\Aug-CC-pVDZ\C1H4O2S1\OHZDE\08-Apr-2025\0\\#t hf
 aug-cc-pvdz iop(5/13=1,5/36=2,99/5=2) pseudo=read geom=check guess=(re
 ad,tcheck) scf=(maxcycle=1)\\title\\0,1\C,0,-1.5705,0.,-0.109085\S,0,0
 .191276,0.,0.203807\H,0,-2.0034,-0.902638,0.321921\H,0,-1.693048,0.,-1
 .193103\H,0,-2.0034,0.902637,0.321922\O,0,0.741662,1.263928,-0.226595\
 O,0,0.741662,-1.263928,-0.226595\H,0,0.195848,0.,1.568371\\Version=ES6
 4L-G16RevC.01\State=1-A\HF=-587.6361768\RMSD=7.264e-03\Dipole=-1.61584
 63,-0.0000001,0.837256\Quadrupole=1.7072299,-4.4699351,2.7627052,0.000

 Normal termination of Gaussian 16 at Tue Apr  8 23:13:49 2025.
