 Gaussian 16, Revision C.01,

 ----------------------------------------------------------------------
 #t hf aug-cc-pvdz symm=none int=(grid=ultrafine) guess=(read,tcheck) s
 table=(opt,rrhf)
 ----------------------------------------------------------------------
 -----
 title
 -----
 Symbolic Z-matrix:
 Charge =  0 Multiplicity = 1

 SCF Done:  E(RHF) =  -589.429862866     A.U. after   13 cycles
 Normal termination of Gaussian 16 at Tue Apr  8 22:39:27 2025.
 Gaussian 16:  ES64L-G16RevC.01  3-Jul-2019

 ----------------------------------------------------------------------
 #t hf aug-cc-pvdz iop(5/13=1,5/36=2,99/5=2) pseudo=read geom=check gue
 ss=(read,tcheck) scf=(maxcycle=1)
 ----------------------------------------------------------------------
 -----
 title
 -----
 Structure from the checkpoint file:  "BDE49_expt_1275_mol1.chk"
 Charge =  0 Multiplicity = 1

                         Standard orientation:
 ---------------------------------------------------------------------
 Center     Atomic      Atomic             Coordinates (Angstroms)
 Number     Number       Type             X           Y           Z
 ---------------------------------------------------------------------
      1          6           0        0.104572   -0.585043    0.000000
      2          7           0       -0.715545    0.662708   -0.000000
      3          9           0        1.409044   -0.349530    0.000000
      4          9           0       -0.230556   -1.264344    1.087269
      5          9           0       -0.230556   -1.264344   -1.087269
      6          9           0       -0.230556    1.376404    1.092095
      7          9           0       -0.230556    1.376404   -1.092095
 ---------------------------------------------------------------------

 SCF Done:  E(RHF) =  -589.962900837     A.U. after    2 cycles

 The electronic state is 1-A'.
 Alpha  occ. eigenvalues --  -26.55515 -26.55512 -26.55289 -26.54920 -26.54914
 Alpha  occ. eigenvalues --  -15.76609 -11.59898  -1.77691  -1.71101  -1.67195
 Alpha  occ. eigenvalues --   -1.66807  -1.62461  -1.21061  -0.98227  -0.89484
 Alpha  occ. eigenvalues --   -0.87548  -0.87498  -0.80259  -0.79714  -0.72910
 Alpha  occ. eigenvalues --   -0.72722  -0.72284  -0.70201  -0.68183  -0.67810
 Alpha  occ. eigenvalues --   -0.66586  -0.64938  -0.64587  -0.56054
 Alpha virt. eigenvalues --    0.08244   0.08764   0.09183   0.09350   0.14197
 Alpha virt. eigenvalues --    0.14344   0.15236   0.19897   0.20285   0.21099
 Alpha virt. eigenvalues --    0.21809   0.26686   0.28983   0.29999   0.30280

 Mulliken charges:
               1
     1  C    2.014870
     2  N    1.261255
     3  F   -0.672361
     4  F   -0.675677
     5  F   -0.675677
     6  F   -0.626205
     7  F   -0.626205
 Sum of Mulliken charges =  -0.00000

 Dipole moment (field-independent basis, Debye):
    X=              0.2504    Y=             -0.5097    Z=              0.0000  Tot=              0.5679

 Test job not archived.
 1\1\GINC-SE227\SP\RHF\Aug-CC-pVDZ\C1F5N1\OHZDE\08-Apr-2025\0\\#t hf au
 g-cc-pvdz iop(5/13=1,5/36=2,99/5=2) pseudo=read geom=check guess=(read
 ,tcheck) scf=(maxcycle=1)\\title\\0,1\C,0,0.104572,-0.585043,0.\N,0,-0
 .715545,0.662708,0.\F,0,1.409044,-0.34953,0.\F,0,-0.230556,-1.264344,1
 .087269\F,0,-0.230556,-1.264344,-1.087269\F,0,-0.230556,1.376404,1.092
 095\F,0,-0.230556,1.376404,-1.092095\\Version=ES64L-G16RevC.01\State=1
 -A'\HF=-589.9629008\RMSD=1.026e-02\Dipole=0.0985319,-0.2005428,0.\Quad
 rupole=-0.1431889,0.0869091,0.0562797,0.0413282,0.,0.\PG=CS [SG(C1F1N1

 Normal termination of Gaussian 16 at Tue Apr  8 22:39:30 2025.
