 Gaussian 16, Revision C.01,

 ----------------------------------------------------------------------
 #t hf aug-cc-pvdz symm=none int=(grid=ultrafine) guess=(read,tcheck) s
 table=(opt,rrhf)
 ----------------------------------------------------------------------
 -----
 title
 -----
 Symbolic Z-matrix:
 Charge =  0 Multiplicity = 1

 SCF Done:  E(RHF) =  -450.951806226     A.U. after   14 cycles
 Normal termination of Gaussian 16 at Wed Apr  9 00:32:19 2025.
 Gaussian 16:  ES64L-G16RevC.01  3-Jul-2019

 ----------------------------------------------------------------------
 #t hf aug-cc-pvdz iop(5/13=1,5/36=2,99/5=2) pseudo=read geom=check gue
 ss=(read,tcheck) scf=(maxcycle=1)
 ----------------------------------------------------------------------
 -----
 title
 -----
 Structure from the checkpoint file:  "BDE49_nonexpt_378_mol1.chk"
 Charge =  0 Multiplicity = 1

                         Standard orientation:
 ---------------------------------------------------------------------
 Center     Atomic      Atomic             Coordinates (Angstroms)
 Number     Number       Type             X           Y           Z
 ---------------------------------------------------------------------
      1          9           0       -1.560355   -1.402834    0.000282
      2          9           0       -2.195082    0.768335    0.000504
      3          5           0       -1.234048   -0.127860   -0.000569
      4          6           0        0.290295    0.361130   -0.000302
      5          8           0        0.619710    1.523015   -0.000105
      6          8           0        1.156288   -0.670467   -0.000245
      7          6           0        2.554918   -0.318094    0.000022
      8          1           0        3.093119   -1.262477    0.000032
      9          1           0        2.798248    0.266761    0.888333
     10          1           0        2.798549    0.266913   -0.888106
 ---------------------------------------------------------------------

 SCF Done:  E(RHF) =  -451.378721198     A.U. after    2 cycles

 The electronic state is 1-A.
 Alpha  occ. eigenvalues --  -26.50259 -26.49957 -20.60899 -20.56353 -11.39622
 Alpha  occ. eigenvalues --  -11.30997  -7.75367  -1.65454  -1.61518  -1.55895
 Alpha  occ. eigenvalues --   -1.46971  -1.00337  -0.86519  -0.81113  -0.77430
 Alpha  occ. eigenvalues --   -0.76325  -0.71802  -0.69662  -0.68168  -0.67096
 Alpha  occ. eigenvalues --   -0.65212  -0.64527  -0.59439  -0.56798  -0.54214
 Alpha  occ. eigenvalues --   -0.47022  -0.46013
 Alpha virt. eigenvalues --    0.03436   0.04013   0.04910   0.05533   0.06333
 Alpha virt. eigenvalues --    0.06484   0.06797   0.07284   0.12049   0.13757
 Alpha virt. eigenvalues --    0.13801   0.15312   0.15697   0.17463   0.18622

 Mulliken charges:
               1
     1  F   -0.630197
     2  F   -0.664309
     3  B    1.572840
     4  C    1.431013
     5  O   -1.037406
     6  O   -1.242562
     7  C    0.226747
     8  H    0.006794
     9  H    0.168545
    10  H    0.168534
 Sum of Mulliken charges =  -0.00000

 Dipole moment (field-independent basis, Debye):
    X=              1.7535    Y=             -1.4329    Z=             -0.0030  Tot=              2.2645

 Test job not archived.
 1\1\GINC-SE365\SP\RHF\Aug-CC-pVDZ\C2H3B1F2O2\OHZDE\09-Apr-2025\0\\#t h
 f aug-cc-pvdz iop(5/13=1,5/36=2,99/5=2) pseudo=read geom=check guess=(
 read,tcheck) scf=(maxcycle=1)\\title\\0,1\F,0,1.560355,-1.402834,-0.00
 0282\F,0,2.195082,0.768335,-0.000504\B,0,1.234048,-0.12786,0.000569\C,
 0,-0.290295,0.36113,0.000302\O,0,-0.61971,1.523015,0.000105\O,0,-1.156
 288,-0.670467,0.000245\C,0,-2.554918,-0.318094,-0.000022\H,0,-3.093119
 ,-1.262477,-0.000032\H,0,-2.798248,0.266761,-0.888333\H,0,-2.798549,0.
 266913,0.888106\\Version=ES64L-G16RevC.01\State=1-A\HF=-451.3787212\RM

 Normal termination of Gaussian 16 at Wed Apr  9 00:32:21 2025.
