 Gaussian 16, Revision C.01,

 ----------------------------------------------------------------------
 #t hf aug-cc-pvdz symm=none int=(grid=ultrafine) guess=(read,tcheck) s
 table=(opt,rrhf)
 ----------------------------------------------------------------------
 -----
 title
 -----
 Symbolic Z-matrix:
 Charge =  0 Multiplicity = 1

 SCF Done:  E(RHF) =  -967.660779728     A.U. after   17 cycles
 Normal termination of Gaussian 16 at Tue Apr  8 23:24:42 2025.
 Gaussian 16:  ES64L-G16RevC.01  3-Jul-2019

 ----------------------------------------------------------------------
 #t hf aug-cc-pvdz iop(5/13=1,5/36=2,99/5=2) pseudo=read geom=check gue
 ss=(read,tcheck) scf=(maxcycle=1)
 ----------------------------------------------------------------------
 -----
 title
 -----
 Structure from the checkpoint file:  "BDE49_nonexpt_1198_mol1.chk"
 Charge =  0 Multiplicity = 1

                         Standard orientation:
 ---------------------------------------------------------------------
 Center     Atomic      Atomic             Coordinates (Angstroms)
 Number     Number       Type             X           Y           Z
 ---------------------------------------------------------------------
      1          6           0       -3.248670    0.084729    0.434097
      2          8           0       -4.431291    0.099273    0.218213
      3         16           0       -2.274437   -0.781222   -0.815277
      4          8           0       -0.659522   -0.756877   -0.248285
      5          6           0        0.109673    0.369482   -0.475072
      6          8           0       -0.346725    1.415247   -0.847771
      7          6           0       -2.546844    0.706364    1.608785
      8          1           0       -3.298499    1.009078    2.337524
      9          1           0       -1.987715    1.581317    1.267850
     10          1           0       -1.838776    0.007537    2.057696
     11          6           0        1.540488    0.112165   -0.163633
     12          6           0        2.012569   -1.144595    0.233793
     13          6           0        3.365185   -1.319732    0.506448
     14          6           0        4.248462   -0.248082    0.384063
     15          6           0        3.780181    1.004598   -0.012856
     16          6           0        2.430391    1.186353   -0.286167
     17          1           0        1.321300   -1.971340    0.324673
     18          1           0        3.731018   -2.292731    0.812962
     19          1           0        5.302199   -0.389086    0.596820
     20          1           0        4.467713    1.836755   -0.109277
     21          1           0        2.045445    2.149171   -0.597817
 ---------------------------------------------------------------------

 SCF Done:  E(RHF) =  -968.284737263     A.U. after    2 cycles

 The electronic state is 1-A.
 Alpha  occ. eigenvalues --  -94.03007 -20.62662 -20.56240 -20.55685 -11.41500
 Alpha  occ. eigenvalues --  -11.38954 -11.27434 -11.27318 -11.27275 -11.27067
 Alpha  occ. eigenvalues --  -11.26388 -11.26371 -11.26308  -8.30496  -6.28312
 Alpha  occ. eigenvalues --   -6.28042  -6.27798  -1.55633  -1.50461  -1.47297
 Alpha  occ. eigenvalues --   -1.18339  -1.08626  -1.05350  -1.04228  -1.00642
 Alpha  occ. eigenvalues --   -0.90154  -0.86108  -0.81850  -0.76538  -0.75085
 Alpha  occ. eigenvalues --   -0.71014  -0.69575  -0.68273  -0.65980  -0.65418
 Alpha  occ. eigenvalues --   -0.64518  -0.63013  -0.62554  -0.61631  -0.58077
 Alpha  occ. eigenvalues --   -0.55418  -0.54359  -0.53700  -0.52932  -0.52814
 Alpha  occ. eigenvalues --   -0.50116  -0.46652  -0.41788  -0.39706  -0.37289
 Alpha  occ. eigenvalues --   -0.36853
 Alpha virt. eigenvalues --    0.02617   0.03192   0.03600   0.04404   0.05095
 Alpha virt. eigenvalues --    0.05149   0.06170   0.06365   0.07610   0.08246
 Alpha virt. eigenvalues --    0.08733   0.09125   0.09965   0.10402   0.11217

 Mulliken charges:
               1
     1  C    0.733722
     2  O   -1.246553
     3  S    0.868245
     4  O   -1.342555
     5  C    0.930502
     6  O   -1.337718
     7  C   -0.575791
     8  H    0.073620
     9  H    0.325623
    10  H    0.278953
    11  C    2.215860
    12  C    0.190770
    13  C    0.315683
    14  C   -0.072145
    15  C    0.421769
    16  C   -0.491614
    17  H   -0.308719
    18  H   -0.221112
    19  H   -0.209920
    20  H   -0.212047
    21  H   -0.336574
 Sum of Mulliken charges =   0.00000

 Dipole moment (field-independent basis, Debye):
    X=              4.8129    Y=             -0.6753    Z=              2.3109  Tot=              5.3815

 Test job not archived.
 1\1\GINC-SE368\SP\RHF\Aug-CC-pVDZ\C9H8O3S1\OHZDE\08-Apr-2025\0\\#t hf
 aug-cc-pvdz iop(5/13=1,5/36=2,99/5=2) pseudo=read geom=check guess=(re
 ad,tcheck) scf=(maxcycle=1)\\title\\0,1\C,0,-3.24867,0.084729,0.434097
 \O,0,-4.431291,0.099273,0.218213\S,0,-2.274437,-0.781222,-0.815277\O,0
 ,-0.659522,-0.756877,-0.248285\C,0,0.109673,0.369482,-0.475072\O,0,-0.
 346725,1.415247,-0.847771\C,0,-2.546844,0.706364,1.608785\H,0,-3.29849
 9,1.009078,2.337524\H,0,-1.987715,1.581317,1.26785\H,0,-1.838776,0.007
 537,2.057696\C,0,1.540488,0.112165,-0.163633\C,0,2.012569,-1.144595,0.

 Normal termination of Gaussian 16 at Tue Apr  8 23:24:55 2025.
