 Gaussian 16, Revision C.01,

 ----------------------------------------------------------------------
 #t hf aug-cc-pvdz symm=none int=(grid=ultrafine) guess=(read,tcheck) s
 table=opt
 ----------------------------------------------------------------------
 -----
 title
 -----
 Symbolic Z-matrix:
 Charge =  0 Multiplicity = 2

 SCF Done:  E(UHF) =  -129.270230724     A.U. after   19 cycles
 Normal termination of Gaussian 16 at Tue Apr  8 22:38:21 2025.
 Gaussian 16:  ES64L-G16RevC.01  3-Jul-2019

 ----------------------------------------------------------------------
 #t hf aug-cc-pvdz iop(5/13=1,5/36=2,99/5=2) pseudo=read geom=check gue
 ss=(read,tcheck) scf=(maxcycle=1)
 ----------------------------------------------------------------------
 -----
 title
 -----
 Structure from the checkpoint file:  "BDE49_expt_1227_mol3.chk"
 Charge =  0 Multiplicity = 2

                         Standard orientation:
 ---------------------------------------------------------------------
 Center     Atomic      Atomic             Coordinates (Angstroms)
 Number     Number       Type             X           Y           Z
 ---------------------------------------------------------------------
      1          7           0        0.000000    0.000000   -0.612432
      2          8           0        0.000000    0.000000    0.535878
 ---------------------------------------------------------------------

 SCF Done:  E(UHF) =  -129.384757826     A.U. after    2 cycles

 Unable to determine electronic state:  an orbital has unidentified symmetry.
 Alpha  occ. eigenvalues --  -20.68829 -15.67770  -1.69989  -1.00197  -0.81526
 Alpha  occ. eigenvalues --   -0.73486  -0.67322  -0.45058
 Alpha virt. eigenvalues --    0.05422   0.10188   0.14425   0.15617   0.16065
 Alpha virt. eigenvalues --    0.21314   0.22879   0.24465   0.39070   0.59278
 Alpha virt. eigenvalues --    0.61787   0.61876   0.79803   0.81234   0.84900

  Beta  occ. eigenvalues --  -20.67930 -15.64225  -1.66569  -0.91003  -0.68826
  Beta  occ. eigenvalues --   -0.67321  -0.62653
  Beta virt. eigenvalues --    0.07040   0.10315   0.10460   0.14802   0.17092
  Beta virt. eigenvalues --    0.18463   0.21464   0.24217   0.25668   0.39318
  Beta virt. eigenvalues --    0.62265   0.63777   0.63927   0.81542   0.83397

 Mulliken charges and spin densities:
               1          2
     1  N    0.746625   0.941521
     2  O   -0.746625   0.058479
 Sum of Mulliken charges =   0.00000   1.00000

 Dipole moment (field-independent basis, Debye):
    X=             -0.0000    Y=             -0.0000    Z=              0.2887  Tot=              0.2887
                          Isotropic Fermi Contact Couplings
        Atom                 a.u.       MegaHertz       Gauss      10(-4) cm-1
     1  N(14)              0.23007      74.33553      26.52477      24.79566
     2  O(17)              0.07238     -43.87638     -15.65618     -14.63558
 --------------------------------------------------------
       Center         ----  Spin Dipole Couplings  ----
                      3XX-RR        3YY-RR        3ZZ-RR
 --------------------------------------------------------
     1   Atom       -0.562942      1.864282     -1.301340
     2   Atom       -1.286402      1.780166     -0.493764

 Normal termination of Gaussian 16 at Tue Apr  8 22:38:22 2025.
