 Gaussian 16, Revision C.01,

 ----------------------------------------------------------------------
 #t hf aug-cc-pvdz symm=none int=(grid=ultrafine) guess=(read,tcheck) s
 table=opt
 ----------------------------------------------------------------------
 -----
 title
 -----
 Symbolic Z-matrix:
 Charge =  0 Multiplicity = 2

 SCF Done:  E(UHF) =  -536.527295977     A.U. after   19 cycles
 Normal termination of Gaussian 16 at Wed Apr  9 00:12:11 2025.
 Gaussian 16:  ES64L-G16RevC.01  3-Jul-2019

 ----------------------------------------------------------------------
 #t hf aug-cc-pvdz iop(5/13=1,5/36=2,99/5=2) pseudo=read geom=check gue
 ss=(read,tcheck) scf=(maxcycle=1)
 ----------------------------------------------------------------------
 -----
 title
 -----
 Structure from the checkpoint file:  "BDE49_nonexpt_2389_mol2.chk"
 Charge =  0 Multiplicity = 2

                         Standard orientation:
 ---------------------------------------------------------------------
 Center     Atomic      Atomic             Coordinates (Angstroms)
 Number     Number       Type             X           Y           Z
 ---------------------------------------------------------------------
      1         14           0        1.794279   -0.349306   -0.057068
      2          7           0        0.197580    0.432964   -0.013382
      3          1           0        2.735036    0.807514   -0.046261
      4          1           0        2.022640   -1.184214    1.146995
      5          6           0       -0.830903   -0.482759   -0.017807
      6          8           0       -0.554950   -1.675371   -0.079852
      7          6           0       -2.259088    0.012468    0.053429
      8          1           0       -2.420159    0.641380    0.933019
      9          1           0       -2.917754   -0.851968    0.097932
     10          1           0       -2.508885    0.609824   -0.828276
     11          6           0       -0.032853    1.878677    0.000254
     12          1           0        0.924088    2.388869   -0.103351
     13          1           0       -0.485468    2.206013    0.942066
     14          1           0       -0.675801    2.194774   -0.825949
 ---------------------------------------------------------------------

 SCF Done:  E(UHF) =  -536.809992119     A.U. after    2 cycles

 The electronic state is 2-A.
 Alpha  occ. eigenvalues --  -69.55623 -20.51675 -15.51647 -11.36415 -11.28553
 Alpha  occ. eigenvalues --  -11.25387  -6.22385  -3.98229  -3.97465  -3.97362
 Alpha  occ. eigenvalues --   -1.46543  -1.23040  -1.01864  -0.97104  -0.81579
 Alpha  occ. eigenvalues --   -0.72201  -0.69487  -0.66499  -0.64369  -0.59517
 Alpha  occ. eigenvalues --   -0.58772  -0.57563  -0.54389  -0.53747  -0.48934
 Alpha  occ. eigenvalues --   -0.43994  -0.42192  -0.33090
 Alpha virt. eigenvalues --    0.02976   0.04184   0.04539   0.04858   0.05795
 Alpha virt. eigenvalues --    0.06085   0.06638   0.06996   0.07861   0.09228
 Alpha virt. eigenvalues --    0.10803   0.11986   0.12839   0.13778   0.14384

  Beta  occ. eigenvalues --  -69.55046 -20.51619 -15.51471 -11.36403 -11.28548
  Beta  occ. eigenvalues --  -11.25389  -6.21474  -3.97081  -3.96992  -3.96142
  Beta  occ. eigenvalues --   -1.46409  -1.22571  -1.01795  -0.96967  -0.80263
  Beta  occ. eigenvalues --   -0.70980  -0.69285  -0.65958  -0.62560  -0.59469
  Beta  occ. eigenvalues --   -0.58556  -0.57521  -0.53673  -0.53192  -0.47744
  Beta  occ. eigenvalues --   -0.42842  -0.41561
  Beta virt. eigenvalues --    0.03001   0.03180   0.04199   0.04811   0.05048
  Beta virt. eigenvalues --    0.05913   0.06601   0.06775   0.07143   0.09263
  Beta virt. eigenvalues --    0.09496   0.10984   0.12097   0.13062   0.13933

 Mulliken charges and spin densities:
               1          2
     1  Si   0.457720   0.961421
     2  N    0.490985  -0.091561
     3  H   -0.120808   0.032445
     4  H   -0.037192   0.058847
     5  C    0.389365   0.042215
     6  O   -1.254434   0.004220
     7  C   -0.511350  -0.001357
     8  H    0.299022  -0.000414
     9  H    0.054269  -0.000027
    10  H    0.301675   0.001251
    11  C   -0.445505  -0.005194
    12  H   -0.040570  -0.005434
    13  H    0.205305   0.003403
    14  H    0.211519   0.000185
 Sum of Mulliken charges =  -0.00000   1.00000

 Dipole moment (field-independent basis, Debye):
    X=             -1.2296    Y=              3.6543    Z=              0.1725  Tot=              3.8595
                          Isotropic Fermi Contact Couplings
        Atom                 a.u.       MegaHertz       Gauss      10(-4) cm-1
     1  Si(29)             0.75642    -672.24799    -239.87480    -224.23779
     2  N(14)              0.02521       8.14477       2.90626       2.71680
     3  H(1)               0.01040      46.49557      16.59077      15.50925
     4  H(1)               0.01212      54.16632      19.32789      18.06794
     5  C(13)             -0.00058      -0.65214      -0.23270      -0.21753
     6  O(17)              0.00899      -5.44691      -1.94359      -1.81689
     7  C(13)             -0.00035      -0.39383      -0.14053      -0.13137
     8  H(1)              -0.00005      -0.21340      -0.07615      -0.07118

 1\1\GINC-SE402\SP\UHF\Aug-CC-pVDZ\C3H8N1O1Si1(2)\OHZDE\09-Apr-2025\0\\
 #t hf aug-cc-pvdz iop(5/13=1,5/36=2,99/5=2) pseudo=read geom=check gue
 ss=(read,tcheck) scf=(maxcycle=1)\\title\\0,2\Si,0,1.794279,-0.349306,
 -0.057068\N,0,0.19758,0.432964,-0.013382\H,0,2.735036,0.807514,-0.0462
 61\H,0,2.02264,-1.184214,1.146995\C,0,-0.830903,-0.482759,-0.017807\O,
 0,-0.55495,-1.675371,-0.079852\C,0,-2.259088,0.012468,0.053429\H,0,-2.
 420159,0.64138,0.933019\H,0,-2.917754,-0.851967,0.097932\H,0,-2.508885
 ,0.609824,-0.828276\C,0,-0.032853,1.878677,0.000254\H,0,0.924088,2.388

 Normal termination of Gaussian 16 at Wed Apr  9 00:12:16 2025.
