 Gaussian 16, Revision C.01,

 ----------------------------------------------------------------------
 #t hf aug-cc-pvdz symm=none int=(grid=ultrafine) guess=(read,tcheck) s
 table=(opt,rrhf)
 ----------------------------------------------------------------------
 -----
 title
 -----
 Symbolic Z-matrix:
 Charge =  0 Multiplicity = 1

 SCF Done:  E(RHF) =  -759.200284632     A.U. after   13 cycles
 Normal termination of Gaussian 16 at Tue Apr  8 23:39:59 2025.
 Gaussian 16:  ES64L-G16RevC.01  3-Jul-2019

 ----------------------------------------------------------------------
 #t hf aug-cc-pvdz iop(5/13=1,5/36=2,99/5=2) pseudo=read geom=check gue
 ss=(read,tcheck) scf=(maxcycle=1)
 ----------------------------------------------------------------------
 -----
 title
 -----
 Structure from the checkpoint file:  "BDE49_nonexpt_1598_mol1.chk"
 Charge =  0 Multiplicity = 1

                         Standard orientation:
 ---------------------------------------------------------------------
 Center     Atomic      Atomic             Coordinates (Angstroms)
 Number     Number       Type             X           Y           Z
 ---------------------------------------------------------------------
      1          6           0       -1.575280   -0.020807    0.256462
      2          8           0       -0.364486   -0.344787   -0.512343
      3         15           0        1.072332    0.095906   -0.007923
      4          8           0        1.336945    1.498185    0.302251
      5          8           0        1.278635   -0.884944    1.254919
      6          6           0       -2.062313    1.362995   -0.146555
      7          1           0       -2.318897    1.380176   -1.208914
      8          1           0       -1.288024    2.108417    0.038915
      9          6           0       -2.567528   -1.134942   -0.028164
     10          1           0       -1.303046   -0.032552    1.316194
     11          1           0       -3.494277   -0.962089    0.524933
     12          1           0       -2.159289   -2.101758    0.272152
     13          1           0       -2.802769   -1.170989   -1.094880
     14          1           0       -2.952554    1.629091    0.430176
     15          1           0        1.871405   -0.485192    1.902393
     16          8           0        1.986456   -0.481646   -1.176435
     17          1           0        1.692798   -1.341635   -1.499714
 ---------------------------------------------------------------------

 SCF Done:  E(RHF) =  -759.671623723     A.U. after    2 cycles

 The electronic state is 1-A.
 Alpha  occ. eigenvalues --  -84.45476 -20.59295 -20.59289 -20.57971 -20.50262
 Alpha  occ. eigenvalues --  -11.31795 -11.24132 -11.23300  -6.90335  -4.44591
 Alpha  occ. eigenvalues --   -4.43840  -4.43792  -1.55856  -1.47759  -1.47160
 Alpha  occ. eigenvalues --   -1.38827  -1.07542  -0.95566  -0.86733  -0.81482
 Alpha  occ. eigenvalues --   -0.76318  -0.71790  -0.65999  -0.65326  -0.63949
 Alpha  occ. eigenvalues --   -0.61121  -0.59294  -0.56523  -0.56424  -0.55514
 Alpha  occ. eigenvalues --   -0.54200  -0.52690  -0.52002  -0.50557  -0.48368
 Alpha  occ. eigenvalues --   -0.46120  -0.44982
 Alpha virt. eigenvalues --    0.03229   0.03896   0.03985   0.04671   0.05713
 Alpha virt. eigenvalues --    0.06676   0.07174   0.07482   0.08269   0.10823
 Alpha virt. eigenvalues --    0.12148   0.12420   0.13315   0.14352   0.14710

 Mulliken charges:
               1
     1  C    0.040438
     2  O   -1.983805
     3  P    4.434512
     4  O   -1.409429
     5  O   -1.240588
     6  C   -0.221420
     7  H    0.216795
     8  H    0.111611
     9  C   -0.273730
    10  H    0.168683
    11  H    0.201884
    12  H    0.146375
    13  H    0.215429
    14  H    0.207858
    15  H    0.298053
    16  O   -1.271380
    17  H    0.358716
 Sum of Mulliken charges =  -0.00000

 Dipole moment (field-independent basis, Debye):
    X=             -2.1947    Y=             -3.0876    Z=              0.7411  Tot=              3.8599

 Test job not archived.
 1\1\GINC-SE329\SP\RHF\Aug-CC-pVDZ\C3H9O4P1\OHZDE\08-Apr-2025\0\\#t hf
 aug-cc-pvdz iop(5/13=1,5/36=2,99/5=2) pseudo=read geom=check guess=(re
 ad,tcheck) scf=(maxcycle=1)\\title\\0,1\C,0,1.57528,-0.020807,-0.25646
 2\O,0,0.364486,-0.344787,0.512343\P,0,-1.072332,0.095906,0.007923\O,0,
 -1.336945,1.498185,-0.302251\O,0,-1.278635,-0.884944,-1.254919\C,0,2.0
 62313,1.362995,0.146555\H,0,2.318897,1.380176,1.208914\H,0,1.288024,2.
 108417,-0.038915\C,0,2.567528,-1.134942,0.028164\H,0,1.303046,-0.03255
 2,-1.316194\H,0,3.494277,-0.962089,-0.524933\H,0,2.159289,-2.101758,-0

 Normal termination of Gaussian 16 at Tue Apr  8 23:40:06 2025.
