 Gaussian 16, Revision C.01,

 ----------------------------------------------------------------------
 #t hf aug-cc-pvdz symm=none int=(grid=ultrafine) guess=(read,tcheck) s
 table=(opt,rrhf)
 ----------------------------------------------------------------------
 -----
 title
 -----
 Symbolic Z-matrix:
 Charge =  0 Multiplicity = 1

 SCF Done:  E(RHF) =  -748.088296248     A.U. after   13 cycles
 Normal termination of Gaussian 16 at Tue Apr  8 22:31:37 2025.
 Gaussian 16:  ES64L-G16RevC.01  3-Jul-2019

 ----------------------------------------------------------------------
 #t hf aug-cc-pvdz iop(5/13=1,5/36=2,99/5=2) pseudo=read geom=check gue
 ss=(read,tcheck) scf=(maxcycle=1)
 ----------------------------------------------------------------------
 -----
 title
 -----
 Structure from the checkpoint file:  "BDE49_expt_1048_mol1.chk"
 Charge =  0 Multiplicity = 1

                         Standard orientation:
 ---------------------------------------------------------------------
 Center     Atomic      Atomic             Coordinates (Angstroms)
 Number     Number       Type             X           Y           Z
 ---------------------------------------------------------------------
      1          6           0       -0.305427   -1.544018   -0.373693
      2          6           0        0.088438   -0.718714    0.593807
      3          6           0       -0.088438    0.718714    0.593807
      4          6           0        0.305427    1.544018   -0.373693
      5          9           0       -0.686573    1.248719    1.685255
      6          9           0        0.936270    1.150628   -1.462202
      7          9           0        0.088438    2.839409   -0.369796
      8          9           0       -0.088438   -2.839409   -0.369796
      9          9           0       -0.936270   -1.150628   -1.462202
     10          9           0        0.686573   -1.248719    1.685255
 ---------------------------------------------------------------------

 SCF Done:  E(RHF) =  -748.773443430     A.U. after    2 cycles

 The electronic state is 1-A.
 Alpha  occ. eigenvalues --  -26.54863 -26.54863 -26.54674 -26.54674 -26.51212
 Alpha  occ. eigenvalues --  -26.51212 -11.47725 -11.47716 -11.38515 -11.38458
 Alpha  occ. eigenvalues --   -1.72240  -1.72038  -1.65545  -1.65410  -1.64327
 Alpha  occ. eigenvalues --   -1.63159  -1.15515  -1.07328  -0.94103  -0.89040
 Alpha  occ. eigenvalues --   -0.86202  -0.83222  -0.82198  -0.78926  -0.78276
 Alpha  occ. eigenvalues --   -0.77375  -0.74251  -0.71003  -0.70842  -0.69746
 Alpha  occ. eigenvalues --   -0.69346  -0.69063  -0.68762  -0.67353  -0.67115
 Alpha  occ. eigenvalues --   -0.65521  -0.60931  -0.45504  -0.39223
 Alpha virt. eigenvalues --    0.06303   0.06524   0.07446   0.08121   0.09574
 Alpha virt. eigenvalues --    0.10536   0.10786   0.11022   0.12577   0.12634
 Alpha virt. eigenvalues --    0.15261   0.15434   0.15879   0.16201   0.17706

 Mulliken charges:
               1
     1  C    1.800850
     2  C    0.530554
     3  C    0.530554
     4  C    1.800850
     5  F   -0.886178
     6  F   -0.740061
     7  F   -0.705165
     8  F   -0.705165
     9  F   -0.740061
    10  F   -0.886178
 Sum of Mulliken charges =  -0.00000

 Dipole moment (field-independent basis, Debye):
    X=              0.0000    Y=             -0.0000    Z=             -0.9883  Tot=              0.9883

 Test job not archived.
 1\1\GINC-SE070\SP\RHF\Aug-CC-pVDZ\C4F6\OHZDE\08-Apr-2025\0\\#t hf aug-
 cc-pvdz iop(5/13=1,5/36=2,99/5=2) pseudo=read geom=check guess=(read,t
 check) scf=(maxcycle=1)\\title\\0,1\C,0,-0.305427,-1.544018,-0.373693\
 C,0,0.088438,-0.718714,0.593807\C,0,-0.088438,0.718714,0.593807\C,0,0.
 305427,1.544018,-0.373693\F,0,-0.686573,1.248719,1.685255\F,0,0.93627,
 1.150628,-1.462202\F,0,0.088438,2.839409,-0.369796\F,0,-0.088438,-2.83
 9409,-0.369796\F,0,-0.93627,-1.150628,-1.462202\F,0,0.686573,-1.248719
 ,1.685255\\Version=ES64L-G16RevC.01\State=1-A\HF=-748.7734434\RMSD=1.1

 Normal termination of Gaussian 16 at Tue Apr  8 22:31:42 2025.
