 Gaussian 16, Revision C.01,

 ----------------------------------------------------------------------
 #t hf aug-cc-pvdz symm=none int=(grid=ultrafine) guess=(read,tcheck) s
 table=(opt,rrhf)
 ----------------------------------------------------------------------
 -----
 title
 -----
 Symbolic Z-matrix:
 Charge =  0 Multiplicity = 1

 SCF Done:  E(RHF) =  -395.306359786     A.U. after   13 cycles
 Normal termination of Gaussian 16 at Wed Apr  9 00:35:07 2025.
 Gaussian 16:  ES64L-G16RevC.01  3-Jul-2019

 ----------------------------------------------------------------------
 #t hf aug-cc-pvdz iop(5/13=1,5/36=2,99/5=2) pseudo=read geom=check gue
 ss=(read,tcheck) scf=(maxcycle=1)
 ----------------------------------------------------------------------
 -----
 title
 -----
 Structure from the checkpoint file:  "BDE49_nonexpt_445_mol1.chk"
 Charge =  0 Multiplicity = 1

                         Standard orientation:
 ---------------------------------------------------------------------
 Center     Atomic      Atomic             Coordinates (Angstroms)
 Number     Number       Type             X           Y           Z
 ---------------------------------------------------------------------
      1          9           0        2.033101   -0.015202   -1.137394
      2          9           0        2.033097   -0.015226    1.137403
      3          7           0       -0.007327   -0.491263   -0.000004
      4          6           0       -1.514465    1.440197   -0.000006
      5          6           0       -1.182286   -0.037590   -0.000006
      6          6           0       -2.367116   -0.974927    0.000003
      7          5           0        1.341475   -0.137637    0.000000
      8          1           0       -0.612728    2.051977   -0.000009
      9          1           0       -2.116951    1.691859    0.878800
     10          1           0       -2.116957    1.691858   -0.878808
     11          1           0       -2.032229   -2.010608    0.000007
     12          1           0       -2.994899   -0.795147   -0.878980
     13          1           0       -2.994894   -0.795139    0.878988
 ---------------------------------------------------------------------

 SCF Done:  E(RHF) =  -395.690419226     A.U. after    2 cycles

 The electronic state is 1-A.
 Alpha  occ. eigenvalues --  -26.45667 -26.45667 -15.48777 -11.33289 -11.25824
 Alpha  occ. eigenvalues --  -11.25123  -7.71354  -1.60667  -1.56732  -1.23980
 Alpha  occ. eigenvalues --   -1.04323  -0.97656  -0.86369  -0.76786  -0.72546
 Alpha  occ. eigenvalues --   -0.69860  -0.68305  -0.64027  -0.63229  -0.62963
 Alpha  occ. eigenvalues --   -0.61392  -0.60281  -0.57969  -0.57143  -0.54803
 Alpha  occ. eigenvalues --   -0.47779  -0.43671
 Alpha virt. eigenvalues --    0.02960   0.03973   0.04177   0.05078   0.06033
 Alpha virt. eigenvalues --    0.06396   0.06567   0.07435   0.08274   0.09849
 Alpha virt. eigenvalues --    0.11194   0.13537   0.14081   0.14759   0.15367

 Mulliken charges:
               1
     1  F   -0.671745
     2  F   -0.671751
     3  N    0.930638
     4  C   -0.227611
     5  C   -1.480961
     6  C   -0.315929
     7  B    1.319182
     8  H    0.014588
     9  H    0.243717
    10  H    0.243718
    11  H    0.129942
    12  H    0.243106
    13  H    0.243106
 Sum of Mulliken charges =  -0.00000

 Dipole moment (field-independent basis, Debye):
    X=             -4.2230    Y=              1.2668    Z=             -0.0000  Tot=              4.4089

 Test job not archived.
 1\1\GINC-SE143\SP\RHF\Aug-CC-pVDZ\C3H6B1F2N1\OHZDE\09-Apr-2025\0\\#t h
 f aug-cc-pvdz iop(5/13=1,5/36=2,99/5=2) pseudo=read geom=check guess=(
 read,tcheck) scf=(maxcycle=1)\\title\\0,1\F,0,2.033101,-0.015202,-1.13
 7394\F,0,2.033097,-0.015226,1.137403\N,0,-0.007327,-0.491263,-0.000004
 \C,0,-1.514465,1.440197,-0.000006\C,0,-1.182286,-0.03759,-0.000006\C,0
 ,-2.367116,-0.974927,0.000003\B,0,1.341475,-0.137637,0.\H,0,-0.612728,
 2.051977,-0.000009\H,0,-2.116951,1.691859,0.8788\H,0,-2.116957,1.69185
 8,-0.878808\H,0,-2.032229,-2.010608,0.000007\H,0,-2.994899,-0.795147,-

 Normal termination of Gaussian 16 at Wed Apr  9 00:35:12 2025.
