 Gaussian 16, Revision C.01,

 ----------------------------------------------------------------------
 #t hf aug-cc-pvdz symm=none int=(grid=ultrafine) guess=(read,tcheck) s
 table=(opt,rrhf)
 ----------------------------------------------------------------------
 -----
 title
 -----
 Symbolic Z-matrix:
 Charge =  0 Multiplicity = 1

 SCF Done:  E(RHF) =  -1155.76443605     A.U. after   12 cycles

 1\1\GINC-SE125\Stability\RHF\Aug-CC-pVDZ\C1Cl2F2\OHZDE\08-Apr-2025\0\\
 #t hf aug-cc-pvdz symm=none int=(grid=ultrafine) guess=(read,tcheck) s
 table=(opt,rrhf)\\title\\0,1\C,0,0.000011,0.344568,-0.000007\Cl,0,-1.4
 72819,-0.657066,0.000002\F,0,-0.000033,1.126227,1.080898\F,0,-0.000018
 ,1.126255,-1.080887\Cl,0,1.472842,-0.657036,-0.000006\\Version=ES64L-G
 16RevC.01\HF=-1155.7644361\RMSD=1.553e-09\Dipole=0.0000739,-0.2154589,
 -0.0000125\Quadrupole=1.2771436,-0.2350922,-1.0420514,-0.0000622,-0.00
 00044,-0.000033\PG=Unknown\\@

 Normal termination of Gaussian 16 at Tue Apr  8 22:43:39 2025.
 Gaussian 16:  ES64L-G16RevC.01  3-Jul-2019

 ----------------------------------------------------------------------
 #t hf aug-cc-pvdz iop(5/13=1,5/36=2,99/5=2) pseudo=read geom=check gue
 ss=(read,tcheck) scf=(maxcycle=1)
 ----------------------------------------------------------------------
 -----
 title
 -----
 Structure from the checkpoint file:  "BDE49_expt_1501_mol1.chk"
 Charge =  0 Multiplicity = 1

                         Standard orientation:
 ---------------------------------------------------------------------
 Center     Atomic      Atomic             Coordinates (Angstroms)
 Number     Number       Type             X           Y           Z
 ---------------------------------------------------------------------
      1          6           0        0.000011    0.344568   -0.000007
      2         17           0       -1.472819   -0.657066    0.000002
      3          9           0       -0.000033    1.126227    1.080898
      4          9           0       -0.000018    1.126255   -1.080887
      5         17           0        1.472842   -0.657036   -0.000006
 ---------------------------------------------------------------------

 SCF Done:  E(RHF) =  -1156.12958748     A.U. after    2 cycles

 The electronic state is 1-A.
 Alpha  occ. eigenvalues -- -105.61446-105.61445 -26.53814 -26.53812 -11.57006
 Alpha  occ. eigenvalues --  -10.66341 -10.66334  -7.83288  -7.83279  -7.82832
 Alpha  occ. eigenvalues --   -7.82831  -7.82830  -7.82830  -1.72230  -1.64589
 Alpha  occ. eigenvalues --   -1.17459  -1.09999  -0.92610  -0.82022  -0.78934
 Alpha  occ. eigenvalues --   -0.78675  -0.70010  -0.66100  -0.65360  -0.56839
 Alpha  occ. eigenvalues --   -0.53510  -0.52071  -0.50414  -0.48738
 Alpha virt. eigenvalues --    0.06422   0.08147   0.09457   0.09928   0.10839
 Alpha virt. eigenvalues --    0.11678   0.14482   0.14505   0.15369   0.17966
 Alpha virt. eigenvalues --    0.19477   0.21899   0.25833   0.26957   0.29561

 Mulliken charges:
               1
     1  C    1.048108
     2  Cl   0.016841
     3  F   -0.540907
     4  F   -0.540905
     5  Cl   0.016863
 Sum of Mulliken charges =  -0.00000

 Dipole moment (field-independent basis, Debye):
    X=              0.0002    Y=             -0.3358    Z=             -0.0000  Tot=              0.3358

 Test job not archived.
 1\1\GINC-SE125\SP\RHF\Aug-CC-pVDZ\C1Cl2F2\OHZDE\08-Apr-2025\0\\#t hf a
 ug-cc-pvdz iop(5/13=1,5/36=2,99/5=2) pseudo=read geom=check guess=(rea
 d,tcheck) scf=(maxcycle=1)\\title\\0,1\C,0,0.000011,0.344568,-0.000007
 \Cl,0,-1.472819,-0.657066,0.000002\F,0,-0.000033,1.126227,1.080898\F,0
 ,-0.000018,1.126255,-1.080887\Cl,0,1.472842,-0.657036,-0.000006\\Versi
 on=ES64L-G16RevC.01\State=1-A\HF=-1156.1295875\RMSD=3.231e-03\Dipole=0
 .0000701,-0.1321119,-0.0000117\Quadrupole=1.1028686,-0.1647661,-0.9381
 025,-0.000074,-0.0000066,-0.0000357\PG=C01 [X(C1Cl2F2)]\\@

 Normal termination of Gaussian 16 at Tue Apr  8 22:43:41 2025.
