 Gaussian 16, Revision C.01,

 ----------------------------------------------------------------------
 #t hf aug-cc-pvdz symm=none int=(grid=ultrafine) guess=(read,tcheck) s
 table=(opt,rrhf)
 ----------------------------------------------------------------------
 -----
 title
 -----
 Symbolic Z-matrix:
 Charge =  0 Multiplicity = 1

 SCF Done:  E(RHF) =  -361.509668279     A.U. after   16 cycles
 Normal termination of Gaussian 16 at Tue Apr  8 22:38:17 2025.
 Gaussian 16:  ES64L-G16RevC.01  3-Jul-2019

 ----------------------------------------------------------------------
 #t hf aug-cc-pvdz iop(5/13=1,5/36=2,99/5=2) pseudo=read geom=check gue
 ss=(read,tcheck) scf=(maxcycle=1)
 ----------------------------------------------------------------------
 -----
 title
 -----
 Structure from the checkpoint file:  "BDE49_expt_1169_mol1.chk"
 Charge =  0 Multiplicity = 1

                         Standard orientation:
 ---------------------------------------------------------------------
 Center     Atomic      Atomic             Coordinates (Angstroms)
 Number     Number       Type             X           Y           Z
 ---------------------------------------------------------------------
      1          6           0       -0.102712   -0.410702    0.000001
      2          6           0       -2.589992   -0.022545   -0.000001
      3          7           0       -3.443406    0.751815   -0.000005
      4          6           0        0.134385    0.962947    0.000003
      5          6           0        0.985347   -1.289500   -0.000001
      6          6           0        2.287835   -0.802200   -0.000002
      7          6           0        2.519780    0.572874   -0.000001
      8          6           0        1.441103    1.451172    0.000001
      9          1           0       -0.699389    1.655503    0.000004
     10          1           0        1.610907    2.521824    0.000002
     11          1           0        3.121573   -1.495166   -0.000004
     12          1           0        3.534448    0.954088   -0.000002
     13          1           0        0.812651   -2.361412   -0.000002
     14          6           0       -1.508174   -1.002825    0.000003
     15          1           0       -1.640891   -1.646434    0.876577
     16          1           0       -1.640890   -1.646441   -0.876565
 ---------------------------------------------------------------------

 SCF Done:  E(RHF) =  -361.877365089     A.U. after    2 cycles

 The electronic state is 1-A.
 Alpha  occ. eigenvalues --  -15.51627 -11.30238 -11.28621 -11.27415 -11.25814
 Alpha  occ. eigenvalues --  -11.25737 -11.25577 -11.25396 -11.25388  -1.23885
 Alpha  occ. eigenvalues --   -1.17596  -1.08736  -1.03127  -0.99223  -0.85498
 Alpha  occ. eigenvalues --   -0.83704  -0.73605  -0.71083  -0.66290  -0.65333
 Alpha  occ. eigenvalues --   -0.64138  -0.61885  -0.61074  -0.59978  -0.53060
 Alpha  occ. eigenvalues --   -0.52392  -0.51940  -0.49596  -0.49566  -0.35985
 Alpha  occ. eigenvalues --   -0.35539
 Alpha virt. eigenvalues --    0.02765   0.03107   0.03845   0.04622   0.05041
 Alpha virt. eigenvalues --    0.05711   0.07975   0.08780   0.09235   0.09668
 Alpha virt. eigenvalues --    0.10150   0.11900   0.12420   0.12446   0.13272

 Mulliken charges:
               1
     1  C    1.038074
     2  C   -1.735503
     3  N    1.033326
     4  C    0.574582
     5  C   -0.162339
     6  C    0.376178
     7  C   -0.057230
     8  C   -0.170336
     9  H   -0.189843
    10  H   -0.245738
    11  H   -0.229715
    12  H   -0.205234
    13  H   -0.343864
    14  C   -0.372194
    15  H    0.344919
    16  H    0.344916
 Sum of Mulliken charges =  -0.00000

 Dipole moment (field-independent basis, Debye):
    X=              3.7886    Y=             -2.8570    Z=              0.0000  Tot=              4.7451

 Test job not archived.
 1\1\GINC-SE118\SP\RHF\Aug-CC-pVDZ\C8H7N1\OHZDE\08-Apr-2025\0\\#t hf au
 g-cc-pvdz iop(5/13=1,5/36=2,99/5=2) pseudo=read geom=check guess=(read
 ,tcheck) scf=(maxcycle=1)\\title\\0,1\C,0,-0.102712,-0.410702,0.000001
 \C,0,-2.589992,-0.022545,-0.000001\N,0,-3.443406,0.751815,-0.000005\C,
 0,0.134385,0.962947,0.000003\C,0,0.985347,-1.2895,-0.000001\C,0,2.2878
 35,-0.8022,-0.000002\C,0,2.51978,0.572874,-0.000001\C,0,1.441103,1.451
 172,0.000001\H,0,-0.699389,1.655503,0.000004\H,0,1.610907,2.521824,0.0
 00002\H,0,3.121573,-1.495166,-0.000004\H,0,3.534448,0.954088,-0.000002

 Normal termination of Gaussian 16 at Tue Apr  8 22:38:24 2025.
