 Gaussian 16, Revision C.01,

 ----------------------------------------------------------------------
 #t hf aug-cc-pvdz symm=none int=(grid=ultrafine) guess=(read,tcheck) s
 table=(opt,rrhf)
 ----------------------------------------------------------------------
 -----
 title
 -----
 Symbolic Z-matrix:
 Charge =  0 Multiplicity = 1

 SCF Done:  E(RHF) =  -634.711412442     A.U. after   15 cycles
 Normal termination of Gaussian 16 at Tue Apr  8 23:52:26 2025.
 Gaussian 16:  ES64L-G16RevC.01  3-Jul-2019

 ----------------------------------------------------------------------
 #t hf aug-cc-pvdz iop(5/13=1,5/36=2,99/5=2) pseudo=read geom=check gue
 ss=(read,tcheck) scf=(maxcycle=1)
 ----------------------------------------------------------------------
 -----
 title
 -----
 Structure from the checkpoint file:  "BDE49_nonexpt_1891_mol1.chk"
 Charge =  0 Multiplicity = 1

                         Standard orientation:
 ---------------------------------------------------------------------
 Center     Atomic      Atomic             Coordinates (Angstroms)
 Number     Number       Type             X           Y           Z
 ---------------------------------------------------------------------
      1          6           0       -1.747585    0.633763   -0.000001
      2         14           0       -3.485368   -0.124546    0.000001
      3          8           0       -0.816020   -0.450677    0.000001
      4          1           0       -4.467512    0.986430   -0.000001
      5          1           0       -3.680336   -0.953077    1.209704
      6          6           0        0.525611   -0.177216   -0.000000
      7          1           0       -3.680336   -0.953081   -1.209701
      8          6           0        1.070631    1.108205   -0.000001
      9          6           0        1.370697   -1.293396    0.000001
     10          6           0        2.458529    1.265161   -0.000002
     11          6           0        3.302444    0.161144   -0.000001
     12          6           0        2.747289   -1.120779    0.000001
     13          1           0        0.434085    1.982579   -0.000002
     14          1           0        2.874433    2.266694   -0.000003
     15          1           0        4.377879    0.292780   -0.000001
     16          1           0        3.392587   -1.992235    0.000002
     17          1           0        0.923087   -2.279889    0.000002
     18          1           0       -1.608138    1.268787    0.885129
     19          1           0       -1.608139    1.268785   -0.885131
 ---------------------------------------------------------------------

 SCF Done:  E(RHF) =  -635.100475615     A.U. after    2 cycles

 The electronic state is 1-A.
 Alpha  occ. eigenvalues --  -69.53192 -20.57563 -11.30754 -11.28804 -11.24808
 Alpha  occ. eigenvalues --  -11.24678 -11.23944 -11.23566 -11.23460  -6.20330
 Alpha  occ. eigenvalues --   -3.95706  -3.95690  -3.95684  -1.49481  -1.15098
 Alpha  occ. eigenvalues --   -1.02530  -1.01702  -0.94553  -0.84280  -0.81898
 Alpha  occ. eigenvalues --   -0.73974  -0.73163  -0.67451  -0.66163  -0.66065
 Alpha  occ. eigenvalues --   -0.62472  -0.60094  -0.55812  -0.53839  -0.52960
 Alpha  occ. eigenvalues --   -0.50166  -0.49095  -0.48860  -0.46927  -0.45761
 Alpha  occ. eigenvalues --   -0.35009  -0.32025
 Alpha virt. eigenvalues --    0.03349   0.03589   0.03702   0.04503   0.04642
 Alpha virt. eigenvalues --    0.04996   0.06327   0.07717   0.08129   0.08897
 Alpha virt. eigenvalues --    0.09521   0.09685   0.10398   0.11176   0.11495

 Mulliken charges:
               1
     1  C   -0.386552
     2  Si   0.977704
     3  O   -1.903905
     4  H   -0.167726
     5  H   -0.204246
     6  C    2.292905
     7  H   -0.204247
     8  C   -0.335706
     9  C   -0.317654
    10  C    0.788438
    11  C   -0.054618
    12  C    0.692916
    13  H   -0.437826
    14  H   -0.232226
    15  H   -0.220756
    16  H   -0.213862
    17  H   -0.298410
    18  H    0.112888
    19  H    0.112885
 Sum of Mulliken charges =  -0.00000

 Dipole moment (field-independent basis, Debye):
    X=             -0.1461    Y=              1.1545    Z=              0.0000  Tot=              1.1637

 Test job not archived.
 1\1\GINC-SE250\SP\RHF\Aug-CC-pVDZ\C7H10O1Si1\OHZDE\08-Apr-2025\0\\#t h
 f aug-cc-pvdz iop(5/13=1,5/36=2,99/5=2) pseudo=read geom=check guess=(
 read,tcheck) scf=(maxcycle=1)\\title\\0,1\C,0,-1.747585,0.633763,-0.00
 0001\Si,0,-3.485368,-0.124546,0.000001\O,0,-0.81602,-0.450677,0.000001
 \H,0,-4.467512,0.98643,-0.000001\H,0,-3.680336,-0.953077,1.209704\C,0,
 0.525611,-0.177216,0.\H,0,-3.680336,-0.953081,-1.209701\C,0,1.070631,1
 .108205,-0.000001\C,0,1.370697,-1.293396,0.000001\C,0,2.458529,1.26516
 1,-0.000002\C,0,3.302444,0.161144,-0.000001\C,0,2.747289,-1.120779,0.0

 Normal termination of Gaussian 16 at Tue Apr  8 23:52:35 2025.
