 Gaussian 16, Revision C.01,

 ----------------------------------------------------------------------
 #t hf aug-cc-pvdz symm=none int=(grid=ultrafine) guess=(read,tcheck) s
 table=(opt,rrhf)
 ----------------------------------------------------------------------
 -----
 title
 -----
 Symbolic Z-matrix:
 Charge =  0 Multiplicity = 1

 SCF Done:  E(RHF) =  -1898.69685221     A.U. after   13 cycles
 Normal termination of Gaussian 16 at Tue Apr  8 23:24:26 2025.
 Gaussian 16:  ES64L-G16RevC.01  3-Jul-2019

 ----------------------------------------------------------------------
 #t hf aug-cc-pvdz iop(5/13=1,5/36=2,99/5=2) pseudo=read geom=check gue
 ss=(read,tcheck) scf=(maxcycle=1)
 ----------------------------------------------------------------------
 -----
 title
 -----
 Structure from the checkpoint file:  "BDE49_nonexpt_1233_mol1.chk"
 Charge =  0 Multiplicity = 1

                         Standard orientation:
 ---------------------------------------------------------------------
 Center     Atomic      Atomic             Coordinates (Angstroms)
 Number     Number       Type             X           Y           Z
 ---------------------------------------------------------------------
      1         17           0       -1.827680   -1.657849   -0.593227
      2          7           0       -0.344744    1.299394    0.513016
      3          7           0       -2.292647    1.590657   -1.074279
      4         15           0       -2.592167   -0.315407    0.842268
      5          6           0       -1.807620    1.295901    0.244960
      6         17           0        1.827690   -1.657845    0.593227
      7          7           0        0.344739    1.299398   -0.513015
      8          7           0        2.292641    1.590656    1.074282
      9         15           0        2.592165   -0.315400   -0.842272
     10          6           0        1.807615    1.295905   -0.244959
     11          1           0        2.003207    2.521960    1.357633
     12          1           0        1.891403    0.942856    1.745455
     13          1           0       -1.891409    0.942859   -1.745455
     14          1           0       -2.003214    2.521962   -1.357627
     15          1           0        1.604416   -0.579897   -1.824924
     16          1           0        2.214787    2.023755   -0.957777
     17          1           0       -1.604424   -0.579901    1.824926
     18          1           0       -2.214792    2.023748    0.957781
 ---------------------------------------------------------------------

 SCF Done:  E(RHF) =  -1899.24407213     A.U. after    2 cycles

 The electronic state is 1-A.
 Alpha  occ. eigenvalues -- -105.56299-105.56299 -84.33639 -84.33639 -15.58617
 Alpha  occ. eigenvalues --  -15.58018 -15.51032 -15.51016 -11.32425 -11.32424
 Alpha  occ. eigenvalues --  -10.61167 -10.61166  -7.78077  -7.78077  -7.77727
 Alpha  occ. eigenvalues --   -7.77727  -7.77695  -7.77694  -6.80289  -6.80288
 Alpha  occ. eigenvalues --   -4.32656  -4.32642  -4.32338  -4.32285  -4.31836
 Alpha  occ. eigenvalues --   -4.31827  -1.39294  -1.22127  -1.20980  -1.07678
 Alpha  occ. eigenvalues --   -1.06644  -1.04580  -0.96890  -0.85955  -0.80759
 Alpha  occ. eigenvalues --   -0.78540  -0.74270  -0.74156  -0.72187  -0.70158
 Alpha  occ. eigenvalues --   -0.62570  -0.62316  -0.60376  -0.54922  -0.53898
 Alpha  occ. eigenvalues --   -0.52694  -0.51137  -0.49181  -0.49154  -0.48459
 Alpha  occ. eigenvalues --   -0.47536  -0.45612  -0.44904  -0.43202  -0.37281
 Alpha  occ. eigenvalues --   -0.35353
 Alpha virt. eigenvalues --    0.03031   0.03864   0.04134   0.04449   0.04871
 Alpha virt. eigenvalues --    0.05465   0.06573   0.06635   0.07340   0.08646
 Alpha virt. eigenvalues --    0.08991   0.09063   0.10463   0.11430   0.11579

 Mulliken charges:
               1
     1  Cl  -0.546509
     2  N    0.170710
     3  N    0.610291
     4  P    0.379404
     5  C   -1.427286
     6  Cl  -0.546510
     7  N    0.170706
     8  N    0.610288
     9  P    0.379406
    10  C   -1.427281
    11  H    0.155685
    12  H    0.147014
    13  H    0.147014
    14  H    0.155684
    15  H    0.479904
    16  H    0.030787
    17  H    0.479906
    18  H    0.030786
 Sum of Mulliken charges =  -0.00000

 Dipole moment (field-independent basis, Debye):
    X=             -0.0000    Y=              3.4572    Z=             -0.0000  Tot=              3.4572

 Test job not archived.
 1\1\GINC-SE333\SP\RHF\Aug-CC-pVDZ\C2H8Cl2N4P2\OHZDE\08-Apr-2025\0\\#t
 hf aug-cc-pvdz iop(5/13=1,5/36=2,99/5=2) pseudo=read geom=check guess=
 (read,tcheck) scf=(maxcycle=1)\\title\\0,1\Cl,0,1.82768,-1.657849,0.59
 3227\N,0,0.344744,1.299394,-0.513016\N,0,2.292647,1.590657,1.074279\P,
 0,2.592167,-0.315407,-0.842268\C,0,1.80762,1.295901,-0.24496\Cl,0,-1.8
 2769,-1.657845,-0.593227\N,0,-0.344739,1.299398,0.513015\N,0,-2.292641
 ,1.590656,-1.074282\P,0,-2.592165,-0.3154,0.842272\C,0,-1.807615,1.295
 905,0.244959\H,0,-2.003207,2.52196,-1.357633\H,0,-1.891403,0.942856,-1

 Normal termination of Gaussian 16 at Tue Apr  8 23:24:38 2025.
