 Gaussian 16, Revision C.01,

 ----------------------------------------------------------------------
 #t hf aug-cc-pvdz symm=none int=(grid=ultrafine) guess=(read,tcheck) s
 table=opt
 ----------------------------------------------------------------------
 -----
 title
 -----
 Symbolic Z-matrix:
 Charge =  0 Multiplicity = 2

 SCF Done:  E(UHF) =  -172.692899517     A.U. after   16 cycles
 Normal termination of Gaussian 16 at Tue Apr  8 22:37:30 2025.
 Gaussian 16:  ES64L-G16RevC.01  3-Jul-2019

 ----------------------------------------------------------------------
 #t hf aug-cc-pvdz iop(5/13=1,5/36=2,99/5=2) pseudo=read geom=check gue
 ss=(read,tcheck) scf=(maxcycle=1)
 ----------------------------------------------------------------------
 -----
 title
 -----
 Structure from the checkpoint file:  "BDE49_expt_1196_mol2.chk"
 Charge =  0 Multiplicity = 2

                         Standard orientation:
 ---------------------------------------------------------------------
 Center     Atomic      Atomic             Coordinates (Angstroms)
 Number     Number       Type             X           Y           Z
 ---------------------------------------------------------------------
      1          6           0        0.000000    0.009477   -0.185695
      2          6           0       -1.300187   -0.689714    0.031002
      3          1           0       -2.120837   -0.177708   -0.484851
      4          1           0       -1.582524   -0.746607    1.100910
      5          1           0       -1.265709   -1.715021   -0.345250
      6          7           0        0.000000    1.409354   -0.066768
      7          1           0       -0.835575    1.816454    0.333949
      8          1           0        0.835575    1.816454    0.333949
      9          6           0        1.300187   -0.689714    0.031002
     10          1           0        1.265709   -1.715021   -0.345250
     11          1           0        1.582524   -0.746607    1.100911
     12          1           0        2.120837   -0.177708   -0.484851
 ---------------------------------------------------------------------

 SCF Done:  E(UHF) =  -172.882351963     A.U. after    2 cycles

 The electronic state is 2-A.
 Alpha  occ. eigenvalues --  -15.49303 -11.24737 -11.22525 -11.22512  -1.20197
 Alpha  occ. eigenvalues --   -1.02265  -0.94450  -0.79443  -0.70594  -0.64519
 Alpha  occ. eigenvalues --   -0.62311  -0.55564  -0.54350  -0.54173  -0.50718
 Alpha  occ. eigenvalues --   -0.49306  -0.28337
 Alpha virt. eigenvalues --    0.03499   0.04539   0.04589   0.05292   0.06458
 Alpha virt. eigenvalues --    0.06784   0.06817   0.10246   0.10530   0.13271
 Alpha virt. eigenvalues --    0.15111   0.15399   0.16252   0.16746   0.17070

  Beta  occ. eigenvalues --  -15.48978 -11.22820 -11.22809 -11.22219  -1.18200
  Beta  occ. eigenvalues --   -1.00090  -0.94426  -0.76221  -0.70202  -0.62899
  Beta  occ. eigenvalues --   -0.57527  -0.54811  -0.53760  -0.53617  -0.49995
  Beta  occ. eigenvalues --   -0.44917
  Beta virt. eigenvalues --    0.03419   0.04566   0.04614   0.05217   0.06471
  Beta virt. eigenvalues --    0.06807   0.06833   0.10256   0.10480   0.13258
  Beta virt. eigenvalues --    0.14715   0.15210   0.15452   0.16383   0.16787

 Mulliken charges and spin densities:
               1          2
     1  C   -0.994738   1.290539
     2  C   -0.292944  -0.244246
     3  H    0.096509   0.006743
     4  H    0.245368   0.054209
     5  H    0.140837   0.003135
     6  N    0.462996   0.053250
     7  H    0.076101   0.008264
     8  H    0.076101   0.008264
     9  C   -0.292946  -0.244246
    10  H    0.140837   0.003135
    11  H    0.245370   0.054209
    12  H    0.096509   0.006743
 Sum of Mulliken charges =   0.00000   1.00000

 Dipole moment (field-independent basis, Debye):
    X=             -0.0000    Y=             -0.0446    Z=              1.2444  Tot=              1.2452
                          Isotropic Fermi Contact Couplings
        Atom                 a.u.       MegaHertz       Gauss      10(-4) cm-1
     1  C(13)              0.26814     301.44484     107.56302     100.55118
     2  C(13)             -0.04764     -53.55751     -19.11065     -17.86486
     3  H(1)               0.00787      35.16286      12.54698      11.72907
     4  H(1)               0.02215      98.99177      35.32272      33.02010
     5  H(1)               0.00380      16.99976       6.06594       5.67051
     6  N(14)              0.07355      23.76348       8.47940       7.92664
     7  H(1)               0.00267      11.95517       4.26590       3.98782
     8  H(1)               0.00267      11.95517       4.26590       3.98781

 Normal termination of Gaussian 16 at Tue Apr  8 22:37:33 2025.
