 Gaussian 16, Revision C.01,

 ----------------------------------------------------------------------
 #t hf aug-cc-pvdz symm=none int=(grid=ultrafine) guess=(read,tcheck) s
 table=(opt,rrhf)
 ----------------------------------------------------------------------
 -----
 title
 -----
 Symbolic Z-matrix:
 Charge =  0 Multiplicity = 1

 SCF Done:  E(RHF) =  -496.933916517     A.U. after   15 cycles
 Normal termination of Gaussian 16 at Wed Apr  9 00:28:42 2025.
 Gaussian 16:  ES64L-G16RevC.01  3-Jul-2019

 ----------------------------------------------------------------------
 #t hf aug-cc-pvdz iop(5/13=1,5/36=2,99/5=2) pseudo=read geom=check gue
 ss=(read,tcheck) scf=(maxcycle=1)
 ----------------------------------------------------------------------
 -----
 title
 -----
 Structure from the checkpoint file:  "BDE49_nonexpt_287_mol1.chk"
 Charge =  0 Multiplicity = 1

                         Standard orientation:
 ---------------------------------------------------------------------
 Center     Atomic      Atomic             Coordinates (Angstroms)
 Number     Number       Type             X           Y           Z
 ---------------------------------------------------------------------
      1          6           0       -0.033754    0.301189    0.405878
      2          7           0       -0.754436   -1.014940    0.232423
      3          5           0        1.534735    0.158045    0.110796
      4          8           0       -0.565412   -1.628675   -0.822543
      5          8           0       -1.494617   -1.392326    1.119720
      6          8           0        2.330882    1.064260    0.738811
      7          8           0        2.054560   -0.752144   -0.745408
      8          1           0       -0.221530    0.582171    1.441756
      9          6           0       -0.669515    1.341827   -0.546332
     10          6           0       -2.157209    1.598509   -0.295003
     11          1           0       -0.507993    1.018247   -1.578495
     12          1           0       -0.100759    2.266241   -0.410737
     13          1           0       -2.758351    0.702737   -0.469179
     14          1           0       -2.525558    2.378744   -0.965461
     15          1           0       -2.334679    1.925428    0.733103
     16          1           0        1.359587   -1.310176   -1.128915
     17          1           0        3.256228    0.972888    0.485098
 ---------------------------------------------------------------------

 SCF Done:  E(RHF) =  -497.429295195     A.U. after    2 cycles

 The electronic state is 1-A.
 Alpha  occ. eigenvalues --  -20.60590 -20.59445 -20.57548 -20.56810 -15.79231
 Alpha  occ. eigenvalues --  -11.29830 -11.27102 -11.24479  -7.66470  -1.67658
 Alpha  occ. eigenvalues --   -1.51423  -1.49684  -1.45727  -1.14696  -1.03515
 Alpha  occ. eigenvalues --   -0.91783  -0.84951  -0.80692  -0.76986  -0.76176
 Alpha  occ. eigenvalues --   -0.74343  -0.72315  -0.66591  -0.62825  -0.60840
 Alpha  occ. eigenvalues --   -0.59311  -0.57831  -0.56530  -0.53824  -0.52065
 Alpha  occ. eigenvalues --   -0.50694  -0.50043  -0.49329  -0.48100  -0.45989
 Alpha virt. eigenvalues --    0.03055   0.03610   0.04001   0.04526   0.05246
 Alpha virt. eigenvalues --    0.05764   0.05888   0.06961   0.07600   0.08719
 Alpha virt. eigenvalues --    0.09373   0.09511   0.10846   0.12707   0.13502

 Mulliken charges:
               1
     1  C   -0.324260
     2  N    2.635030
     3  B    1.854771
     4  O   -1.452319
     5  O   -1.345129
     6  O   -1.275185
     7  O   -1.379352
     8  H    0.081405
     9  C   -0.418647
    10  C   -0.284697
    11  H    0.088104
    12  H    0.080283
    13  H    0.185510
    14  H    0.132297
    15  H    0.184029
    16  H    0.715749
    17  H    0.522412
 Sum of Mulliken charges =  -0.00000

 Dipole moment (field-independent basis, Debye):
    X=              1.0309    Y=              2.8221    Z=             -0.4588  Tot=              3.0393

 Test job not archived.
 1\1\GINC-SE150\SP\RHF\Aug-CC-pVDZ\C3H8B1N1O4\OHZDE\09-Apr-2025\0\\#t h
 f aug-cc-pvdz iop(5/13=1,5/36=2,99/5=2) pseudo=read geom=check guess=(
 read,tcheck) scf=(maxcycle=1)\\title\\0,1\C,0,-0.033754,0.301189,0.405
 878\N,0,-0.754436,-1.01494,0.232423\B,0,1.534735,0.158045,0.110796\O,0
 ,-0.565412,-1.628675,-0.822543\O,0,-1.494617,-1.392326,1.11972\O,0,2.3
 30882,1.06426,0.738811\O,0,2.05456,-0.752144,-0.745408\H,0,-0.22153,0.
 582171,1.441756\C,0,-0.669515,1.341827,-0.546332\C,0,-2.157209,1.59851
 ,-0.295003\H,0,-0.507993,1.018247,-1.578495\H,0,-0.100758,2.266241,-0.

 Normal termination of Gaussian 16 at Wed Apr  9 00:28:50 2025.
