 Gaussian 16, Revision C.01,

 ----------------------------------------------------------------------
 #t hf aug-cc-pvdz symm=none int=(grid=ultrafine) guess=(read,tcheck) s
 table=(opt,rrhf)
 ----------------------------------------------------------------------
 -----
 title
 -----
 Symbolic Z-matrix:
 Charge =  0 Multiplicity = 1

 SCF Done:  E(RHF) =  -878.260341717     A.U. after   14 cycles
 Normal termination of Gaussian 16 at Wed Apr  9 00:24:20 2025.
 Gaussian 16:  ES64L-G16RevC.01  3-Jul-2019

 ----------------------------------------------------------------------
 #t hf aug-cc-pvdz iop(5/13=1,5/36=2,99/5=2) pseudo=read geom=check gue
 ss=(read,tcheck) scf=(maxcycle=1)
 ----------------------------------------------------------------------
 -----
 title
 -----
 Structure from the checkpoint file:  "BDE49_nonexpt_2678_mol1.chk"
 Charge =  0 Multiplicity = 1

                         Standard orientation:
 ---------------------------------------------------------------------
 Center     Atomic      Atomic             Coordinates (Angstroms)
 Number     Number       Type             X           Y           Z
 ---------------------------------------------------------------------
      1          9           0        2.366486   -0.101436   -0.114181
      2         16           0        1.090128   -0.283421   -1.197780
      3          6           0       -0.341848    0.070726   -0.025966
      4          8           0       -1.346265   -0.515335   -0.781695
      5          8           0       -0.609172    1.407984    0.130375
      6          8           0       -0.166717   -0.478254    1.229959
      7          6           0       -2.694348   -0.104448   -0.485825
      8          1           0       -3.330870   -0.788527   -1.044092
      9          1           0       -2.866535    0.922283   -0.808812
     10          1           0       -2.897192   -0.195454    0.583603
     11          6           0        0.366720    2.186434    0.835081
     12          1           0       -0.036128    3.196930    0.868792
     13          1           0        1.318351    2.185527    0.298003
     14          1           0        0.512373    1.804040    1.845975
     15          6           0        0.147735   -1.875118    1.306470
     16          1           0       -0.037777   -2.160287    2.341088
     17          1           0        1.197530   -2.041723    1.059566
     18          1           0       -0.492503   -2.455856    0.640309
 ---------------------------------------------------------------------

 SCF Done:  E(RHF) =  -878.796828831     A.U. after    2 cycles

 The electronic state is 1-A.
 Alpha  occ. eigenvalues --  -94.02661 -26.46248 -20.57767 -20.57443 -20.57214
 Alpha  occ. eigenvalues --  -11.44706 -11.29590 -11.29188 -11.28983  -8.29974
 Alpha  occ. eigenvalues --   -6.27761  -6.27425  -6.27163  -1.57183  -1.55769
 Alpha  occ. eigenvalues --   -1.46943  -1.46345  -1.04315  -0.97686  -0.94920
 Alpha  occ. eigenvalues --   -0.94306  -0.80721  -0.73543  -0.73347  -0.72014
 Alpha  occ. eigenvalues --   -0.66296  -0.64629  -0.63411  -0.63231  -0.61592
 Alpha  occ. eigenvalues --   -0.60356  -0.60146  -0.59687  -0.55396  -0.53829
 Alpha  occ. eigenvalues --   -0.51690  -0.49687  -0.46617  -0.45787  -0.42439
 Alpha  occ. eigenvalues --   -0.38327
 Alpha virt. eigenvalues --    0.03536   0.04081   0.04214   0.05169   0.06148
 Alpha virt. eigenvalues --    0.06243   0.06763   0.07273   0.08171   0.08903
 Alpha virt. eigenvalues --    0.09882   0.11250   0.13007   0.13769   0.14920

 Mulliken charges:
               1
     1  F   -0.707373
     2  S    0.887179
     3  C    3.037802
     4  O   -1.352724
     5  O   -1.656163
     6  O   -1.544231
     7  C    0.111873
     8  H   -0.002662
     9  H    0.177701
    10  H    0.196193
    11  C    0.012531
    12  H   -0.011257
    13  H    0.197762
    14  H    0.188676
    15  C    0.108383
    16  H    0.003804
    17  H    0.160306
    18  H    0.192199
 Sum of Mulliken charges =  -0.00000

 Dipole moment (field-independent basis, Debye):
    X=             -1.9124    Y=             -0.1089    Z=              1.2118  Tot=              2.2667

 Test job not archived.
 1\1\GINC-SE132\SP\RHF\Aug-CC-pVDZ\C4H9F1O3S1\OHZDE\09-Apr-2025\0\\#t h
 f aug-cc-pvdz iop(5/13=1,5/36=2,99/5=2) pseudo=read geom=check guess=(
 read,tcheck) scf=(maxcycle=1)\\title\\0,1\F,0,2.366486,-0.101436,-0.11
 4181\S,0,1.090128,-0.283421,-1.19778\C,0,-0.341848,0.070726,-0.025966\
 O,0,-1.346265,-0.515335,-0.781695\O,0,-0.609172,1.407984,0.130375\O,0,
 -0.166717,-0.478254,1.229959\C,0,-2.694348,-0.104448,-0.485825\H,0,-3.
 33087,-0.788526,-1.044092\H,0,-2.866535,0.922283,-0.808812\H,0,-2.8971
 92,-0.195453,0.583603\C,0,0.36672,2.186434,0.835081\H,0,-0.036128,3.19

 Normal termination of Gaussian 16 at Wed Apr  9 00:24:29 2025.
