 Gaussian 16, Revision C.01,

 ----------------------------------------------------------------------
 #t hf aug-cc-pvdz symm=none int=(grid=ultrafine) guess=(read,tcheck) s
 table=(opt,rrhf)
 ----------------------------------------------------------------------
 -----
 title
 -----
 Symbolic Z-matrix:
 Charge =  0 Multiplicity = 1

 SCF Done:  E(RHF) =  -482.907106083     A.U. after   15 cycles
 Normal termination of Gaussian 16 at Tue Apr  8 22:51:36 2025.
 Gaussian 16:  ES64L-G16RevC.01  3-Jul-2019

 ----------------------------------------------------------------------
 #t hf aug-cc-pvdz iop(5/13=1,5/36=2,99/5=2) pseudo=read geom=check gue
 ss=(read,tcheck) scf=(maxcycle=1)
 ----------------------------------------------------------------------
 -----
 title
 -----
 Structure from the checkpoint file:  "BDE49_expt_1776_mol1.chk"
 Charge =  0 Multiplicity = 1

                         Standard orientation:
 ---------------------------------------------------------------------
 Center     Atomic      Atomic             Coordinates (Angstroms)
 Number     Number       Type             X           Y           Z
 ---------------------------------------------------------------------
      1          7           0        1.275272   -0.008888   -0.078358
      2          8           0       -0.000027   -0.819642   -0.000057
      3          7           0       -1.275261   -0.008877    0.078355
      4          8           0        2.176324   -0.629567    0.379819
      5          8           0        1.198851    1.047132   -0.616541
      6          8           0       -2.176373   -0.629523   -0.379759
      7          8           0       -1.198785    1.047144    0.616540
 ---------------------------------------------------------------------

 SCF Done:  E(RHF) =  -483.357469447     A.U. after    2 cycles

 The electronic state is 1-A.
 Alpha  occ. eigenvalues --  -20.72767 -20.67338 -20.67334 -20.67289 -20.67286
 Alpha  occ. eigenvalues --  -15.91266 -15.91188  -1.79415  -1.77428  -1.62652
 Alpha  occ. eigenvalues --   -1.62181  -1.53492  -1.06163  -0.95677  -0.89350
 Alpha  occ. eigenvalues --   -0.85653  -0.85421  -0.82903  -0.82388  -0.79543
 Alpha  occ. eigenvalues --   -0.61764  -0.59745  -0.56397  -0.55908  -0.53870
 Alpha  occ. eigenvalues --   -0.52887  -0.52104
 Alpha virt. eigenvalues --    0.01143   0.03541   0.05554   0.10161   0.10970
 Alpha virt. eigenvalues --    0.12642   0.12657   0.13753   0.14567   0.17518
 Alpha virt. eigenvalues --    0.17879   0.18754   0.18959   0.20399   0.23470

 Mulliken charges:
               1
     1  N    2.426511
     2  O   -0.934865
     3  N    2.426551
     4  O   -0.991965
     5  O   -0.967122
     6  O   -0.991975
     7  O   -0.967134
 Sum of Mulliken charges =   0.00000

 Dipole moment (field-independent basis, Debye):
    X=              0.0003    Y=             -0.1685    Z=             -0.0000  Tot=              0.1685

 Test job not archived.
 1\1\GINC-SE070\SP\RHF\Aug-CC-pVDZ\N2O5\OHZDE\08-Apr-2025\0\\#t hf aug-
 cc-pvdz iop(5/13=1,5/36=2,99/5=2) pseudo=read geom=check guess=(read,t
 check) scf=(maxcycle=1)\\title\\0,1\N,0,1.275272,-0.008888,-0.078358\O
 ,0,-0.000027,-0.819642,-0.000057\N,0,-1.275261,-0.008877,0.078355\O,0,
 2.176324,-0.629567,0.379819\O,0,1.198851,1.047132,-0.616541\O,0,-2.176
 373,-0.629523,-0.379759\O,0,-1.198785,1.047144,0.61654\\Version=ES64L-
 G16RevC.01\State=1-A\HF=-483.3574694\RMSD=1.722e-02\Dipole=0.000108,-0
 .0663003,-0.0000185\Quadrupole=-0.9321619,-0.4534713,1.3856332,-0.0000

 Normal termination of Gaussian 16 at Tue Apr  8 22:51:39 2025.
