 Gaussian 16, Revision C.01,

 ----------------------------------------------------------------------
 #t hf aug-cc-pvdz symm=none int=(grid=ultrafine) guess=(read,tcheck) s
 table=(opt,rrhf)
 ----------------------------------------------------------------------
 -----
 title
 -----
 Symbolic Z-matrix:
 Charge =  0 Multiplicity = 1

 SCF Done:  E(RHF) =  -625.223602114     A.U. after   13 cycles
 Normal termination of Gaussian 16 at Tue Apr  8 23:35:24 2025.
 Gaussian 16:  ES64L-G16RevC.01  3-Jul-2019

 ----------------------------------------------------------------------
 #t hf aug-cc-pvdz iop(5/13=1,5/36=2,99/5=2) pseudo=read geom=check gue
 ss=(read,tcheck) scf=(maxcycle=1)
 ----------------------------------------------------------------------
 -----
 title
 -----
 Structure from the checkpoint file:  "BDE49_nonexpt_1497_mol1.chk"
 Charge =  0 Multiplicity = 1

                         Standard orientation:
 ---------------------------------------------------------------------
 Center     Atomic      Atomic             Coordinates (Angstroms)
 Number     Number       Type             X           Y           Z
 ---------------------------------------------------------------------
      1         15           0        0.143860   -0.995178   -0.232654
      2          7           0       -0.955386    0.270328    0.353823
      3          8           0       -1.143046    1.265635   -0.654321
      4          8           0       -2.218013   -0.384536    0.530494
      5          6           0        1.644249    0.057820   -0.532768
      6          6           0        2.376473    0.439743    0.758737
      7          1           0        2.682787   -0.446432    1.321325
      8          1           0        1.737560    1.040339    1.410657
      9          1           0        3.274138    1.024325    0.539150
     10          1           0        1.354930    0.942171   -1.103130
     11          1           0        2.293738   -0.547836   -1.175338
     12          1           0       -1.234352    2.080958   -0.145854
     13          1           0       -2.516116   -0.055692    1.386622
     14          1           0       -0.298733   -1.036634   -1.585568
 ---------------------------------------------------------------------

 SCF Done:  E(RHF) =  -625.559589772     A.U. after    2 cycles

 The electronic state is 1-A.
 Alpha  occ. eigenvalues --  -84.29185 -20.59113 -20.58984 -15.61021 -11.24196
 Alpha  occ. eigenvalues --  -11.23377  -6.76019  -4.28893  -4.28390  -4.27771
 Alpha  occ. eigenvalues --   -1.53343  -1.44258  -1.07946  -1.02719  -0.88075
 Alpha  occ. eigenvalues --   -0.77984  -0.73035  -0.71745  -0.64996  -0.61277
 Alpha  occ. eigenvalues --   -0.60515  -0.59339  -0.53608  -0.51087  -0.49738
 Alpha  occ. eigenvalues --   -0.48444  -0.45820  -0.43456  -0.34253
 Alpha virt. eigenvalues --    0.03458   0.04116   0.04730   0.04957   0.05950
 Alpha virt. eigenvalues --    0.06729   0.07302   0.07913   0.09601   0.11333
 Alpha virt. eigenvalues --    0.12565   0.14129   0.15315   0.15890   0.16371

 Mulliken charges:
               1
     1  P    0.467627
     2  N    0.979406
     3  O   -1.038368
     4  O   -0.948007
     5  C   -0.661539
     6  C   -0.460181
     7  H    0.156071
     8  H    0.168372
     9  H    0.115051
    10  H    0.154945
    11  H    0.140997
    12  H    0.296180
    13  H    0.294782
    14  H    0.334662
 Sum of Mulliken charges =  -0.00000

 Dipole moment (field-independent basis, Debye):
    X=              0.8747    Y=              1.5472    Z=              0.9914  Tot=              2.0352

 Test job not archived.
 1\1\GINC-SE331\SP\RHF\Aug-CC-pVDZ\C2H8N1O2P1\OHZDE\08-Apr-2025\0\\#t h
 f aug-cc-pvdz iop(5/13=1,5/36=2,99/5=2) pseudo=read geom=check guess=(
 read,tcheck) scf=(maxcycle=1)\\title\\0,1\P,0,0.14386,-0.995178,-0.232
 654\N,0,-0.955386,0.270328,0.353823\O,0,-1.143046,1.265635,-0.654321\O
 ,0,-2.218013,-0.384536,0.530494\C,0,1.644249,0.05782,-0.532768\C,0,2.3
 76473,0.439743,0.758737\H,0,2.682787,-0.446432,1.321325\H,0,1.73756,1.
 040339,1.410657\H,0,3.274138,1.024325,0.53915\H,0,1.35493,0.942171,-1.
 10313\H,0,2.293738,-0.547836,-1.175338\H,0,-1.234352,2.080958,-0.14585

 Normal termination of Gaussian 16 at Tue Apr  8 23:35:28 2025.
