 Gaussian 16, Revision C.01,

 ----------------------------------------------------------------------
 #t hf aug-cc-pvdz symm=none int=(grid=ultrafine) guess=(read,tcheck) s
 table=(opt,rrhf)
 ----------------------------------------------------------------------
 -----
 title
 -----
 Symbolic Z-matrix:
 Charge =  0 Multiplicity = 1

 SCF Done:  E(RHF) =  -812.882192345     A.U. after   16 cycles
 Normal termination of Gaussian 16 at Wed Apr  9 00:33:20 2025.
 Gaussian 16:  ES64L-G16RevC.01  3-Jul-2019

 ----------------------------------------------------------------------
 #t hf aug-cc-pvdz iop(5/13=1,5/36=2,99/5=2) pseudo=read geom=check gue
 ss=(read,tcheck) scf=(maxcycle=1)
 ----------------------------------------------------------------------
 -----
 title
 -----
 Structure from the checkpoint file:  "BDE49_nonexpt_322_mol1.chk"
 Charge =  0 Multiplicity = 1

                         Standard orientation:
 ---------------------------------------------------------------------
 Center     Atomic      Atomic             Coordinates (Angstroms)
 Number     Number       Type             X           Y           Z
 ---------------------------------------------------------------------
      1          6           0       -0.846778   -1.129782    0.000122
      2          6           0       -1.480113    0.103046    0.000062
      3          6           0        0.537928   -1.253312    0.000103
      4          6           0        1.349607   -0.113816    0.000028
      5          6           0        0.721323    1.140881   -0.000025
      6          6           0       -0.664480    1.225802   -0.000012
      7          1           0       -2.556632    0.186235    0.000075
      8          7           0       -1.309024    2.565354   -0.000076
      9          8           0       -2.530072    2.598947    0.000092
     10          8           0       -0.574578    3.540765   -0.000005
     11          1           0        1.308894    2.048654   -0.000077
     12          5           0        2.925439   -0.192219    0.000009
     13          7           0       -1.679497   -2.358393    0.000208
     14          1           0        0.946432   -2.256239    0.000161
     15          8           0       -2.891576   -2.216503   -0.000223
     16          8           0       -1.093716   -3.432192   -0.000203
     17          8           0        3.640179   -1.354628   -0.000093
     18          8           0        3.600386    0.987906    0.000098
     19          1           0        4.556265    0.868682    0.000068
     20          1           0        3.127584   -2.166243   -0.000201
 ---------------------------------------------------------------------

 SCF Done:  E(RHF) =  -813.667835854     A.U. after    2 cycles

 The electronic state is 1-A.
 Alpha  occ. eigenvalues --  -20.61363 -20.61216 -20.60901 -20.60872 -20.59214
 Alpha  occ. eigenvalues --  -20.58272 -15.81702 -15.81286 -11.34643 -11.34454
 Alpha  occ. eigenvalues --  -11.32570 -11.32330 -11.31705 -11.28209  -7.68032
 Alpha  occ. eigenvalues --   -1.69387  -1.68995  -1.53139  -1.52753  -1.51340
 Alpha  occ. eigenvalues --   -1.47095  -1.24717  -1.16193  -1.11472  -1.03040
 Alpha  occ. eigenvalues --   -1.00586  -0.90201  -0.87213  -0.84690  -0.80367
 Alpha  occ. eigenvalues --   -0.78804  -0.78018  -0.77023  -0.76528  -0.76480
 Alpha  occ. eigenvalues --   -0.76012  -0.74457  -0.70913  -0.67159  -0.61648
 Alpha  occ. eigenvalues --   -0.60829  -0.60790  -0.58361  -0.57382  -0.55104
 Alpha  occ. eigenvalues --   -0.52266  -0.51916  -0.51538  -0.50901  -0.50580
 Alpha  occ. eigenvalues --   -0.47299  -0.46849  -0.42339  -0.41310
 Alpha virt. eigenvalues --   -0.00367   0.00771   0.02333   0.03338   0.03596
 Alpha virt. eigenvalues --    0.04018   0.06009   0.06155   0.06539   0.07135
 Alpha virt. eigenvalues --    0.08333   0.09733   0.10634   0.11233   0.11347

 Mulliken charges:
               1
     1  C   -0.372329
     2  C    0.354557
     3  C    0.090694
     4  C    1.679499
     5  C   -0.393579
     6  C   -0.304833
     7  H   -0.165852
     8  N    3.192159
     9  O   -1.523300
    10  O   -1.546502
    11  H   -0.303761
    12  B    1.330712
    13  N    3.209614
    14  H   -0.376824
    15  O   -1.525505
    16  O   -1.569727
    17  O   -1.604659
    18  O   -1.377992
    19  H    0.540551
    20  H    0.667076
 Sum of Mulliken charges =  -0.00000

 Dipole moment (field-independent basis, Debye):
    X=              4.4658    Y=             -1.4871    Z=              0.0003  Tot=              4.7069

 Test job not archived.
 1\1\GINC-SE179\SP\RHF\Aug-CC-pVDZ\C6H5B1N2O6\OHZDE\09-Apr-2025\0\\#t h
 f aug-cc-pvdz iop(5/13=1,5/36=2,99/5=2) pseudo=read geom=check guess=(
 read,tcheck) scf=(maxcycle=1)\\title\\0,1\C,0,0.846778,-1.129782,-0.00
 0122\C,0,1.480113,0.103046,-0.000062\C,0,-0.537928,-1.253312,-0.000103
 \C,0,-1.349607,-0.113816,-0.000028\C,0,-0.721323,1.140881,0.000025\C,0
 ,0.66448,1.225802,0.000012\H,0,2.556632,0.186235,-0.000075\N,0,1.30902
 4,2.565354,0.000076\O,0,2.530072,2.598947,-0.000092\O,0,0.574578,3.540
 765,0.000005\H,0,-1.308894,2.048654,0.000077\B,0,-2.925439,-0.192219,-

 Normal termination of Gaussian 16 at Wed Apr  9 00:33:38 2025.
