 Gaussian 16, Revision C.01,

 ----------------------------------------------------------------------
 #t hf aug-cc-pvdz symm=none int=(grid=ultrafine) guess=(read,tcheck) s
 table=(opt,rrhf)
 ----------------------------------------------------------------------
 -----
 title
 -----
 Symbolic Z-matrix:
 Charge =  0 Multiplicity = 1

 SCF Done:  E(RHF) =  -868.646331285     A.U. after   15 cycles
 Normal termination of Gaussian 16 at Tue Apr  8 23:39:48 2025.
 Gaussian 16:  ES64L-G16RevC.01  3-Jul-2019

 ----------------------------------------------------------------------
 #t hf aug-cc-pvdz iop(5/13=1,5/36=2,99/5=2) pseudo=read geom=check gue
 ss=(read,tcheck) scf=(maxcycle=1)
 ----------------------------------------------------------------------
 -----
 title
 -----
 Structure from the checkpoint file:  "BDE49_nonexpt_1610_mol1.chk"
 Charge =  0 Multiplicity = 1

                         Standard orientation:
 ---------------------------------------------------------------------
 Center     Atomic      Atomic             Coordinates (Angstroms)
 Number     Number       Type             X           Y           Z
 ---------------------------------------------------------------------
      1          8           0       -0.187273   -0.562618   -0.988382
      2         15           0       -1.244516   -0.031652    0.197010
      3          8           0       -0.935297   -0.579990    1.511726
      4          8           0       -2.615364   -0.432105   -0.488259
      5          8           0        1.112059   -0.933838   -0.474521
      6          6           0        1.873119    0.142468   -0.126811
      7          6           0        3.237248   -0.335867    0.285531
      8          1           0        3.328644   -0.204577    1.366044
      9          1           0        3.983237    0.294322   -0.199991
     10          1           0        3.398863   -1.381734    0.032398
     11          8           0        1.485646    1.281496   -0.126976
     12          8           0       -1.289406    1.525816   -0.027587
     13          1           0       -0.376881    1.862157   -0.105808
     14          1           0       -2.891238   -1.325088   -0.248101
 ---------------------------------------------------------------------

 SCF Done:  E(RHF) =  -869.206261870     A.U. after    2 cycles

 The electronic state is 1-A.
 Alpha  occ. eigenvalues --  -84.47426 -20.68804 -20.65835 -20.61331 -20.59563
 Alpha  occ. eigenvalues --  -20.58063 -20.52226 -11.43745 -11.28213  -6.92296
 Alpha  occ. eigenvalues --   -4.46512  -4.45794  -4.45540  -1.66253  -1.55778
 Alpha  occ. eigenvalues --   -1.52321  -1.48916  -1.41112  -1.35774  -1.05182
 Alpha  occ. eigenvalues --   -0.88840  -0.83138  -0.77523  -0.73990  -0.73246
 Alpha  occ. eigenvalues --   -0.70729  -0.67979  -0.65096  -0.64577  -0.62357
 Alpha  occ. eigenvalues --   -0.60959  -0.58908  -0.57755  -0.56666  -0.54379
 Alpha  occ. eigenvalues --   -0.53351  -0.50464  -0.48677  -0.47612  -0.47130
 Alpha virt. eigenvalues --    0.03158   0.04031   0.05073   0.05324   0.06375
 Alpha virt. eigenvalues --    0.08627   0.09280   0.10331   0.12275   0.12631
 Alpha virt. eigenvalues --    0.13314   0.13923   0.14194   0.14524   0.14886

 Mulliken charges:
               1
     1  O   -1.056494
     2  P    4.210534
     3  O   -1.408424
     4  O   -1.252289
     5  O   -0.697912
     6  C    1.720843
     7  C   -0.523999
     8  H    0.288564
     9  H    0.249478
    10  H    0.194303
    11  O   -1.218857
    12  O   -1.379790
    13  H    0.516762
    14  H    0.357281
 Sum of Mulliken charges =  -0.00000

 Dipole moment (field-independent basis, Debye):
    X=              2.6071    Y=             -1.4169    Z=             -1.1803  Tot=              3.1934

 Test job not archived.
 1\1\GINC-SE335\SP\RHF\Aug-CC-pVDZ\C2H5O6P1\OHZDE\08-Apr-2025\0\\#t hf
 aug-cc-pvdz iop(5/13=1,5/36=2,99/5=2) pseudo=read geom=check guess=(re
 ad,tcheck) scf=(maxcycle=1)\\title\\0,1\O,0,-0.187273,-0.562618,-0.988
 382\P,0,-1.244516,-0.031652,0.19701\O,0,-0.935297,-0.57999,1.511726\O,
 0,-2.615364,-0.432105,-0.488259\O,0,1.112059,-0.933838,-0.474521\C,0,1
 .873119,0.142468,-0.126811\C,0,3.237248,-0.335867,0.285531\H,0,3.32864
 4,-0.204577,1.366044\H,0,3.983237,0.294322,-0.199991\H,0,3.398863,-1.3
 81734,0.032398\O,0,1.485646,1.281496,-0.126976\O,0,-1.289406,1.525816,

 Normal termination of Gaussian 16 at Tue Apr  8 23:39:53 2025.
