 Gaussian 16, Revision C.01,

 ----------------------------------------------------------------------
 #t hf aug-cc-pvdz symm=none int=(grid=ultrafine) guess=(read,tcheck) s
 table=(opt,rrhf)
 ----------------------------------------------------------------------
 -----
 title
 -----
 Symbolic Z-matrix:
 Charge =  0 Multiplicity = 1

 SCF Done:  E(RHF) =  -1617.21939827     A.U. after   16 cycles
 Normal termination of Gaussian 16 at Tue Apr  8 23:26:16 2025.
 Gaussian 16:  ES64L-G16RevC.01  3-Jul-2019

 ----------------------------------------------------------------------
 #t hf aug-cc-pvdz iop(5/13=1,5/36=2,99/5=2) pseudo=read geom=check gue
 ss=(read,tcheck) scf=(maxcycle=1)
 ----------------------------------------------------------------------
 -----
 title
 -----
 Structure from the checkpoint file:  "BDE49_nonexpt_1236_mol1.chk"
 Charge =  0 Multiplicity = 1

                         Standard orientation:
 ---------------------------------------------------------------------
 Center     Atomic      Atomic             Coordinates (Angstroms)
 Number     Number       Type             X           Y           Z
 ---------------------------------------------------------------------
      1         17           0       -1.953916    2.198810   -0.143478
      2         16           0       -1.199624   -1.055205    0.363233
      3          8           0       -1.382708   -2.302498   -0.366318
      4          8           0       -1.569151   -0.917824    1.758260
      5         15           0       -2.510282    0.300521   -0.827110
      6          6           0        0.498161   -0.537370    0.183248
      7          6           0        1.048647    0.340108    1.115433
      8          6           0        2.375053    0.732189    0.968880
      9          6           0        3.157834    0.259217   -0.090049
     10          6           0        2.577425   -0.625835   -1.008981
     11          6           0        1.254282   -1.027941   -0.881536
     12          6           0        4.603736    0.664964   -0.225453
     13          1           0        0.449198    0.693066    1.944211
     14          1           0        2.809172    1.414373    1.691625
     15          1           0        3.172485   -1.009290   -1.830959
     16          1           0        0.813104   -1.727456   -1.580329
     17          1           0        4.807776    1.598531    0.301888
     18          1           0        4.884141    0.794830   -1.273232
     19          1           0        5.261239   -0.103228    0.195504
     20          1           0       -1.608298    0.265452   -1.919445
 ---------------------------------------------------------------------

 SCF Done:  E(RHF) =  -1617.82619966     A.U. after    2 cycles

 The electronic state is 1-A.
 Alpha  occ. eigenvalues -- -105.58902 -94.19645 -84.37426 -20.54666 -20.54446
 Alpha  occ. eigenvalues --  -11.28903 -11.28345 -11.28072 -11.27983 -11.26471
 Alpha  occ. eigenvalues --  -11.26381 -11.25666 -10.63749  -8.45035  -7.80665
 Alpha  occ. eigenvalues --   -7.80290  -7.80263  -6.83988  -6.43123  -6.42884
 Alpha  occ. eigenvalues --   -6.42818  -4.35931  -4.35831  -4.35392  -1.55874
 Alpha  occ. eigenvalues --   -1.44369  -1.19342  -1.10071  -1.08711  -1.04826
 Alpha  occ. eigenvalues --   -0.99635  -0.93278  -0.87111  -0.85741  -0.80731
 Alpha  occ. eigenvalues --   -0.73750  -0.69341  -0.67691  -0.66516  -0.64535
 Alpha  occ. eigenvalues --   -0.64461  -0.63007  -0.60540  -0.57649  -0.57302
 Alpha  occ. eigenvalues --   -0.54925  -0.53770  -0.52854  -0.51530  -0.50491
 Alpha  occ. eigenvalues --   -0.50100  -0.48839  -0.47134  -0.43098  -0.39102
 Alpha  occ. eigenvalues --   -0.37376  -0.36016
 Alpha virt. eigenvalues --    0.02705   0.03062   0.03706   0.04004   0.04676
 Alpha virt. eigenvalues --    0.05167   0.05925   0.06719   0.07233   0.07944
 Alpha virt. eigenvalues --    0.08319   0.09056   0.09467   0.09761   0.11602

 Mulliken charges:
               1
     1  Cl  -0.483594
     2  S    4.024736
     3  O   -1.688121
     4  O   -1.722650
     5  P    0.263744
     6  C    0.241982
     7  C   -0.571305
     8  C    0.737402
     9  C    0.049344
    10  C    0.786998
    11  C   -0.767766
    12  C   -0.683517
    13  H   -0.288307
    14  H   -0.300370
    15  H   -0.296109
    16  H   -0.290974
    17  H    0.097347
    18  H    0.158786
    19  H    0.287071
    20  H    0.445304
 Sum of Mulliken charges =  -0.00000

 Dipole moment (field-independent basis, Debye):
    X=              3.8155    Y=              2.6407    Z=             -2.9156  Tot=              5.4801

 Test job not archived.
 1\1\GINC-SE069\SP\RHF\Aug-CC-pVDZ\C7H8Cl1O2P1S1\OHZDE\08-Apr-2025\0\\#
 t hf aug-cc-pvdz iop(5/13=1,5/36=2,99/5=2) pseudo=read geom=check gues
 s=(read,tcheck) scf=(maxcycle=1)\\title\\0,1\Cl,0,-1.953916,2.19881,-0
 .143478\S,0,-1.199624,-1.055205,0.363233\O,0,-1.382708,-2.302498,-0.36
 6318\O,0,-1.569151,-0.917824,1.75826\P,0,-2.510282,0.300521,-0.82711\C
 ,0,0.498161,-0.53737,0.183248\C,0,1.048647,0.340108,1.115433\C,0,2.375
 053,0.732189,0.96888\C,0,3.157834,0.259217,-0.090049\C,0,2.577425,-0.6
 25835,-1.008981\C,0,1.254282,-1.027941,-0.881536\C,0,4.603736,0.664964

 Normal termination of Gaussian 16 at Tue Apr  8 23:26:31 2025.
