 Gaussian 16, Revision C.01,

 ----------------------------------------------------------------------
 #t hf aug-cc-pvdz symm=none int=(grid=ultrafine) guess=(read,tcheck) s
 table=(opt,rrhf)
 ----------------------------------------------------------------------
 -----
 title
 -----
 Symbolic Z-matrix:
 Charge =  0 Multiplicity = 1

 SCF Done:  E(RHF) =  -1169.09837616     A.U. after   12 cycles
 Normal termination of Gaussian 16 at Tue Apr  8 23:55:53 2025.
 Gaussian 16:  ES64L-G16RevC.01  3-Jul-2019

 ----------------------------------------------------------------------
 #t hf aug-cc-pvdz iop(5/13=1,5/36=2,99/5=2) pseudo=read geom=check gue
 ss=(read,tcheck) scf=(maxcycle=1)
 ----------------------------------------------------------------------
 -----
 title
 -----
 Structure from the checkpoint file:  "BDE49_nonexpt_1952_mol1.chk"
 Charge =  0 Multiplicity = 1

                         Standard orientation:
 ---------------------------------------------------------------------
 Center     Atomic      Atomic             Coordinates (Angstroms)
 Number     Number       Type             X           Y           Z
 ---------------------------------------------------------------------
      1          6           0       -0.863656    0.105516   -1.104710
      2         14           0        0.704904   -0.962940   -1.058287
      3         15           0        2.520677   -0.198472    0.082771
      4          1           0        1.149893   -1.138183   -2.465181
      5          1           0        0.393684   -2.309733   -0.514252
      6         15           0       -1.794305    0.328502    0.494624
      7          6           0        2.458508    1.624401   -0.325629
      8          1           0        1.511037    2.098442   -0.058194
      9          1           0        2.641811    1.766519   -1.393380
     10          1           0        3.262822    2.128655    0.216213
     11          6           0        1.905604   -0.177238    1.845987
     12          1           0        1.747822   -1.204857    2.181574
     13          1           0        0.981114    0.386737    1.983401
     14          1           0        2.687045    0.258332    2.474683
     15          6           0       -2.606370   -1.333376    0.647450
     16          1           0       -1.862229   -2.092178    0.897024
     17          1           0       -3.121305   -1.632063   -0.271310
     18          1           0       -3.333003   -1.299232    1.463036
     19          6           0       -3.245905    1.311753   -0.119607
     20          1           0       -2.915082    2.315747   -0.396194
     21          1           0       -3.980119    1.413041    0.683967
     22          1           0       -3.728851    0.846725   -0.984890
     23          1           0       -1.525817   -0.298480   -1.882564
     24          1           0       -0.562138    1.104913   -1.439785
 ---------------------------------------------------------------------

 SCF Done:  E(RHF) =  -1169.44822274     A.U. after    2 cycles

 The electronic state is 1-A.
 Alpha  occ. eigenvalues --  -84.26780 -84.25119 -69.52776 -11.23656 -11.23508
 Alpha  occ. eigenvalues --  -11.23448 -11.23046 -11.23017  -6.73742  -6.72284
 Alpha  occ. eigenvalues --   -6.19787  -4.26300  -4.26215  -4.25587  -4.24648
 Alpha  occ. eigenvalues --   -4.24612  -4.24028  -3.95118  -3.95112  -3.95090
 Alpha  occ. eigenvalues --   -1.03382  -1.00375  -0.94172  -0.94012  -0.93516
 Alpha  occ. eigenvalues --   -0.77116  -0.72610  -0.66911  -0.60906  -0.59108
 Alpha  occ. eigenvalues --   -0.58663  -0.58353  -0.56877  -0.56007  -0.55960
 Alpha  occ. eigenvalues --   -0.55706  -0.55408  -0.51046  -0.48371  -0.44960
 Alpha  occ. eigenvalues --   -0.44179  -0.43072  -0.39955  -0.31569  -0.29975
 Alpha virt. eigenvalues --    0.03381   0.03652   0.03809   0.04090   0.05281
 Alpha virt. eigenvalues --    0.05361   0.05857   0.05993   0.06374   0.07874
 Alpha virt. eigenvalues --    0.08040   0.08327   0.08698   0.08925   0.09639

 Mulliken charges:
               1
     1  C   -0.602175
     2  Si   1.411300
     3  P    0.429591
     4  H   -0.226132
     5  H   -0.131240
     6  P    1.180075
     7  C   -0.814410
     8  H    0.122121
     9  H    0.034593
    10  H    0.054562
    11  C   -0.680647
    12  H    0.059816
    13  H    0.180033
    14  H    0.041485
    15  C   -0.847140
    16  H    0.052317
    17  H    0.096201
    18  H    0.091875
    19  C   -0.760831
    20  H    0.079875
    21  H    0.110281
    22  H    0.117851
    23  H   -0.079827
    24  H    0.080425
 Sum of Mulliken charges =  -0.00000

 Dipole moment (field-independent basis, Debye):
    X=             -1.5905    Y=              0.9447    Z=             -0.0215  Tot=              1.8500

 Test job not archived.
 1\1\GINC-SE105\SP\RHF\Aug-CC-pVDZ\C5H16P2Si1\OHZDE\08-Apr-2025\0\\#t h
 f aug-cc-pvdz iop(5/13=1,5/36=2,99/5=2) pseudo=read geom=check guess=(
 read,tcheck) scf=(maxcycle=1)\\title\\0,1\C,0,0.863656,-0.105516,-1.10
 471\Si,0,-0.704904,0.96294,-1.058287\P,0,-2.520677,0.198472,0.082771\H
 ,0,-1.149893,1.138183,-2.465181\H,0,-0.393684,2.309733,-0.514252\P,0,1
 .794305,-0.328502,0.494624\C,0,-2.458508,-1.624401,-0.325629\H,0,-1.51
 1037,-2.098442,-0.058194\H,0,-2.641811,-1.766519,-1.39338\H,0,-3.26282
 2,-2.128655,0.216213\C,0,-1.905604,0.177238,1.845987\H,0,-1.747822,1.2

 Normal termination of Gaussian 16 at Tue Apr  8 23:56:09 2025.
