 Gaussian 16, Revision C.01,

 ----------------------------------------------------------------------
 #t hf aug-cc-pvdz symm=none int=(grid=ultrafine) guess=(read,tcheck) s
 table=(opt,rrhf)
 ----------------------------------------------------------------------
 -----
 title
 -----
 Symbolic Z-matrix:
 Charge =  0 Multiplicity = 1

 SCF Done:  E(RHF) =  -684.308139931     A.U. after   13 cycles
 Normal termination of Gaussian 16 at Tue Apr  8 23:26:37 2025.
 Gaussian 16:  ES64L-G16RevC.01  3-Jul-2019

 ----------------------------------------------------------------------
 #t hf aug-cc-pvdz iop(5/13=1,5/36=2,99/5=2) pseudo=read geom=check gue
 ss=(read,tcheck) scf=(maxcycle=1)
 ----------------------------------------------------------------------
 -----
 title
 -----
 Structure from the checkpoint file:  "BDE49_nonexpt_1276_mol1.chk"
 Charge =  0 Multiplicity = 1

                         Standard orientation:
 ---------------------------------------------------------------------
 Center     Atomic      Atomic             Coordinates (Angstroms)
 Number     Number       Type             X           Y           Z
 ---------------------------------------------------------------------
      1          6           0        1.088700   -0.000002   -0.430333
      2         15           0       -0.644847   -0.000016    0.096880
      3          8           0       -0.956878    0.000007    1.536740
      4          8           0       -1.240941   -1.276635   -0.690294
      5          6           0        1.794232   -1.276895    0.055005
      6          1           0        1.305297   -2.173135   -0.330072
      7          1           0        1.795770   -1.328773    1.146700
      8          6           0        1.794178    1.276953    0.054922
      9          1           0        1.055531   -0.000037   -1.526086
     10          1           0        1.795719    1.328902    1.146614
     11          1           0        1.305205    2.173148   -0.330213
     12          1           0        2.832788    1.280115   -0.286240
     13          1           0        2.832844   -1.280034   -0.286153
     14          8           0       -1.241056    1.276568   -0.690283
     15          1           0       -1.900919    1.736023   -0.157171
     16          1           0       -1.901185   -1.735841   -0.157438
 ---------------------------------------------------------------------

 SCF Done:  E(RHF) =  -684.709191421     A.U. after    2 cycles

 The electronic state is 1-A.
 Alpha  occ. eigenvalues --  -84.41822 -20.58602 -20.58596 -20.49893 -11.25898
 Alpha  occ. eigenvalues --  -11.23928 -11.23922  -6.87184  -4.41281  -4.40696
 Alpha  occ. eigenvalues --   -4.39969  -1.52460  -1.46903  -1.38073  -1.09003
 Alpha  occ. eigenvalues --   -0.94764  -0.88680  -0.78442  -0.72281  -0.68206
 Alpha  occ. eigenvalues --   -0.65807  -0.62962  -0.61977  -0.58203  -0.57601
 Alpha  occ. eigenvalues --   -0.55637  -0.53799  -0.51515  -0.50701  -0.50650
 Alpha  occ. eigenvalues --   -0.49023  -0.45039  -0.43330
 Alpha virt. eigenvalues --    0.03581   0.03901   0.04063   0.04943   0.05887
 Alpha virt. eigenvalues --    0.06489   0.07387   0.07757   0.08795   0.10031
 Alpha virt. eigenvalues --    0.11939   0.14129   0.14490   0.14648   0.15142

 Mulliken charges:
               1
     1  C   -1.800283
     2  P    4.526879
     3  O   -1.460718
     4  O   -1.405973
     5  C   -0.129303
     6  H    0.130108
     7  H    0.207431
     8  C   -0.129271
     9  H    0.166484
    10  H    0.207449
    11  H    0.130111
    12  H    0.151598
    13  H    0.151613
    14  O   -1.406006
    15  H    0.329933
    16  H    0.329947
 Sum of Mulliken charges =  -0.00000

 Dipole moment (field-independent basis, Debye):
    X=              0.3896    Y=              0.0003    Z=             -1.6293  Tot=              1.6752

 Test job not archived.
 1\1\GINC-SE220\SP\RHF\Aug-CC-pVDZ\C3H9O3P1\OHZDE\08-Apr-2025\0\\#t hf
 aug-cc-pvdz iop(5/13=1,5/36=2,99/5=2) pseudo=read geom=check guess=(re
 ad,tcheck) scf=(maxcycle=1)\\title\\0,1\C,0,1.0887,-0.000002,-0.430333
 \P,0,-0.644847,-0.000016,0.09688\O,0,-0.956878,0.000007,1.53674\O,0,-1
 .240941,-1.276635,-0.690294\C,0,1.794232,-1.276895,0.055005\H,0,1.3052
 97,-2.173135,-0.330072\H,0,1.79577,-1.328773,1.1467\C,0,1.794178,1.276
 953,0.054922\H,0,1.055531,-0.000037,-1.526086\H,0,1.795719,1.328902,1.
 146614\H,0,1.305205,2.173148,-0.330213\H,0,2.832788,1.280115,-0.28624\

 Normal termination of Gaussian 16 at Tue Apr  8 23:26:44 2025.
