 Gaussian 16, Revision C.01,

 ----------------------------------------------------------------------
 #t hf aug-cc-pvdz symm=none int=(grid=ultrafine) guess=(read,tcheck) s
 table=opt
 ----------------------------------------------------------------------
 -----
 title
 -----
 Symbolic Z-matrix:
 Charge =  0 Multiplicity = 2

 SCF Done:  E(UHF) =  -671.354771243     A.U. after   16 cycles
 Normal termination of Gaussian 16 at Wed Apr  9 00:00:06 2025.
 Gaussian 16:  ES64L-G16RevC.01  3-Jul-2019

 ----------------------------------------------------------------------
 #t hf aug-cc-pvdz iop(5/13=1,5/36=2,99/5=2) pseudo=read geom=check gue
 ss=(read,tcheck) scf=(maxcycle=1)
 ----------------------------------------------------------------------
 -----
 title
 -----
 Structure from the checkpoint file:  "BDE49_nonexpt_2068_mol2.chk"
 Charge =  0 Multiplicity = 2

                         Standard orientation:
 ---------------------------------------------------------------------
 Center     Atomic      Atomic             Coordinates (Angstroms)
 Number     Number       Type             X           Y           Z
 ---------------------------------------------------------------------
      1         14           0       -1.517779   -0.997399   -0.853798
      2          6           0       -0.013892    0.012676   -0.121420
      3          8           0        1.028029   -0.229517   -1.014805
      4          8           0        0.337029   -0.290204    1.211947
      5          8           0       -0.309216    1.387020   -0.162567
      6          6           0        2.192310    0.602583   -0.867557
      7          1           0        2.959057    0.144963   -1.491156
      8          1           0        2.527013    0.628377    0.172459
      9          1           0        1.988307    1.617761   -1.210342
     10          6           0        0.715385   -1.639974    1.455341
     11          1           0        0.920658   -1.712475    2.522876
     12          1           0        1.607248   -1.915424    0.885795
     13          1           0       -0.093575   -2.335490    1.195747
     14          6           0       -1.046986    1.949297    0.925666
     15          1           0       -1.245560    2.981571    0.638987
     16          1           0       -0.469236    1.922916    1.850467
     17          1           0       -1.998397    1.430684    1.079717
     18          1           0       -1.729327   -0.573620   -2.259230
     19          1           0       -2.744925   -0.711554   -0.060930
 ---------------------------------------------------------------------

 SCF Done:  E(UHF) =  -671.774841349     A.U. after    2 cycles

 The electronic state is 2-A.
 Alpha  occ. eigenvalues --  -69.53593 -20.55741 -20.55388 -20.55323 -11.38612
 Alpha  occ. eigenvalues --  -11.29024 -11.28227 -11.27816  -6.20728  -3.96687
 Alpha  occ. eigenvalues --   -3.95770  -3.95737  -1.53808  -1.44317  -1.43879
 Alpha  occ. eigenvalues --   -0.99093  -0.94564  -0.93384  -0.82379  -0.75259
 Alpha  occ. eigenvalues --   -0.71021  -0.70624  -0.65506  -0.64068  -0.62162
 Alpha  occ. eigenvalues --   -0.60631  -0.59374  -0.58621  -0.53991  -0.53113
 Alpha  occ. eigenvalues --   -0.49830  -0.48892  -0.47687  -0.45377  -0.43961
 Alpha  occ. eigenvalues --   -0.40874  -0.33069
 Alpha virt. eigenvalues --    0.03507   0.04076   0.04185   0.04289   0.05887
 Alpha virt. eigenvalues --    0.06179   0.06431   0.06670   0.06979   0.08570
 Alpha virt. eigenvalues --    0.09360   0.09495   0.09904   0.11176   0.12564

  Beta  occ. eigenvalues --  -69.53026 -20.55755 -20.55391 -20.55171 -11.38536
  Beta  occ. eigenvalues --  -11.28989 -11.28230 -11.27823  -6.19871  -3.95383
  Beta  occ. eigenvalues --   -3.95358  -3.94486  -1.53694  -1.44329  -1.43632
  Beta  occ. eigenvalues --   -0.98927  -0.94451  -0.93345  -0.81422  -0.73514
  Beta  occ. eigenvalues --   -0.70869  -0.70515  -0.64151  -0.62996  -0.61960
  Beta  occ. eigenvalues --   -0.60581  -0.59327  -0.58590  -0.53699  -0.52898
  Beta  occ. eigenvalues --   -0.49633  -0.48062  -0.47582  -0.45096  -0.43891
  Beta  occ. eigenvalues --   -0.39106
  Beta virt. eigenvalues --    0.02602   0.03736   0.04159   0.04295   0.05037
  Beta virt. eigenvalues --    0.05946   0.06232   0.06470   0.06760   0.07818
  Beta virt. eigenvalues --    0.08738   0.09604   0.09767   0.09959   0.11418

 Mulliken charges and spin densities:
               1          2
     1  Si   0.382501   1.002852
     2  C    2.873011  -0.024701
     3  O   -1.429351  -0.011173
     4  O   -1.529643   0.006931
     5  O   -1.602943  -0.000456
     6  C    0.160105  -0.005033
     7  H   -0.006065  -0.000007
     8  H    0.187075  -0.000515
     9  H    0.169247   0.000758
    10  C    0.202704   0.010828
    11  H   -0.007391   0.000052
    12  H    0.193705   0.001245
    13  H    0.176283  -0.013263
    14  C    0.168430  -0.005012
    15  H   -0.025868  -0.000651
    16  H    0.189519   0.001220
    17  H    0.118412  -0.004169
    18  H   -0.088511   0.024661
    19  H   -0.131222   0.016432
 Sum of Mulliken charges =  -0.00000   1.00000

 Dipole moment (field-independent basis, Debye):
    X=              0.4944    Y=             -0.1994    Z=              1.4156  Tot=              1.5126
                          Isotropic Fermi Contact Couplings
        Atom                 a.u.       MegaHertz       Gauss      10(-4) cm-1
     1  Si(29)             0.57192    -508.28233    -181.36778    -169.54474
     2  C(13)              0.01606      18.05751       6.44337       6.02334
     3  O(17)             -0.00650       3.94140       1.40639       1.31471
     4  O(17)             -0.00218       1.32447       0.47260       0.44180
     5  O(17)              0.02553     -15.47751      -5.52276      -5.16274
     6  C(13)             -0.00113      -1.26626      -0.45183      -0.42238
     7  H(1)               0.00001       0.02325       0.00830       0.00776
     8  H(1)               0.00005       0.20953       0.07476       0.06989

 Normal termination of Gaussian 16 at Wed Apr  9 00:00:17 2025.
