 Gaussian 16, Revision C.01,

 ----------------------------------------------------------------------
 #t hf aug-cc-pvdz symm=none int=(grid=ultrafine) guess=(read,tcheck) s
 table=(opt,rrhf)
 ----------------------------------------------------------------------
 -----
 title
 -----
 Symbolic Z-matrix:
 Charge =  0 Multiplicity = 1

 SCF Done:  E(RHF) =  -1007.94181168     A.U. after   15 cycles
 Normal termination of Gaussian 16 at Tue Apr  8 23:17:41 2025.
 Gaussian 16:  ES64L-G16RevC.01  3-Jul-2019

 ----------------------------------------------------------------------
 #t hf aug-cc-pvdz iop(5/13=1,5/36=2,99/5=2) pseudo=read geom=check gue
 ss=(read,tcheck) scf=(maxcycle=1)
 ----------------------------------------------------------------------
 -----
 title
 -----
 Structure from the checkpoint file:  "BDE49_expt_499_mol1.chk"
 Charge =  0 Multiplicity = 1

                         Standard orientation:
 ---------------------------------------------------------------------
 Center     Atomic      Atomic             Coordinates (Angstroms)
 Number     Number       Type             X           Y           Z
 ---------------------------------------------------------------------
      1          6           0        2.824741    0.398992   -1.364663
      2          6           0        1.542773    0.221675   -0.852036
      3          6           0        3.943335    0.364508   -0.535427
      4          6           0        3.765233    0.147785    0.829413
      5          6           0        2.490802   -0.029846    1.355099
      6          6           0        1.364120    0.005373    0.521241
      7          1           0        0.686449    0.246512   -1.512010
      8          1           0        2.945119    0.564643   -2.429652
      9          1           0        4.622182    0.116320    1.493132
     10          1           0        2.361723   -0.196859    2.420076
     11          7           0        0.091207   -0.176420    1.093315
     12         15           0       -1.434691   -0.173149    0.405202
     13          8           0       -2.423414   -0.407451    1.463645
     14          1           0        0.069910   -0.342907    2.088939
     15          8           0       -1.428220   -1.175161   -0.827025
     16          8           0       -1.540298    1.163301   -0.450875
     17          6           0       -1.751426   -2.582255   -0.653269
     18          6           0       -0.492616   -3.430512   -0.630495
     19          1           0       -2.382104   -2.833655   -1.506950
     20          1           0       -2.340794   -2.699438    0.258499
     21          1           0        0.098061   -3.271433   -1.534874
     22          1           0       -0.764275   -4.488910   -0.576956
     23          1           0        0.130649   -3.192792    0.233742
     24          6           0       -1.559620    2.449234    0.221149
     25          6           0       -1.775163    3.518262   -0.829973
     26          1           0       -0.606619    2.587946    0.740112
     27          1           0       -2.364756    2.444568    0.960080
     28          1           0       -0.968788    3.504704   -1.566023
     29          1           0       -1.796479    4.503913   -0.357169
     30          1           0       -2.722651    3.361679   -1.349258
     31          1           0        4.936679    0.503083   -0.945106
 ---------------------------------------------------------------------

 SCF Done:  E(RHF) =  -1008.67364346     A.U. after    2 cycles

 The electronic state is 1-A.
 Alpha  occ. eigenvalues --  -84.43307 -20.57042 -20.56942 -20.49391 -15.52327
 Alpha  occ. eigenvalues --  -11.30405 -11.30335 -11.29828 -11.25051 -11.24911
 Alpha  occ. eigenvalues --  -11.24332 -11.23845 -11.23679 -11.23573 -11.23482
 Alpha  occ. eigenvalues --   -6.88286  -4.42633  -4.41861  -4.41781  -1.52664
 Alpha  occ. eigenvalues --   -1.46213  -1.38407  -1.24048  -1.14210  -1.04855
 Alpha  occ. eigenvalues --   -1.02685  -1.02282  -1.00723  -0.89316  -0.85498
 Alpha  occ. eigenvalues --   -0.85043  -0.84857  -0.79111  -0.74640  -0.71824
 Alpha  occ. eigenvalues --   -0.70571  -0.68845  -0.67210  -0.65594  -0.63302
 Alpha  occ. eigenvalues --   -0.62908  -0.61829  -0.60184  -0.59573  -0.58956
 Alpha  occ. eigenvalues --   -0.57101  -0.56262  -0.55190  -0.54398  -0.53520
 Alpha  occ. eigenvalues --   -0.52944  -0.51141  -0.50980  -0.49544  -0.48525
 Alpha  occ. eigenvalues --   -0.47707  -0.46706  -0.45145  -0.44534  -0.35281
 Alpha  occ. eigenvalues --   -0.32313
 Alpha virt. eigenvalues --    0.03213   0.03365   0.03774   0.03975   0.04409
 Alpha virt. eigenvalues --    0.04664   0.05209   0.05392   0.05610   0.07039
 Alpha virt. eigenvalues --    0.07565   0.07746   0.08415   0.08689   0.09471

 Mulliken charges:
               1
     1  C    0.394057
     2  C    0.619900
     3  C    0.158692
     4  C    0.542216
     5  C    0.502950
     6  C   -1.610646
     7  H   -0.712500
     8  H   -0.263502
     9  H   -0.246503
    10  H   -0.374818
    11  N    1.174727
    12  P    4.645870
    13  O   -1.634423
    14  H   -0.263472
    15  O   -1.661544
    16  O   -1.917847
    17  C    0.255842
    18  C   -0.388240
    19  H   -0.012637
    20  H    0.180124
    21  H    0.199589
    22  H    0.118449
    23  H    0.128964
    24  C    0.267564
    25  C   -0.564904
    26  H    0.113192
    27  H    0.100407
    28  H    0.166798
    29  H    0.143679
    30  H    0.172959
    31  H   -0.234943
 Sum of Mulliken charges =  -0.00000

 Dipole moment (field-independent basis, Debye):
    X=              2.2173    Y=              0.2260    Z=             -0.7904  Tot=              2.3648

 Test job not archived.
 1\1\GINC-SE072\SP\RHF\Aug-CC-pVDZ\C10H16N1O3P1\OHZDE\08-Apr-2025\0\\#t
  hf aug-cc-pvdz iop(5/13=1,5/36=2,99/5=2) pseudo=read geom=check guess
 =(read,tcheck) scf=(maxcycle=1)\\title\\0,1\C,0,-2.824741,-0.398992,-1
 .364663\C,0,-1.542773,-0.221675,-0.852036\C,0,-3.943335,-0.364508,-0.5
 35427\C,0,-3.765233,-0.147785,0.829413\C,0,-2.490802,0.029846,1.355099
 \C,0,-1.36412,-0.005373,0.521241\H,0,-0.686449,-0.246512,-1.51201\H,0,
 -2.945119,-0.564643,-2.429652\H,0,-4.622182,-0.11632,1.493132\H,0,-2.3
 61723,0.196859,2.420076\N,0,-0.091207,0.17642,1.093315\P,0,1.434691,0.

 Normal termination of Gaussian 16 at Tue Apr  8 23:18:22 2025.
