 Gaussian 16, Revision C.01,

 ----------------------------------------------------------------------
 #t hf aug-cc-pvdz symm=none int=(grid=ultrafine) guess=(read,tcheck) s
 table=(opt,rrhf)
 ----------------------------------------------------------------------
 -----
 title
 -----
 Symbolic Z-matrix:
 Charge =  0 Multiplicity = 1

 SCF Done:  E(RHF) =  -402.582139486     A.U. after   14 cycles
 Normal termination of Gaussian 16 at Tue Apr  8 23:20:57 2025.
 Gaussian 16:  ES64L-G16RevC.01  3-Jul-2019

 ----------------------------------------------------------------------
 #t hf aug-cc-pvdz iop(5/13=1,5/36=2,99/5=2) pseudo=read geom=check gue
 ss=(read,tcheck) scf=(maxcycle=1)
 ----------------------------------------------------------------------
 -----
 title
 -----
 Structure from the checkpoint file:  "BDE49_nonexpt_1166_mol1.chk"
 Charge =  0 Multiplicity = 1

                         Standard orientation:
 ---------------------------------------------------------------------
 Center     Atomic      Atomic             Coordinates (Angstroms)
 Number     Number       Type             X           Y           Z
 ---------------------------------------------------------------------
      1          9           0       -1.033782    1.358102   -0.503123
      2          8           0       -0.658936    0.729854    0.747470
      3          6           0       -0.187071   -0.582679    0.411198
      4          8           0        0.903610   -0.551310   -0.431595
      5          8           0       -1.147361   -1.384078   -0.134052
      6          6           0        1.991954    0.271098   -0.003640
      7          1           0        1.719839    1.328027   -0.030171
      8          1           0        2.804588    0.079495   -0.701849
      9          1           0        2.313728    0.001453    1.009097
     10          1           0       -1.185202   -1.181610   -1.077787
     11          1           0        0.043291   -0.936527    1.428884
 ---------------------------------------------------------------------

 SCF Done:  E(RHF) =  -402.975513453     A.U. after    2 cycles

 The electronic state is 1-A.
 Alpha  occ. eigenvalues --  -26.50717 -20.68168 -20.58566 -20.58395 -11.43001
 Alpha  occ. eigenvalues --  -11.30469  -1.66459  -1.54670  -1.47040  -1.36565
 Alpha  occ. eigenvalues --   -0.98558  -0.90166  -0.77670  -0.74863  -0.73749
 Alpha  occ. eigenvalues --   -0.69228  -0.65326  -0.64225  -0.60778  -0.59340
 Alpha  occ. eigenvalues --   -0.56664  -0.53897  -0.51378  -0.50078  -0.46921
 Alpha virt. eigenvalues --    0.03468   0.04382   0.04863   0.05999   0.06832
 Alpha virt. eigenvalues --    0.10142   0.11318   0.12766   0.13453   0.14973
 Alpha virt. eigenvalues --    0.15462   0.16267   0.17238   0.18607   0.21883

 Mulliken charges:
               1
     1  F   -0.475313
     2  O   -0.569212
     3  C    2.621837
     4  O   -1.293570
     5  O   -1.193468
     6  C    0.153439
     7  H    0.177366
     8  H   -0.000640
     9  H    0.174929
    10  H    0.288070
    11  H    0.116564
 Sum of Mulliken charges =   0.00000

 Dipole moment (field-independent basis, Debye):
    X=              2.2401    Y=             -0.3132    Z=              0.2210  Tot=              2.2727

 Test job not archived.
 1\1\GINC-SE364\SP\RHF\Aug-CC-pVDZ\C2H5F1O3\OHZDE\08-Apr-2025\0\\#t hf
 aug-cc-pvdz iop(5/13=1,5/36=2,99/5=2) pseudo=read geom=check guess=(re
 ad,tcheck) scf=(maxcycle=1)\\title\\0,1\F,0,1.033783,-1.358102,-0.5031
 23\O,0,0.658936,-0.729854,0.74747\C,0,0.187071,0.582679,0.411198\O,0,-
 0.90361,0.55131,-0.431595\O,0,1.147361,1.384078,-0.134052\C,0,-1.99195
 4,-0.271099,-0.00364\H,0,-1.719838,-1.328028,-0.030171\H,0,-2.804588,-
 0.079496,-0.701849\H,0,-2.313728,-0.001454,1.009097\H,0,1.185202,1.181
 61,-1.077787\H,0,-0.043291,0.936527,1.428884\\Version=ES64L-G16RevC.01

 Normal termination of Gaussian 16 at Tue Apr  8 23:21:00 2025.
