 Gaussian 16, Revision C.01,

 ----------------------------------------------------------------------
 #t hf aug-cc-pvdz symm=none int=(grid=ultrafine) guess=(read,tcheck) s
 table=(opt,rrhf)
 ----------------------------------------------------------------------
 -----
 title
 -----
 Symbolic Z-matrix:
 Charge =  0 Multiplicity = 1

 SCF Done:  E(RHF) =  -407.375992295     A.U. after   12 cycles
 Normal termination of Gaussian 16 at Wed Apr  9 00:40:21 2025.
 Gaussian 16:  ES64L-G16RevC.01  3-Jul-2019

 ----------------------------------------------------------------------
 #t hf aug-cc-pvdz iop(5/13=1,5/36=2,99/5=2) pseudo=read geom=check gue
 ss=(read,tcheck) scf=(maxcycle=1)
 ----------------------------------------------------------------------
 -----
 title
 -----
 Structure from the checkpoint file:  "BDE49_nonexpt_626_mol1.chk"
 Charge =  0 Multiplicity = 1

                         Standard orientation:
 ---------------------------------------------------------------------
 Center     Atomic      Atomic             Coordinates (Angstroms)
 Number     Number       Type             X           Y           Z
 ---------------------------------------------------------------------
      1          8           0       -0.741920   -0.958926    0.027534
      2          5           0       -1.637790    0.067597    0.004328
      3          8           0       -2.700633    0.052954    0.872279
      4          6           0        0.384095   -1.019547   -0.860730
      5          6           0        1.685834   -1.093292   -0.068635
      6          1           0        0.371863   -0.157807   -1.531432
      7          6           0        1.976527    0.124350    0.821288
      8          1           0        2.503538   -1.228246   -0.788432
      9          1           0        1.661125   -1.996251    0.551093
     10          6           0        2.147323    1.443536    0.059303
     11          1           0        2.886067   -0.081998    1.395840
     12          1           0        1.171985    0.226388    1.557029
     13          1           0        2.932580    1.363567   -0.699889
     14          1           0        2.428755    2.251683    0.740108
     15          1           0        1.223922    1.743890   -0.441705
     16          1           0        0.268651   -1.922788   -1.467253
     17          1           0       -2.691990   -0.732472    1.426889
     18          8           0       -1.498243    1.118902   -0.864318
     19          1           0       -2.203852    1.762320   -0.755201
 ---------------------------------------------------------------------

 SCF Done:  E(RHF) =  -407.799690862     A.U. after    2 cycles

 The electronic state is 1-A.
 Alpha  occ. eigenvalues --  -20.55381 -20.55171 -20.54166 -11.28459 -11.22811
 Alpha  occ. eigenvalues --  -11.22544 -11.21794  -7.66030  -1.49422  -1.44197
 Alpha  occ. eigenvalues --   -1.43787  -1.07088  -0.97710  -0.87944  -0.78842
 Alpha  occ. eigenvalues --   -0.77088  -0.73877  -0.68899  -0.65881  -0.62802
 Alpha  occ. eigenvalues --   -0.58916  -0.58364  -0.56518  -0.56133  -0.55453
 Alpha  occ. eigenvalues --   -0.53438  -0.50425  -0.49379  -0.48551  -0.47601
 Alpha  occ. eigenvalues --   -0.46329  -0.44102
 Alpha virt. eigenvalues --    0.03550   0.03721   0.03879   0.04060   0.05843
 Alpha virt. eigenvalues --    0.06020   0.06258   0.06671   0.07141   0.08930
 Alpha virt. eigenvalues --    0.09097   0.09366   0.10342   0.10872   0.11814

 Mulliken charges:
               1
     1  O   -1.255163
     2  B    2.132887
     3  O   -1.384219
     4  C    0.641635
     5  C   -0.364184
     6  H    0.166653
     7  C   -0.338223
     8  H    0.170500
     9  H    0.124530
    10  C   -0.280424
    11  H    0.121190
    12  H    0.142272
    13  H    0.161683
    14  H    0.100975
    15  H    0.107886
    16  H    0.056612
    17  H    0.481634
    18  O   -1.213309
    19  H    0.427066
 Sum of Mulliken charges =   0.00000

 Dipole moment (field-independent basis, Debye):
    X=              0.3434    Y=             -0.3134    Z=              0.0672  Tot=              0.4697

 Test job not archived.
 1\1\GINC-SE048\SP\RHF\Aug-CC-pVDZ\C4H11B1O3\OHZDE\09-Apr-2025\0\\#t hf
  aug-cc-pvdz iop(5/13=1,5/36=2,99/5=2) pseudo=read geom=check guess=(r
 ead,tcheck) scf=(maxcycle=1)\\title\\0,1\O,0,-0.74192,-0.958926,0.0275
 34\B,0,-1.63779,0.067597,0.004328\O,0,-2.700633,0.052954,0.872279\C,0,
 0.384095,-1.019547,-0.86073\C,0,1.685834,-1.093292,-0.068635\H,0,0.371
 863,-0.157807,-1.531432\C,0,1.976527,0.12435,0.821288\H,0,2.503538,-1.
 228246,-0.788432\H,0,1.661125,-1.996251,0.551093\C,0,2.147323,1.443536
 ,0.059303\H,0,2.886067,-0.081998,1.39584\H,0,1.171985,0.226388,1.55702

 Normal termination of Gaussian 16 at Wed Apr  9 00:40:30 2025.
