 Gaussian 16, Revision C.01,

 ----------------------------------------------------------------------
 #t hf aug-cc-pvdz symm=none int=(grid=ultrafine) guess=(read,tcheck) s
 table=(opt,rrhf)
 ----------------------------------------------------------------------
 -----
 title
 -----
 Symbolic Z-matrix:
 Charge =  0 Multiplicity = 1

 SCF Done:  E(RHF) =  -1018.84737122     A.U. after   15 cycles
 Normal termination of Gaussian 16 at Tue Apr  8 23:47:23 2025.
 Gaussian 16:  ES64L-G16RevC.01  3-Jul-2019

 ----------------------------------------------------------------------
 #t hf aug-cc-pvdz iop(5/13=1,5/36=2,99/5=2) pseudo=read geom=check gue
 ss=(read,tcheck) scf=(maxcycle=1)
 ----------------------------------------------------------------------
 -----
 title
 -----
 Structure from the checkpoint file:  "BDE49_nonexpt_1774_mol1.chk"
 Charge =  0 Multiplicity = 1

                         Standard orientation:
 ---------------------------------------------------------------------
 Center     Atomic      Atomic             Coordinates (Angstroms)
 Number     Number       Type             X           Y           Z
 ---------------------------------------------------------------------
      1          6           0       -0.530990   -1.201861   -0.283885
      2          6           0       -1.890308   -1.200087    0.009912
      3          6           0       -2.593489    0.000001    0.160104
      4          6           0       -1.890308    1.200089    0.009913
      5          6           0       -0.530989    1.201862   -0.283883
      6          6           0        0.178215    0.000001   -0.435673
      7          1           0       -0.018147   -2.152324   -0.393863
      8          1           0       -2.414166   -2.143617    0.125508
      9         14           0        1.995880    0.000002   -0.818204
     10          6           0       -4.074456   -0.000002    0.447819
     11          1           0       -0.018146    2.152326   -0.393859
     12         17           0        3.150368   -0.000002    0.930150
     13          1           0       -4.370209   -0.884792    1.015790
     14          1           0       -4.651899   -0.000110   -0.483223
     15          1           0       -4.370248    0.884888    1.015613
     16          1           0       -2.414166    2.143618    0.125511
     17          1           0        2.376182    1.219433   -1.557504
     18          1           0        2.376182   -1.219426   -1.557509
 ---------------------------------------------------------------------

 SCF Done:  E(RHF) =  -1019.23929068     A.U. after    2 cycles

 The electronic state is 1-A.
 Alpha  occ. eigenvalues -- -105.54696 -69.57467 -11.26375 -11.25892 -11.25877
 Alpha  occ. eigenvalues --  -11.24674 -11.24673 -11.24461 -11.23832 -10.59683
 Alpha  occ. eigenvalues --   -7.76569  -7.76269  -7.76267  -6.24129  -3.99552
 Alpha  occ. eigenvalues --   -3.99418  -3.99417  -1.16617  -1.05999  -1.03848
 Alpha  occ. eigenvalues --   -1.02572  -0.94734  -0.84607  -0.82161  -0.74974
 Alpha  occ. eigenvalues --   -0.67671  -0.66517  -0.64349  -0.60683  -0.59222
 Alpha  occ. eigenvalues --   -0.56027  -0.55961  -0.53584  -0.52783  -0.50624
 Alpha  occ. eigenvalues --   -0.50183  -0.49440  -0.44704  -0.44532  -0.35553
 Alpha  occ. eigenvalues --   -0.34737
 Alpha virt. eigenvalues --    0.03251   0.03458   0.03606   0.04471   0.04864
 Alpha virt. eigenvalues --    0.05233   0.05602   0.07193   0.08007   0.08421
 Alpha virt. eigenvalues --    0.08897   0.09125   0.09716   0.10541   0.11233

 Mulliken charges:
               1
     1  C    0.281054
     2  C    0.863985
     3  C    0.230346
     4  C    0.863931
     5  C    0.281051
     6  C   -1.247971
     7  H   -0.324461
     8  H   -0.292417
     9  Si   1.081351
    10  C   -0.718218
    11  H   -0.324458
    12  Cl  -0.614759
    13  H    0.117473
    14  H    0.273522
    15  H    0.117429
    16  H   -0.292418
    17  H   -0.147720
    18  H   -0.147720
 Sum of Mulliken charges =   0.00000

 Dipole moment (field-independent basis, Debye):
    X=             -2.9385    Y=             -0.0000    Z=             -1.1085  Tot=              3.1406

 Test job not archived.
 1\1\GINC-SE333\SP\RHF\Aug-CC-pVDZ\C7H9Cl1Si1\OHZDE\08-Apr-2025\0\\#t h
 f aug-cc-pvdz iop(5/13=1,5/36=2,99/5=2) pseudo=read geom=check guess=(
 read,tcheck) scf=(maxcycle=1)\\title\\0,1\C,0,-0.53099,-1.201861,-0.28
 3885\C,0,-1.890308,-1.200087,0.009912\C,0,-2.593489,0.000001,0.160104\
 C,0,-1.890308,1.200089,0.009913\C,0,-0.530989,1.201862,-0.283883\C,0,0
 .178215,0.000001,-0.435673\H,0,-0.018147,-2.152324,-0.393863\H,0,-2.41
 4166,-2.143617,0.125508\Si,0,1.99588,0.000002,-0.818204\C,0,-4.074456,
 -0.000002,0.447819\H,0,-0.018146,2.152326,-0.393859\Cl,0,3.150368,-0.0

 Normal termination of Gaussian 16 at Tue Apr  8 23:47:32 2025.
