 Gaussian 16, Revision C.01,

 ----------------------------------------------------------------------
 #t hf aug-cc-pvdz symm=none int=(grid=ultrafine) guess=(read,tcheck) s
 table=(opt,rrhf)
 ----------------------------------------------------------------------
 -----
 title
 -----
 Symbolic Z-matrix:
 Charge =  0 Multiplicity = 1

 SCF Done:  E(RHF) =  -189.830697362     A.U. after   13 cycles
 Normal termination of Gaussian 16 at Tue Apr  8 23:02:38 2025.
 Gaussian 16:  ES64L-G16RevC.01  3-Jul-2019

 ----------------------------------------------------------------------
 #t hf aug-cc-pvdz iop(5/13=1,5/36=2,99/5=2) pseudo=read geom=check gue
 ss=(read,tcheck) scf=(maxcycle=1)
 ----------------------------------------------------------------------
 -----
 title
 -----
 Structure from the checkpoint file:  "BDE49_expt_276_mol1.chk"
 Charge =  0 Multiplicity = 1

                         Standard orientation:
 ---------------------------------------------------------------------
 Center     Atomic      Atomic             Coordinates (Angstroms)
 Number     Number       Type             X           Y           Z
 ---------------------------------------------------------------------
      1          6           0       -1.129626   -0.223655    0.026722
      2          8           0        0.016209    0.606861   -0.031369
      3          1           0       -1.189210   -0.877972   -0.848559
      4          1           0       -1.972936    0.471234    0.024141
      5          1           0       -1.144269   -0.825446    0.942264
      6          8           0        1.164109   -0.285511   -0.090729
      7          1           0        1.641628    0.003318    0.698603
 ---------------------------------------------------------------------

 SCF Done:  E(RHF) =  -190.022327474     A.U. after    2 cycles

 The electronic state is 1-A.
 Alpha  occ. eigenvalues --  -20.61344 -20.61305 -11.29193  -1.58000  -1.29368
 Alpha  occ. eigenvalues --   -0.92447  -0.71946  -0.66171  -0.64634  -0.59588
 Alpha  occ. eigenvalues --   -0.52924  -0.49134  -0.44146
 Alpha virt. eigenvalues --    0.03714   0.04774   0.05886   0.06022   0.10620
 Alpha virt. eigenvalues --    0.14761   0.15225   0.16711   0.17305   0.19140
 Alpha virt. eigenvalues --    0.21699   0.23628   0.25741   0.26934   0.28665

 Mulliken charges:
               1
     1  C    0.406088
     2  O   -0.669167
     3  H    0.137761
     4  H    0.061438
     5  H    0.130325
     6  O   -0.480476
     7  H    0.414031
 Sum of Mulliken charges =  -0.00000

 Dipole moment (field-independent basis, Debye):
    X=             -0.7174    Y=             -0.4682    Z=              1.4038  Tot=              1.6446

 Test job not archived.
 1\1\GINC-SE232\SP\RHF\Aug-CC-pVDZ\C1H4O2\OHZDE\08-Apr-2025\0\\#t hf au
 g-cc-pvdz iop(5/13=1,5/36=2,99/5=2) pseudo=read geom=check guess=(read
 ,tcheck) scf=(maxcycle=1)\\title\\0,1\C,0,-1.129626,-0.223655,0.026722
 \O,0,0.016209,0.606861,-0.031369\H,0,-1.18921,-0.877972,-0.848559\H,0,
 -1.972936,0.471234,0.024141\H,0,-1.144269,-0.825446,0.942264\O,0,1.164
 109,-0.285511,-0.090729\H,0,1.641628,0.003318,0.698603\\Version=ES64L-
 G16RevC.01\State=1-A\HF=-190.0223275\RMSD=7.729e-03\Dipole=-0.2822551,
 -0.1842188,0.5523062\Quadrupole=1.9406003,-1.7182669,-0.2223333,0.4435

 Normal termination of Gaussian 16 at Tue Apr  8 23:02:40 2025.
