 Gaussian 16, Revision C.01,

 ----------------------------------------------------------------------
 #t hf aug-cc-pvdz symm=none int=(grid=ultrafine) guess=(read,tcheck) s
 table=(opt,rrhf)
 ----------------------------------------------------------------------
 -----
 title
 -----
 Symbolic Z-matrix:
 Charge =  0 Multiplicity = 1

 SCF Done:  E(RHF) =  -978.912259743     A.U. after   11 cycles

 1\1\GINC-SE396\Stability\RHF\Aug-CC-pVDZ\H6S1Si2\OHZDE\09-Apr-2025\0\\
 #t hf aug-cc-pvdz symm=none int=(grid=ultrafine) guess=(read,tcheck) s
 table=(opt,rrhf)\\title\\0,1\Si,0,1.879524,-0.36485,0.000016\Si,0,-0.1
 3001,0.866589,0.000008\H,0,1.961185,-1.218533,1.207891\H,0,3.01935,0.5
 83655,0.000044\H,0,1.961215,-1.218499,-1.20788\S,0,-1.766887,-0.562678
 ,-0.000025\H,0,-0.208819,1.736334,-1.198421\H,0,-0.208844,1.736309,1.1
 98454\H,0,-2.747084,0.359234,-0.000031\\Version=ES64L-G16RevC.01\HF=-9
 78.9122597\RMSD=3.483e-09\Dipole=0.1347948,0.4606203,0.0000044\Quadrup

 Normal termination of Gaussian 16 at Wed Apr  9 00:12:33 2025.
 Gaussian 16:  ES64L-G16RevC.01  3-Jul-2019

 ----------------------------------------------------------------------
 #t hf aug-cc-pvdz iop(5/13=1,5/36=2,99/5=2) pseudo=read geom=check gue
 ss=(read,tcheck) scf=(maxcycle=1)
 ----------------------------------------------------------------------
 -----
 title
 -----
 Structure from the checkpoint file:  "BDE49_nonexpt_2414_mol1.chk"
 Charge =  0 Multiplicity = 1

                         Standard orientation:
 ---------------------------------------------------------------------
 Center     Atomic      Atomic             Coordinates (Angstroms)
 Number     Number       Type             X           Y           Z
 ---------------------------------------------------------------------
      1         14           0        1.879524   -0.364850    0.000016
      2         14           0       -0.130010    0.866589    0.000008
      3          1           0        1.961185   -1.218533    1.207891
      4          1           0        3.019350    0.583655    0.000044
      5          1           0        1.961215   -1.218499   -1.207880
      6         16           0       -1.766887   -0.562678   -0.000025
      7          1           0       -0.208819    1.736334   -1.198421
      8          1           0       -0.208844    1.736309    1.198454
      9          1           0       -2.747084    0.359234   -0.000031
 ---------------------------------------------------------------------

 SCF Done:  E(RHF) =  -979.045166746     A.U. after    2 cycles

 The electronic state is 1-A.
 Alpha  occ. eigenvalues --  -93.94985 -69.55876 -69.53505  -8.23244  -6.22815
 Alpha  occ. eigenvalues --   -6.21065  -6.20953  -6.20728  -6.20726  -3.98195
 Alpha  occ. eigenvalues --   -3.98099  -3.98076  -3.96078  -3.96077  -3.96072
 Alpha  occ. eigenvalues --   -1.00824  -0.78141  -0.69511  -0.56790  -0.52225
 Alpha  occ. eigenvalues --   -0.49917  -0.48944  -0.45598  -0.42052  -0.38391
 Alpha virt. eigenvalues --    0.03593   0.03838   0.04631   0.06039   0.06694
 Alpha virt. eigenvalues --    0.07188   0.07694   0.08513   0.09019   0.09606
 Alpha virt. eigenvalues --    0.10317   0.10592   0.12060   0.13135   0.13699

 Mulliken charges:
               1
     1  Si   0.377068
     2  Si   0.764908
     3  H   -0.123712
     4  H   -0.122748
     5  H   -0.123712
     6  S   -0.824867
     7  H   -0.119352
     8  H   -0.119352
     9  H    0.291769
 Sum of Mulliken charges =  -0.00000

 Dipole moment (field-independent basis, Debye):
    X=              0.3353    Y=              1.2103    Z=              0.0000  Tot=              1.2559

 Test job not archived.
 1\1\GINC-SE396\SP\RHF\Aug-CC-pVDZ\H6S1Si2\OHZDE\09-Apr-2025\0\\#t hf a
 ug-cc-pvdz iop(5/13=1,5/36=2,99/5=2) pseudo=read geom=check guess=(rea
 d,tcheck) scf=(maxcycle=1)\\title\\0,1\Si,0,1.879524,-0.36485,0.000016
 \Si,0,-0.13001,0.866589,0.000008\H,0,1.961185,-1.218533,1.207891\H,0,3
 .01935,0.583655,0.000044\H,0,1.961215,-1.218499,-1.20788\S,0,-1.766887
 ,-0.562678,-0.000025\H,0,-0.208819,1.736334,-1.198421\H,0,-0.208844,1.
 736309,1.198454\H,0,-2.747084,0.359234,-0.000031\\Version=ES64L-G16Rev
 C.01\State=1-A\HF=-979.0451667\RMSD=3.831e-03\Dipole=0.1319355,0.47616

 Normal termination of Gaussian 16 at Wed Apr  9 00:12:35 2025.
