 Gaussian 16, Revision C.01,

 ----------------------------------------------------------------------
 #t hf aug-cc-pvdz symm=none int=(grid=ultrafine) guess=(read,tcheck) s
 table=(opt,rrhf)
 ----------------------------------------------------------------------
 -----
 title
 -----
 Symbolic Z-matrix:
 Charge =  0 Multiplicity = 1

 SCF Done:  E(RHF) =  -957.425658620     A.U. after   15 cycles
 Normal termination of Gaussian 16 at Wed Apr  9 00:15:58 2025.
 Gaussian 16:  ES64L-G16RevC.01  3-Jul-2019

 ----------------------------------------------------------------------
 #t hf aug-cc-pvdz iop(5/13=1,5/36=2,99/5=2) pseudo=read geom=check gue
 ss=(read,tcheck) scf=(maxcycle=1)
 ----------------------------------------------------------------------
 -----
 title
 -----
 Structure from the checkpoint file:  "BDE49_nonexpt_2479_mol1.chk"
 Charge =  0 Multiplicity = 1

                         Standard orientation:
 ---------------------------------------------------------------------
 Center     Atomic      Atomic             Coordinates (Angstroms)
 Number     Number       Type             X           Y           Z
 ---------------------------------------------------------------------
      1         16           0        2.647403   -0.423507   -0.250089
      2         14           0        1.103796    1.033102   -0.622331
      3          6           0       -0.621845    0.386542   -0.272630
      4          6           0       -1.077572   -0.825806   -0.816709
      5          6           0       -2.369565   -1.280445   -0.569690
      6          6           0       -1.503304    1.123165    0.533641
      7          6           0       -2.797992    0.670301    0.783098
      8          6           0       -3.232355   -0.531805    0.230655
      9          1           0       -4.238637   -0.886696    0.424056
     10          1           0       -2.704509   -2.218132   -0.999365
     11          1           0       -0.414165   -1.422660   -1.434651
     12          1           0       -1.177116    2.061058    0.972293
     13          1           0       -3.464433    1.253757    1.408788
     14          6           0        2.369192   -0.786265    1.533511
     15          1           0        2.557729    0.096557    2.144198
     16          1           0        3.080980   -1.565342    1.805286
     17          1           0        1.357100   -1.152192    1.702754
     18          1           0        1.295440    1.367174   -2.051547
     19          1           0        1.296666    2.245040    0.210992
 ---------------------------------------------------------------------

 SCF Done:  E(RHF) =  -957.803143072     A.U. after    2 cycles

 The electronic state is 1-A.
 Alpha  occ. eigenvalues --  -93.93185 -69.55090 -11.26925 -11.25465 -11.25356
 Alpha  occ. eigenvalues --  -11.25285 -11.24918 -11.24887 -11.23779  -8.21450
 Alpha  occ. eigenvalues --   -6.21928  -6.19249  -6.19114  -6.18918  -3.97317
 Alpha  occ. eigenvalues --   -3.97237  -3.97225  -1.15864  -1.05138  -1.02283
 Alpha  occ. eigenvalues --   -1.02097  -0.88390  -0.83958  -0.83645  -0.74189
 Alpha  occ. eigenvalues --   -0.69240  -0.64709  -0.64068  -0.60600  -0.59806
 Alpha  occ. eigenvalues --   -0.59714  -0.56856  -0.52295  -0.51521  -0.50934
 Alpha  occ. eigenvalues --   -0.47924  -0.47014  -0.42704  -0.36285  -0.35287
 Alpha  occ. eigenvalues --   -0.34871
 Alpha virt. eigenvalues --    0.03173   0.03468   0.03734   0.04251   0.05152
 Alpha virt. eigenvalues --    0.05190   0.06209   0.06890   0.07008   0.07850
 Alpha virt. eigenvalues --    0.08080   0.08845   0.09720   0.10855   0.11471

 Mulliken charges:
               1
     1  S   -0.409672
     2  Si   1.010735
     3  C   -0.302722
     4  C    0.231499
     5  C    0.404348
     6  C    0.160991
     7  C    0.441799
     8  C    0.307686
     9  H   -0.212397
    10  H   -0.220461
    11  H   -0.359136
    12  H   -0.327766
    13  H   -0.216930
    14  C   -0.621325
    15  H    0.143552
    16  H    0.135394
    17  H    0.106134
    18  H   -0.129975
    19  H   -0.141754
 Sum of Mulliken charges =   0.00000

 Dipole moment (field-independent basis, Debye):
    X=             -1.7992    Y=             -0.1428    Z=              1.5257  Tot=              2.3633

 Test job not archived.
 1\1\GINC-SE419\SP\RHF\Aug-CC-pVDZ\C7H10S1Si1\OHZDE\09-Apr-2025\0\\#t h
 f aug-cc-pvdz iop(5/13=1,5/36=2,99/5=2) pseudo=read geom=check guess=(
 read,tcheck) scf=(maxcycle=1)\\title\\0,1\S,0,2.647403,-0.423507,-0.25
 0089\Si,0,1.103796,1.033102,-0.622331\C,0,-0.621845,0.386542,-0.27263\
 C,0,-1.077572,-0.825806,-0.816709\C,0,-2.369565,-1.280445,-0.56969\C,0
 ,-1.503304,1.123165,0.533641\C,0,-2.797992,0.670301,0.783098\C,0,-3.23
 2355,-0.531805,0.230655\H,0,-4.238637,-0.886696,0.424056\H,0,-2.704509
 ,-2.218132,-0.999365\H,0,-0.414165,-1.42266,-1.434651\H,0,-1.177116,2.

 Normal termination of Gaussian 16 at Wed Apr  9 00:16:08 2025.
