 Gaussian 16, Revision C.01,

 ----------------------------------------------------------------------
 #t hf aug-cc-pvdz symm=none int=(grid=ultrafine) guess=(read,tcheck) s
 table=(opt,rrhf)
 ----------------------------------------------------------------------
 -----
 title
 -----
 Symbolic Z-matrix:
 Charge =  0 Multiplicity = 1

 SCF Done:  E(RHF) =  -1933.89423900     A.U. after   13 cycles
 Normal termination of Gaussian 16 at Tue Apr  8 23:49:02 2025.
 Gaussian 16:  ES64L-G16RevC.01  3-Jul-2019

 ----------------------------------------------------------------------
 #t hf aug-cc-pvdz iop(5/13=1,5/36=2,99/5=2) pseudo=read geom=check gue
 ss=(read,tcheck) scf=(maxcycle=1)
 ----------------------------------------------------------------------
 -----
 title
 -----
 Structure from the checkpoint file:  "BDE49_nonexpt_1813_mol1.chk"
 Charge =  0 Multiplicity = 1

                         Standard orientation:
 ---------------------------------------------------------------------
 Center     Atomic      Atomic             Coordinates (Angstroms)
 Number     Number       Type             X           Y           Z
 ---------------------------------------------------------------------
      1          6           0       -0.785408    0.851951   -0.000001
      2          8           0       -0.897487    2.049865   -0.000009
      3         14           0        0.903417   -0.061970    0.000001
      4          8           0       -1.798437   -0.025074    0.000001
      5         17           0        1.064105   -1.237451   -1.676478
      6         17           0        1.064116   -1.237420    1.676500
      7         17           0        2.391974    1.337609   -0.000017
      8          6           0       -3.149867    0.527988   -0.000003
      9          6           0       -4.116217   -0.636455    0.000001
     10          1           0       -3.258883    1.160297   -0.883551
     11          1           0       -3.258885    1.160304    0.883541
     12          1           0       -3.977047   -1.258704   -0.886245
     13          1           0       -5.142944   -0.261407   -0.000002
     14          1           0       -3.977049   -1.258697    0.886251
 ---------------------------------------------------------------------

 SCF Done:  E(RHF) =  -1934.42278021     A.U. after    2 cycles

 The electronic state is 1-A.
 Alpha  occ. eigenvalues -- -105.59093-105.59093-105.58629 -69.68818 -20.61073
 Alpha  occ. eigenvalues --  -20.56617 -11.40503 -11.31552 -11.24815 -10.64103
 Alpha  occ. eigenvalues --  -10.64093 -10.63656  -7.80996  -7.80990  -7.80658
 Alpha  occ. eigenvalues --   -7.80654  -7.80651  -7.80649  -7.80552  -7.80209
 Alpha  occ. eigenvalues --   -7.80206  -6.34576  -4.09949  -4.09944  -4.09795
 Alpha  occ. eigenvalues --   -1.56245  -1.47569  -1.12396  -1.07073  -1.06894
 Alpha  occ. eigenvalues --   -1.06081  -0.90833  -0.82519  -0.76585  -0.70518
 Alpha  occ. eigenvalues --   -0.70079  -0.67403  -0.61381  -0.59674  -0.58967
 Alpha  occ. eigenvalues --   -0.58402  -0.57025  -0.53594  -0.53253  -0.52442
 Alpha  occ. eigenvalues --   -0.51856  -0.51653  -0.49344  -0.48978  -0.47841
 Alpha  occ. eigenvalues --   -0.47202  -0.43961
 Alpha virt. eigenvalues --    0.03350   0.04302   0.04352   0.05131   0.06084
 Alpha virt. eigenvalues --    0.06784   0.06942   0.07473   0.08839   0.08898
 Alpha virt. eigenvalues --    0.10678   0.11373   0.12246   0.12942   0.13420

 Mulliken charges:
               1
     1  C    1.097017
     2  O   -0.935108
     3  Si   1.858719
     4  O   -1.126718
     5  Cl  -0.514940
     6  Cl  -0.514940
     7  Cl  -0.462197
     8  C    0.369786
     9  C   -0.522597
    10  H    0.115605
    11  H    0.115608
    12  H    0.177087
    13  H    0.165594
    14  H    0.177084
 Sum of Mulliken charges =  -0.00000

 Dipole moment (field-independent basis, Debye):
    X=             -2.5814    Y=             -1.1061    Z=              0.0000  Tot=              2.8084

 Test job not archived.
 1\1\GINC-SE364\SP\RHF\Aug-CC-pVDZ\C3H5Cl3O2Si1\OHZDE\08-Apr-2025\0\\#t
  hf aug-cc-pvdz iop(5/13=1,5/36=2,99/5=2) pseudo=read geom=check guess
 =(read,tcheck) scf=(maxcycle=1)\\title\\0,1\C,0,-0.785408,0.851951,-0.
 000001\O,0,-0.897487,2.049865,-0.000009\Si,0,0.903417,-0.06197,0.00000
 1\O,0,-1.798437,-0.025074,0.000001\Cl,0,1.064105,-1.237451,-1.676478\C
 l,0,1.064116,-1.23742,1.6765\Cl,0,2.391974,1.337608,-0.000017\C,0,-3.1
 49867,0.527988,-0.000003\C,0,-4.116217,-0.636454,0.000001\H,0,-3.25888
 3,1.160297,-0.883551\H,0,-3.258885,1.160304,0.883541\H,0,-3.977047,-1.

 Normal termination of Gaussian 16 at Tue Apr  8 23:49:09 2025.
