 Gaussian 16, Revision C.01,

 ----------------------------------------------------------------------
 #t hf aug-cc-pvdz symm=none int=(grid=ultrafine) guess=(read,tcheck) s
 table=(opt,rrhf)
 ----------------------------------------------------------------------
 -----
 title
 -----
 Symbolic Z-matrix:
 Charge =  0 Multiplicity = 1

 SCF Done:  E(RHF) =  -766.901823806     A.U. after   11 cycles
 Normal termination of Gaussian 16 at Wed Apr  9 00:14:08 2025.
 Gaussian 16:  ES64L-G16RevC.01  3-Jul-2019

 ----------------------------------------------------------------------
 #t hf aug-cc-pvdz iop(5/13=1,5/36=2,99/5=2) pseudo=read geom=check gue
 ss=(read,tcheck) scf=(maxcycle=1)
 ----------------------------------------------------------------------
 -----
 title
 -----
 Structure from the checkpoint file:  "BDE49_nonexpt_2469_mol1.chk"
 Charge =  0 Multiplicity = 1

                         Standard orientation:
 ---------------------------------------------------------------------
 Center     Atomic      Atomic             Coordinates (Angstroms)
 Number     Number       Type             X           Y           Z
 ---------------------------------------------------------------------
      1         16           0       -1.627129   -0.655892   -0.107636
      2         14           0       -0.164710    0.930931    0.159615
      3          6           0        1.483763    0.302983   -0.491649
      4          1           0       -2.639053    0.011442    0.474834
      5          6           0        2.081490   -0.897174    0.263642
      6          1           0        2.175440    1.153915   -0.454807
      7          1           0        1.362109    0.064515   -1.554407
      8          1           0        2.233625   -0.667690    1.321957
      9          1           0        3.050968   -1.181386   -0.154862
     10          1           0        1.429776   -1.772667    0.209265
     11          1           0       -0.072283    1.278886    1.598019
     12          1           0       -0.592089    2.139363   -0.584395
 ---------------------------------------------------------------------

 SCF Done:  E(RHF) =  -767.089071017     A.U. after    2 cycles

 The electronic state is 1-A.
 Alpha  occ. eigenvalues --  -93.94110 -69.55211 -11.23617 -11.23212  -8.22388
 Alpha  occ. eigenvalues --   -6.22062  -6.20212  -6.20098  -6.19879  -3.97458
 Alpha  occ. eigenvalues --   -3.97353  -3.97341  -1.03689  -0.99687  -0.86009
 Alpha  occ. eigenvalues --   -0.70755  -0.62300  -0.59105  -0.55140  -0.53796
 Alpha  occ. eigenvalues --   -0.51069  -0.49127  -0.44845  -0.44345  -0.37683
 Alpha virt. eigenvalues --    0.03484   0.04037   0.04368   0.04565   0.06554
 Alpha virt. eigenvalues --    0.06711   0.07287   0.07714   0.09524   0.10110
 Alpha virt. eigenvalues --    0.10656   0.12584   0.12966   0.14652   0.15033

 Mulliken charges:
               1
     1  S   -0.874586
     2  Si   1.326998
     3  C   -0.603827
     4  H    0.259652
     5  C   -0.395746
     6  H    0.065804
     7  H    0.136819
     8  H    0.142218
     9  H    0.112724
    10  H    0.144802
    11  H   -0.131170
    12  H   -0.183688
 Sum of Mulliken charges =  -0.00000

 Dipole moment (field-independent basis, Debye):
    X=              0.9444    Y=              1.0128    Z=              0.2535  Tot=              1.4078

 Test job not archived.
 1\1\GINC-SE187\SP\RHF\Aug-CC-pVDZ\C2H8S1Si1\OHZDE\09-Apr-2025\0\\#t hf
  aug-cc-pvdz iop(5/13=1,5/36=2,99/5=2) pseudo=read geom=check guess=(r
 ead,tcheck) scf=(maxcycle=1)\\title\\0,1\S,0,-1.627129,-0.655892,-0.10
 7636\Si,0,-0.16471,0.930931,0.159615\C,0,1.483763,0.302983,-0.491649\H
 ,0,-2.639053,0.011442,0.474834\C,0,2.08149,-0.897174,0.263642\H,0,2.17
 544,1.153915,-0.454807\H,0,1.362109,0.064515,-1.554407\H,0,2.233625,-0
 .66769,1.321957\H,0,3.050968,-1.181386,-0.154862\H,0,1.429776,-1.77266
 7,0.209265\H,0,-0.072283,1.278886,1.598019\H,0,-0.592089,2.139363,-0.5

 Normal termination of Gaussian 16 at Wed Apr  9 00:14:13 2025.
