 Gaussian 16, Revision C.01,

 ----------------------------------------------------------------------
 #t hf aug-cc-pvdz symm=none int=(grid=ultrafine) guess=(read,tcheck) s
 table=(opt,rrhf)
 ----------------------------------------------------------------------
 -----
 title
 -----
 Symbolic Z-matrix:
 Charge =  0 Multiplicity = 1

 SCF Done:  E(RHF) =  -463.734173014     A.U. after   17 cycles
 Normal termination of Gaussian 16 at Wed Apr  9 00:40:36 2025.
 Gaussian 16:  ES64L-G16RevC.01  3-Jul-2019

 ----------------------------------------------------------------------
 #t hf aug-cc-pvdz iop(5/13=1,5/36=2,99/5=2) pseudo=read geom=check gue
 ss=(read,tcheck) scf=(maxcycle=1)
 ----------------------------------------------------------------------
 -----
 title
 -----
 Structure from the checkpoint file:  "BDE49_nonexpt_556_mol1.chk"
 Charge =  0 Multiplicity = 1

                         Standard orientation:
 ---------------------------------------------------------------------
 Center     Atomic      Atomic             Coordinates (Angstroms)
 Number     Number       Type             X           Y           Z
 ---------------------------------------------------------------------
      1          6           0       -1.760836   -1.508220    0.000000
      2          6           0       -3.049209   -1.030318    0.000001
      3          6           0       -3.298021    0.361598    0.000001
      4          6           0       -2.248861    1.249536    0.000001
      5          6           0       -0.908553    0.789167    0.000000
      6          6           0       -0.655656   -0.617399    0.000000
      7          1           0       -1.572842   -2.576905    0.000000
      8          1           0       -3.883767   -1.722533    0.000001
      9          1           0       -4.319624    0.724036    0.000001
     10          1           0       -2.434049    2.318757    0.000001
     11          6           0        0.685395   -1.074166    0.000000
     12          6           0        1.747133   -0.194043    0.000000
     13          6           0        0.204150    1.671169    0.000001
     14          6           0        1.491645    1.203766    0.000000
     15          1           0        0.022002    2.740807    0.000001
     16          1           0        2.322534    1.895694    0.000001
     17          5           0        4.304602   -0.038700   -0.000007
     18          1           0        0.871217   -2.144704    0.000000
     19          7           0        3.069488   -0.696058    0.000000
     20          1           0        4.369292    1.147816   -0.000006
     21          1           0        5.284193   -0.715875    0.000004
     22          1           0        3.088498   -1.707719    0.000005
 ---------------------------------------------------------------------

 SCF Done:  E(RHF) =  -464.209597465     A.U. after    2 cycles

 The electronic state is 1-A.
 Alpha  occ. eigenvalues --  -15.52003 -11.29277 -11.25425 -11.25238 -11.24716
 Alpha  occ. eigenvalues --  -11.24646 -11.24618 -11.24399 -11.24327 -11.24157
 Alpha  occ. eigenvalues --  -11.23971  -7.59326  -1.23618  -1.17247  -1.10307
 Alpha  occ. eigenvalues --   -1.05247  -1.00696  -0.98397  -0.87197  -0.85747
 Alpha  occ. eigenvalues --   -0.82877  -0.77347  -0.74223  -0.71617  -0.69449
 Alpha  occ. eigenvalues --   -0.64832  -0.63371  -0.62160  -0.59732  -0.59506
 Alpha  occ. eigenvalues --   -0.57719  -0.57098  -0.54729  -0.52305  -0.51146
 Alpha  occ. eigenvalues --   -0.49386  -0.48102  -0.43952  -0.39453  -0.32262
 Alpha  occ. eigenvalues --   -0.29491
 Alpha virt. eigenvalues --    0.02894   0.03431   0.03572   0.04079   0.04396
 Alpha virt. eigenvalues --    0.04671   0.05870   0.06102   0.06968   0.08106
 Alpha virt. eigenvalues --    0.08916   0.08923   0.09670   0.09798   0.11012

 Mulliken charges:
               1
     1  C    0.116042
     2  C   -0.513989
     3  C   -0.322225
     4  C    0.092681
     5  C    1.556891
     6  C    1.653490
     7  H   -0.305589
     8  H   -0.247542
     9  H   -0.240535
    10  H   -0.304641
    11  C    0.219678
    12  C   -3.095760
    13  C    0.256937
    14  C    1.023437
    15  H   -0.335642
    16  H   -0.367061
    17  B   -0.886822
    18  H   -0.387242
    19  N    1.605550
    20  H    0.189800
    21  H    0.362303
    22  H   -0.069760
 Sum of Mulliken charges =   0.00000

 Dipole moment (field-independent basis, Debye):
    X=             -0.5825    Y=             -0.5161    Z=             -0.0000  Tot=              0.7783

 Test job not archived.
 1\1\GINC-SE044\SP\RHF\Aug-CC-pVDZ\C10H10B1N1\OHZDE\09-Apr-2025\0\\#t h
 f aug-cc-pvdz iop(5/13=1,5/36=2,99/5=2) pseudo=read geom=check guess=(
 read,tcheck) scf=(maxcycle=1)\\title\\0,1\C,0,1.760836,-1.50822,0.\C,0
 ,3.049209,-1.030318,-0.000001\C,0,3.298021,0.361598,-0.000001\C,0,2.24
 8861,1.249536,-0.000001\C,0,0.908553,0.789167,0.\C,0,0.655656,-0.61739
 9,0.\H,0,1.572842,-2.576905,0.\H,0,3.883767,-1.722533,-0.000001\H,0,4.
 319624,0.724036,-0.000001\H,0,2.434049,2.318757,-0.000001\C,0,-0.68539
 5,-1.074166,0.\C,0,-1.747133,-0.194043,0.\C,0,-0.20415,1.671169,-0.000

 Normal termination of Gaussian 16 at Wed Apr  9 00:40:53 2025.
