 Gaussian 16, Revision C.01,

 ----------------------------------------------------------------------
 #t hf aug-cc-pvdz symm=none int=(grid=ultrafine) guess=(read,tcheck) s
 table=(opt,rrhf)
 ----------------------------------------------------------------------
 -----
 title
 -----
 Symbolic Z-matrix:
 Charge =  0 Multiplicity = 1

 SCF Done:  E(RHF) =  -196.352663747     A.U. after   11 cycles
 Normal termination of Gaussian 16 at Tue Apr  8 22:41:45 2025.
 Gaussian 16:  ES64L-G16RevC.01  3-Jul-2019

 ----------------------------------------------------------------------
 #t hf aug-cc-pvdz iop(5/13=1,5/36=2,99/5=2) pseudo=read geom=check gue
 ss=(read,tcheck) scf=(maxcycle=1)
 ----------------------------------------------------------------------
 -----
 title
 -----
 Structure from the checkpoint file:  "BDE49_expt_13_mol1.chk"
 Charge =  0 Multiplicity = 1

                         Standard orientation:
 ---------------------------------------------------------------------
 Center     Atomic      Atomic             Coordinates (Angstroms)
 Number     Number       Type             X           Y           Z
 ---------------------------------------------------------------------
      1          6           0        2.101170   -0.032798   -0.115015
      2          6           0        0.764497   -0.661779    0.291854
      3          1           0        2.191810    0.999705    0.231732
      4          1           0        2.219908   -0.029564   -1.203407
      5          1           0        2.940409   -0.592778    0.306627
      6          6           0       -0.482303   -0.002691   -0.328636
      7          1           0        0.667073   -0.641948    1.385339
      8          1           0        0.772186   -1.720824    0.008397
      9          6           0       -1.740276   -0.823144   -0.011728
     10          1           0       -2.627456   -0.388470   -0.481507
     11          1           0       -1.920871   -0.858458    1.068337
     12          1           0       -1.644168   -1.853620   -0.366396
     13          6           0       -0.661431    1.454206    0.121540
     14          1           0       -0.347321   -0.003889   -1.419376
     15          1           0       -1.554352    1.895850   -0.330436
     16          1           0        0.190415    2.079049   -0.157112
     17          1           0       -0.777576    1.512182    1.209715
 ---------------------------------------------------------------------

 SCF Done:  E(RHF) =  -196.577800191     A.U. after    2 cycles

 The electronic state is 1-A.
 Alpha  occ. eigenvalues --  -11.22926 -11.22283 -11.21985 -11.21821 -11.21784
 Alpha  occ. eigenvalues --   -1.08958  -0.99072  -0.92658  -0.85432  -0.76352
 Alpha  occ. eigenvalues --   -0.63920  -0.61156  -0.59417  -0.57146  -0.53980
 Alpha  occ. eigenvalues --   -0.53542  -0.51042  -0.49757  -0.46351  -0.46133
 Alpha  occ. eigenvalues --   -0.45342
 Alpha virt. eigenvalues --    0.03722   0.03910   0.03953   0.04202   0.06267
 Alpha virt. eigenvalues --    0.06353   0.06733   0.06867   0.07406   0.09398
 Alpha virt. eigenvalues --    0.09858   0.10163   0.13733   0.14476   0.14858

 Mulliken charges:
               1
     1  C   -0.365960
     2  C   -0.016483
     3  H    0.156587
     4  H    0.166522
     5  H    0.114110
     6  C   -1.334183
     7  H    0.139779
     8  H    0.120849
     9  C   -0.067548
    10  H    0.139860
    11  H    0.232918
    12  H    0.138370
    13  C   -0.062376
    14  H    0.147137
    15  H    0.145693
    16  H    0.134383
    17  H    0.210341
 Sum of Mulliken charges =  -0.00000

 Dipole moment (field-independent basis, Debye):
    X=              0.0307    Y=             -0.0422    Z=             -0.0802  Tot=              0.0957

 Test job not archived.
 1\1\GINC-SE338\SP\RHF\Aug-CC-pVDZ\C5H12\OHZDE\08-Apr-2025\0\\#t hf aug
 -cc-pvdz iop(5/13=1,5/36=2,99/5=2) pseudo=read geom=check guess=(read,
 tcheck) scf=(maxcycle=1)\\title\\0,1\C,0,2.10117,-0.032798,-0.115015\C
 ,0,0.764497,-0.661779,0.291854\H,0,2.19181,0.999705,0.231732\H,0,2.219
 908,-0.029564,-1.203407\H,0,2.940409,-0.592778,0.306627\C,0,-0.482303,
 -0.002691,-0.328636\H,0,0.667073,-0.641948,1.385339\H,0,0.772186,-1.72
 0824,0.008397\C,0,-1.740276,-0.823144,-0.011728\H,0,-2.627456,-0.38847
 ,-0.481507\H,0,-1.920871,-0.858458,1.068337\H,0,-1.644168,-1.85362,-0.

 Normal termination of Gaussian 16 at Tue Apr  8 22:41:49 2025.
