 Gaussian 16, Revision C.01,

 ----------------------------------------------------------------------
 #t hf aug-cc-pvdz symm=none int=(grid=ultrafine) guess=(read,tcheck) s
 table=(opt,rrhf)
 ----------------------------------------------------------------------
 -----
 title
 -----
 Symbolic Z-matrix:
 Charge =  0 Multiplicity = 1

 SCF Done:  E(RHF) =  -1350.83751863     A.U. after   15 cycles
 Normal termination of Gaussian 16 at Tue Apr  8 23:53:56 2025.
 Gaussian 16:  ES64L-G16RevC.01  3-Jul-2019

 ----------------------------------------------------------------------
 #t hf aug-cc-pvdz iop(5/13=1,5/36=2,99/5=2) pseudo=read geom=check gue
 ss=(read,tcheck) scf=(maxcycle=1)
 ----------------------------------------------------------------------
 -----
 title
 -----
 Structure from the checkpoint file:  "BDE49_nonexpt_1942_mol1.chk"
 Charge =  0 Multiplicity = 1

                         Standard orientation:
 ---------------------------------------------------------------------
 Center     Atomic      Atomic             Coordinates (Angstroms)
 Number     Number       Type             X           Y           Z
 ---------------------------------------------------------------------
      1          6           0        1.130884   -1.034692    0.831976
      2         14           0       -0.571528   -1.235855   -0.055991
      3          6           0       -1.650960    0.324831    0.054516
      4          1           0       -1.253672   -2.340578    0.638633
      5          1           0       -0.316360   -1.563891   -1.473674
      6         16           0       -3.239793    0.035976   -0.223371
      7          8           0       -1.184303    1.536744    0.322350
      8          6           0        2.092999   -0.190028    0.070380
      9         16           0        1.962392    1.446064   -0.093311
     10          8           0        3.090282   -0.821022   -0.556666
     11          1           0       -0.194519    1.548631    0.345900
     12          1           0        3.077455   -1.765452   -0.350450
     13          1           0        1.526123   -2.039786    1.024198
     14          1           0        0.915416   -0.576033    1.799467
 ---------------------------------------------------------------------

 SCF Done:  E(RHF) =  -1351.24959957     A.U. after    2 cycles

 The electronic state is 1-A.
 Alpha  occ. eigenvalues --  -93.94302 -93.92486 -69.58009 -20.65218 -20.60836
 Alpha  occ. eigenvalues --  -11.42820 -11.37566 -11.28917  -8.22671  -8.20779
 Alpha  occ. eigenvalues --   -6.24919  -6.20521  -6.20235  -6.20117  -6.18604
 Alpha  occ. eigenvalues --   -6.18373  -6.18197  -4.00309  -4.00267  -4.00245
 Alpha  occ. eigenvalues --   -1.57384  -1.52835  -1.12492  -1.06707  -1.01891
 Alpha  occ. eigenvalues --   -0.85835  -0.82968  -0.79907  -0.74803  -0.68895
 Alpha  occ. eigenvalues --   -0.67588  -0.64580  -0.60730  -0.59945  -0.59259
 Alpha  occ. eigenvalues --   -0.55577  -0.52192  -0.51611  -0.48607  -0.39974
 Alpha  occ. eigenvalues --   -0.38509  -0.37883  -0.34781
 Alpha virt. eigenvalues --    0.01209   0.02968   0.04027   0.04524   0.04886
 Alpha virt. eigenvalues --    0.05821   0.06534   0.06972   0.07217   0.07581
 Alpha virt. eigenvalues --    0.08770   0.10085   0.10597   0.11669   0.12586

 Mulliken charges:
               1
     1  C   -0.720165
     2  Si   1.363385
     3  C    0.033542
     4  H   -0.095205
     5  H   -0.120565
     6  S    0.111017
     7  O   -1.326844
     8  C    0.898226
     9  S    0.079020
    10  O   -1.426256
    11  H    0.654820
    12  H    0.422893
    13  H   -0.049982
    14  H    0.176115
 Sum of Mulliken charges =  -0.00000

 Dipole moment (field-independent basis, Debye):
    X=              4.2693    Y=             -4.9454    Z=              1.6533  Tot=              6.7392

 Test job not archived.
 1\1\GINC-SE331\SP\RHF\Aug-CC-pVDZ\C3H6O2S2Si1\OHZDE\08-Apr-2025\0\\#t
 hf aug-cc-pvdz iop(5/13=1,5/36=2,99/5=2) pseudo=read geom=check guess=
 (read,tcheck) scf=(maxcycle=1)\\title\\0,1\C,0,1.130884,-1.034692,0.83
 1976\Si,0,-0.571528,-1.235855,-0.055991\C,0,-1.65096,0.324831,0.054516
 \H,0,-1.253672,-2.340578,0.638633\H,0,-0.31636,-1.563891,-1.473674\S,0
 ,-3.239793,0.035976,-0.223371\O,0,-1.184303,1.536744,0.32235\C,0,2.092
 999,-0.190028,0.07038\S,0,1.962392,1.446064,-0.093311\O,0,3.090282,-0.
 821022,-0.556666\H,0,-0.194519,1.548631,0.3459\H,0,3.077455,-1.765452,

 Normal termination of Gaussian 16 at Tue Apr  8 23:54:01 2025.
