 Gaussian 16, Revision C.01,

 ----------------------------------------------------------------------
 #t hf aug-cc-pvdz symm=none int=(grid=ultrafine) guess=(read,tcheck) s
 table=(opt,rrhf)
 ----------------------------------------------------------------------
 -----
 title
 -----
 Symbolic Z-matrix:
 Charge =  0 Multiplicity = 1

 SCF Done:  E(RHF) =  -329.592504975     A.U. after   14 cycles
 Normal termination of Gaussian 16 at Tue Apr  8 22:44:36 2025.
 Gaussian 16:  ES64L-G16RevC.01  3-Jul-2019

 ----------------------------------------------------------------------
 #t hf aug-cc-pvdz iop(5/13=1,5/36=2,99/5=2) pseudo=read geom=check gue
 ss=(read,tcheck) scf=(maxcycle=1)
 ----------------------------------------------------------------------
 -----
 title
 -----
 Structure from the checkpoint file:  "BDE49_expt_1525_mol1.chk"
 Charge =  0 Multiplicity = 1

                         Standard orientation:
 ---------------------------------------------------------------------
 Center     Atomic      Atomic             Coordinates (Angstroms)
 Number     Number       Type             X           Y           Z
 ---------------------------------------------------------------------
      1          6           0        0.000000    0.000000    0.929096
      2          6           0        0.000000    1.214507    0.259217
      3          9           0        0.000000    0.000000    2.281226
      4          6           0       -0.000000   -1.214507    0.259217
      5          6           0        0.000000    1.206236   -1.134147
      6          6           0        0.000000   -0.000000   -1.832989
      7          6           0       -0.000000   -1.206236   -1.134147
      8          1           0        0.000000   -2.136989    0.826431
      9          1           0        0.000000   -0.000000   -2.916464
     10          1           0        0.000000   -2.147007   -1.672458
     11          1           0        0.000000    2.136989    0.826431
     12          1           0        0.000000    2.147007   -1.672458
 ---------------------------------------------------------------------

 SCF Done:  E(RHF) =  -329.921164877     A.U. after    2 cycles

 The electronic state is 1-A1.
 Alpha  occ. eigenvalues --  -26.47535 -11.33774 -11.25955 -11.25945 -11.25367
 Alpha  occ. eigenvalues --  -11.25351 -11.24984  -1.60405  -1.16674  -1.03580
 Alpha  occ. eigenvalues --   -1.02322  -0.86431  -0.84488  -0.74851  -0.69865
 Alpha  occ. eigenvalues --   -0.69284  -0.67164  -0.63414  -0.61782  -0.59504
 Alpha  occ. eigenvalues --   -0.54293  -0.51749  -0.51664  -0.36182  -0.34901
 Alpha virt. eigenvalues --    0.03376   0.03617   0.04206   0.05330   0.05904
 Alpha virt. eigenvalues --    0.09301   0.10394   0.10677   0.11866   0.13704
 Alpha virt. eigenvalues --    0.13971   0.14020   0.14262   0.14452   0.14482

 Mulliken charges:
               1
     1  C    1.235070
     2  C   -0.243224
     3  F   -0.987238
     4  C   -0.243224
     5  C    0.554933
     6  C    0.061980
     7  C    0.554933
     8  H   -0.166043
     9  H   -0.204841
    10  H   -0.198151
    11  H   -0.166043
    12  H   -0.198151
 Sum of Mulliken charges =  -0.00000

 Dipole moment (field-independent basis, Debye):
    X=             -0.0000    Y=              0.0000    Z=             -1.6624  Tot=              1.6624

 Test job not archived.
 1\1\GINC-SE331\SP\RHF\Aug-CC-pVDZ\C6H5F1\OHZDE\08-Apr-2025\0\\#t hf au
 g-cc-pvdz iop(5/13=1,5/36=2,99/5=2) pseudo=read geom=check guess=(read
 ,tcheck) scf=(maxcycle=1)\\title\\0,1\C,0,0.,0.,0.929096\C,0,0.,1.2145
 07,0.259217\F,0,0.,0.,2.281226\C,0,0.,-1.214507,0.259217\C,0,0.,1.2062
 36,-1.134147\C,0,0.,0.,-1.832989\C,0,0.,-1.206236,-1.134147\H,0,0.,-2.
 136989,0.826431\H,0,0.,0.,-2.916464\H,0,0.,-2.147007,-1.672458\H,0,0.,
 2.136989,0.826431\H,0,0.,2.147007,-1.672458\\Version=ES64L-G16RevC.01\
 State=1-A1\HF=-329.9211649\RMSD=3.165e-02\Dipole=0.,0.,-0.6540472\Quad

 Normal termination of Gaussian 16 at Tue Apr  8 22:44:39 2025.
