 Gaussian 16, Revision C.01,

 ----------------------------------------------------------------------
 #t hf aug-cc-pvdz symm=none int=(grid=ultrafine) guess=(read,tcheck) s
 table=opt
 ----------------------------------------------------------------------
 -----
 title
 -----
 Symbolic Z-matrix:
 Charge =  0 Multiplicity = 2

 SCF Done:  E(UHF) =  -474.986847883     A.U. after   17 cycles
 Normal termination of Gaussian 16 at Tue Apr  8 23:33:09 2025.
 Gaussian 16:  ES64L-G16RevC.01  3-Jul-2019

 ----------------------------------------------------------------------
 #t hf aug-cc-pvdz iop(5/13=1,5/36=2,99/5=2) pseudo=read geom=check gue
 ss=(read,tcheck) scf=(maxcycle=1)
 ----------------------------------------------------------------------
 -----
 title
 -----
 Structure from the checkpoint file:  "BDE49_nonexpt_1452_mol2.chk"
 Charge =  0 Multiplicity = 2

                         Standard orientation:
 ---------------------------------------------------------------------
 Center     Atomic      Atomic             Coordinates (Angstroms)
 Number     Number       Type             X           Y           Z
 ---------------------------------------------------------------------
      1          7           0        2.330456    0.141600   -0.083597
      2          6           0        1.006926   -0.489655   -0.027291
      3          6           0       -0.088047    0.583828    0.043428
      4          1           0        0.879625   -1.074645   -0.943313
      5          1           0        2.550143    0.573367    0.809523
      6          1           0        3.046433   -0.558281   -0.251934
      7         15           0       -1.836060   -0.049185   -0.075058
      8          1           0        0.005429    1.142390    0.984298
      9          1           0        0.065261    1.301878   -0.766400
     10          1           0        0.876977   -1.187482    0.815117
     11          1           0       -1.709430   -1.015695    0.966930
 ---------------------------------------------------------------------

 SCF Done:  E(UHF) =  -475.174804598     A.U. after    2 cycles

 The electronic state is 2-A.
 Alpha  occ. eigenvalues --  -84.27548 -15.49044 -11.26874 -11.24192  -6.74720
 Alpha  occ. eigenvalues --   -4.27311  -4.26723  -4.26192  -1.18501  -1.01999
 Alpha  occ. eigenvalues --   -0.87064  -0.78621  -0.69467  -0.65182  -0.61637
 Alpha  occ. eigenvalues --   -0.55259  -0.51711  -0.46829  -0.43583  -0.38055
 Alpha  occ. eigenvalues --   -0.32142
 Alpha virt. eigenvalues --    0.03305   0.04709   0.04834   0.05353   0.06739
 Alpha virt. eigenvalues --    0.07134   0.07315   0.10012   0.11031   0.11897
 Alpha virt. eigenvalues --    0.12566   0.14159   0.15587   0.16738   0.16983

  Beta  occ. eigenvalues --  -84.26870 -15.49036 -11.26786 -11.24336  -6.73860
  Beta  occ. eigenvalues --   -4.26206  -4.25792  -4.23986  -1.18430  -1.01230
  Beta  occ. eigenvalues --   -0.85455  -0.74426  -0.69323  -0.64649  -0.61031
  Beta  occ. eigenvalues --   -0.55005  -0.51146  -0.46508  -0.43480  -0.35943
  Beta virt. eigenvalues --    0.03288   0.03646   0.04813   0.05328   0.05650
  Beta virt. eigenvalues --    0.06772   0.07247   0.08532   0.10099   0.11222
  Beta virt. eigenvalues --    0.12026   0.13621   0.14669   0.16085   0.16800

 Mulliken charges and spin densities:
               1          2
     1  N    0.156156   0.000475
     2  C   -0.685935   0.026323
     3  C   -0.769899  -0.128301
     4  H    0.090177  -0.007786
     5  H    0.128858   0.000470
     6  H    0.129406  -0.001082
     7  P    0.355080   1.282883
     8  H    0.164128   0.005151
     9  H    0.178323  -0.001981
    10  H    0.093068  -0.000823
    11  H    0.160639  -0.175328
 Sum of Mulliken charges =   0.00000   1.00000

 Dipole moment (field-independent basis, Debye):
    X=              1.0408    Y=             -0.8158    Z=              1.2648  Tot=              1.8299
                          Isotropic Fermi Contact Couplings
        Atom                 a.u.       MegaHertz       Gauss      10(-4) cm-1
     1  N(14)              0.00157       0.50717       0.18097       0.16917
     2  C(13)              0.02506      28.17583      10.05384       9.39845
     3  C(13)             -0.02696     -30.30284     -10.81281     -10.10794
     4  H(1)              -0.00062      -2.77176      -0.98903      -0.92456
     5  H(1)               0.00000       0.01330       0.00475       0.00444
     6  H(1)              -0.00000      -0.01431      -0.00510      -0.00477
     7  P(31)              0.19815     358.87114     128.05415     119.70653
     8  H(1)               0.01127      50.35549      17.96809      16.79678

 Normal termination of Gaussian 16 at Tue Apr  8 23:33:12 2025.
