 Gaussian 16, Revision C.01,

 ----------------------------------------------------------------------
 #t hf aug-cc-pvdz symm=none int=(grid=ultrafine) guess=(read,tcheck) s
 table=(opt,rrhf)
 ----------------------------------------------------------------------
 -----
 title
 -----
 Symbolic Z-matrix:
 Charge =  0 Multiplicity = 1

 SCF Done:  E(RHF) =  -808.885510304     A.U. after   15 cycles
 Normal termination of Gaussian 16 at Tue Apr  8 23:29:17 2025.
 Gaussian 16:  ES64L-G16RevC.01  3-Jul-2019

 ----------------------------------------------------------------------
 #t hf aug-cc-pvdz iop(5/13=1,5/36=2,99/5=2) pseudo=read geom=check gue
 ss=(read,tcheck) scf=(maxcycle=1)
 ----------------------------------------------------------------------
 -----
 title
 -----
 Structure from the checkpoint file:  "BDE49_nonexpt_1317_mol1.chk"
 Charge =  0 Multiplicity = 1

                         Standard orientation:
 ---------------------------------------------------------------------
 Center     Atomic      Atomic             Coordinates (Angstroms)
 Number     Number       Type             X           Y           Z
 ---------------------------------------------------------------------
      1          6           0       -0.641456   -0.288344    0.458022
      2         15           0        1.945718   -0.203018   -0.558688
      3          9           0        1.909827    1.415663   -0.445256
      4          9           0        3.325884   -0.455542    0.260167
      5          6           0       -1.167829    1.006555    0.538256
      6          6           0       -1.460468   -1.315681   -0.023480
      7          6           0       -2.483266    1.262313    0.161542
      8          6           0       -3.291977    0.230154   -0.309967
      9          6           0       -2.775764   -1.060139   -0.402978
     10          1           0       -3.397492   -1.870148   -0.767460
     11          1           0       -1.068288   -2.325345   -0.092689
     12          1           0       -2.876659    2.269819    0.236695
     13          1           0       -4.316757    0.429859   -0.601431
     14          1           0       -0.542224    1.815657    0.898073
     15          6           0        0.792329   -0.559939    0.842450
     16          1           0        0.942544   -1.612977    1.100233
     17          1           0        1.122290    0.047801    1.689639
 ---------------------------------------------------------------------

 SCF Done:  E(RHF) =  -809.388354127     A.U. after    2 cycles

 The electronic state is 1-A.
 Alpha  occ. eigenvalues --  -84.40782 -26.47494 -26.47445 -11.26640 -11.26312
 Alpha  occ. eigenvalues --  -11.25373 -11.25308 -11.25261 -11.25087 -11.25075
 Alpha  occ. eigenvalues --   -6.86381  -4.39132  -4.38681  -4.37657  -1.60983
 Alpha  occ. eigenvalues --   -1.56790  -1.17044  -1.07191  -1.02710  -0.97378
 Alpha  occ. eigenvalues --   -0.85226  -0.84784  -0.81232  -0.72162  -0.70377
 Alpha  occ. eigenvalues --   -0.68891  -0.68466  -0.66466  -0.65189  -0.64162
 Alpha  occ. eigenvalues --   -0.61462  -0.60933  -0.59959  -0.58628  -0.56332
 Alpha  occ. eigenvalues --   -0.51577  -0.51256  -0.50855  -0.38657  -0.35634
 Alpha  occ. eigenvalues --   -0.33971
 Alpha virt. eigenvalues --    0.03167   0.03453   0.03903   0.04963   0.05144
 Alpha virt. eigenvalues --    0.06664   0.07744   0.08177   0.08637   0.09047
 Alpha virt. eigenvalues --    0.09545   0.10414   0.10546   0.13022   0.13521

 Mulliken charges:
               1
     1  C    1.512659
     2  P    2.040146
     3  F   -0.842145
     4  F   -0.785064
     5  C    0.067829
     6  C   -0.044629
     7  C    0.234875
     8  C    0.023089
     9  C    0.153933
    10  H   -0.227842
    11  H   -0.293261
    12  H   -0.217161
    13  H   -0.211900
    14  H   -0.315316
    15  C   -1.114325
    16  H    0.027101
    17  H   -0.007988
 Sum of Mulliken charges =  -0.00000

 Dipole moment (field-independent basis, Debye):
    X=             -1.9456    Y=             -0.9778    Z=              0.3692  Tot=              2.2085

 Test job not archived.
 1\1\GINC-SE163\SP\RHF\Aug-CC-pVDZ\C7H7F2P1\OHZDE\08-Apr-2025\0\\#t hf
 aug-cc-pvdz iop(5/13=1,5/36=2,99/5=2) pseudo=read geom=check guess=(re
 ad,tcheck) scf=(maxcycle=1)\\title\\0,1\C,0,-0.641456,-0.288344,0.4580
 22\P,0,1.945718,-0.203018,-0.558688\F,0,1.909827,1.415663,-0.445256\F,
 0,3.325884,-0.455542,0.260167\C,0,-1.167829,1.006555,0.538256\C,0,-1.4
 60468,-1.315681,-0.02348\C,0,-2.483266,1.262313,0.161542\C,0,-3.291977
 ,0.230154,-0.309967\C,0,-2.775764,-1.060139,-0.402978\H,0,-3.397492,-1
 .870148,-0.76746\H,0,-1.068288,-2.325345,-0.092689\H,0,-2.876659,2.269

 Normal termination of Gaussian 16 at Tue Apr  8 23:29:26 2025.
