 Gaussian 16, Revision C.01,

 ----------------------------------------------------------------------
 #t hf aug-cc-pvdz symm=none int=(grid=ultrafine) guess=(read,tcheck) s
 table=(opt,rrhf)
 ----------------------------------------------------------------------
 -----
 title
 -----
 Symbolic Z-matrix:
 Charge =  0 Multiplicity = 1

 SCF Done:  E(RHF) =  -957.380104318     A.U. after   15 cycles
 Normal termination of Gaussian 16 at Wed Apr  9 00:16:36 2025.
 Gaussian 16:  ES64L-G16RevC.01  3-Jul-2019

 ----------------------------------------------------------------------
 #t hf aug-cc-pvdz iop(5/13=1,5/36=2,99/5=2) pseudo=read geom=check gue
 ss=(read,tcheck) scf=(maxcycle=1)
 ----------------------------------------------------------------------
 -----
 title
 -----
 Structure from the checkpoint file:  "BDE49_nonexpt_2498_mol1.chk"
 Charge =  0 Multiplicity = 1

                         Standard orientation:
 ---------------------------------------------------------------------
 Center     Atomic      Atomic             Coordinates (Angstroms)
 Number     Number       Type             X           Y           Z
 ---------------------------------------------------------------------
      1          6           0       -2.749538    0.399108   -0.429064
      2         16           0       -1.750216   -1.154178   -0.227038
      3         14           0        0.226609   -0.388166   -0.090966
      4          6           0        0.730028    1.284199   -0.356987
      5          6           0        2.101366    1.540218   -0.234755
      6          6           0        1.623415   -1.399531    0.291016
      7          6           0        2.863264   -0.756168    0.314094
      8          6           0        3.094200    0.604767    0.072646
      9          1           0        4.117254    0.958630    0.130687
     10          1           0        2.431815    2.565103   -0.394109
     11          1           0        0.071309    2.109584   -0.599798
     12          1           0        1.581553   -2.461939    0.500692
     13          1           0        3.736840   -1.363466    0.544149
     14          6           0       -2.992011    1.155900    0.870998
     15          1           0       -3.687545    0.039571   -0.855926
     16          1           0       -2.268749    1.023258   -1.182803
     17          1           0       -3.479017    0.518451    1.611567
     18          1           0       -3.639315    2.018801    0.682986
     19          1           0       -2.057559    1.522214    1.301004
 ---------------------------------------------------------------------

 SCF Done:  E(RHF) =  -957.756539544     A.U. after    2 cycles

 The electronic state is 1-A.
 Alpha  occ. eigenvalues --  -93.95546 -69.54415 -11.29217 -11.25749 -11.25661
 Alpha  occ. eigenvalues --  -11.24658 -11.22513 -11.22291 -11.21956  -8.23779
 Alpha  occ. eigenvalues --   -6.21818  -6.21569  -6.21431  -6.21246  -3.97087
 Alpha  occ. eigenvalues --   -3.97043  -3.97000  -1.10937  -1.09376  -1.01093
 Alpha  occ. eigenvalues --   -0.97736  -0.92932  -0.84427  -0.80560  -0.74399
 Alpha  occ. eigenvalues --   -0.68687  -0.65358  -0.61658  -0.60247  -0.59583
 Alpha  occ. eigenvalues --   -0.59024  -0.56226  -0.53934  -0.52629  -0.49116
 Alpha  occ. eigenvalues --   -0.48097  -0.45788  -0.44088  -0.39798  -0.35623
 Alpha  occ. eigenvalues --   -0.28003
 Alpha virt. eigenvalues --    0.03021   0.03583   0.03847   0.04134   0.04892
 Alpha virt. eigenvalues --    0.05117   0.06391   0.06816   0.07128   0.07537
 Alpha virt. eigenvalues --    0.08313   0.09056   0.09454   0.09926   0.10111

 Mulliken charges:
               1
     1  C   -0.732072
     2  S   -0.322298
     3  Si   1.443299
     4  C   -0.117878
     5  C    0.227052
     6  C   -0.051222
     7  C    0.088075
     8  C    0.338516
     9  H   -0.239146
    10  H   -0.236826
    11  H   -0.318876
    12  H   -0.325732
    13  H   -0.225625
    14  C   -0.327058
    15  H    0.191697
    16  H    0.135822
    17  H    0.178165
    18  H    0.149487
    19  H    0.144619
 Sum of Mulliken charges =   0.00000

 Dipole moment (field-independent basis, Debye):
    X=             -1.7749    Y=              1.3659    Z=             -0.0736  Tot=              2.2409

 Test job not archived.
 1\1\GINC-SE132\SP\RHF\Aug-CC-pVDZ\C7H10S1Si1\OHZDE\09-Apr-2025\0\\#t h
 f aug-cc-pvdz iop(5/13=1,5/36=2,99/5=2) pseudo=read geom=check guess=(
 read,tcheck) scf=(maxcycle=1)\\title\\0,1\C,0,-2.749538,0.399108,-0.42
 9064\S,0,-1.750216,-1.154178,-0.227038\Si,0,0.226609,-0.388166,-0.0909
 66\C,0,0.730028,1.284199,-0.356987\C,0,2.101366,1.540218,-0.234755\C,0
 ,1.623415,-1.399531,0.291016\C,0,2.863264,-0.756168,0.314094\C,0,3.094
 2,0.604767,0.072646\H,0,4.117254,0.95863,0.130687\H,0,2.431815,2.56510
 3,-0.394109\H,0,0.071309,2.109584,-0.599798\H,0,1.581553,-2.461939,0.5

 Normal termination of Gaussian 16 at Wed Apr  9 00:16:46 2025.
