 Gaussian 16, Revision C.01,

 ----------------------------------------------------------------------
 #t hf aug-cc-pvdz symm=none int=(grid=ultrafine) guess=(read,tcheck) s
 table=(opt,rrhf)
 ----------------------------------------------------------------------
 -----
 title
 -----
 Symbolic Z-matrix:
 Charge =  0 Multiplicity = 1

 SCF Done:  E(RHF) =  -342.472050459     A.U. after    9 cycles
 Normal termination of Gaussian 16 at Tue Apr  8 23:12:43 2025.
 Gaussian 16:  ES64L-G16RevC.01  3-Jul-2019

 ----------------------------------------------------------------------
 #t hf aug-cc-pvdz iop(5/13=1,5/36=2,99/5=2) pseudo=read geom=check gue
 ss=(read,tcheck) scf=(maxcycle=1)
 ----------------------------------------------------------------------
 -----
 title
 -----
 Structure from the checkpoint file:  "BDE49_expt_816_mol1.chk"
 Charge =  0 Multiplicity = 1

                         Standard orientation:
 ---------------------------------------------------------------------
 Center     Atomic      Atomic             Coordinates (Angstroms)
 Number     Number       Type             X           Y           Z
 ---------------------------------------------------------------------
      1         15           0        0.000001   -0.000002   -0.128066
      2          1           0       -0.802175   -0.883613    0.640332
      3          1           0        1.166322   -0.252871    0.640339
      4          1           0       -0.364169    1.136516    0.640314
 ---------------------------------------------------------------------

 SCF Done:  E(RHF) =  -342.520531665     A.U. after    2 cycles

 The electronic state is 1-A.
 Alpha  occ. eigenvalues --  -84.27685  -6.74820  -4.27014  -4.27014  -4.26384
 Alpha  occ. eigenvalues --   -0.86991  -0.50621  -0.50621  -0.36478
 Alpha virt. eigenvalues --    0.03661   0.07032   0.07032   0.09842   0.09842
 Alpha virt. eigenvalues --    0.10371   0.16919   0.21541   0.21541   0.26164
 Alpha virt. eigenvalues --    0.26407   0.26407   0.36712   0.39369   0.39370

 Mulliken charges:
               1
     1  P   -1.021960
     2  H    0.340655
     3  H    0.340658
     4  H    0.340647
 Sum of Mulliken charges =  -0.00000

 Dipole moment (field-independent basis, Debye):
    X=              0.0000    Y=             -0.0000    Z=              0.3682  Tot=              0.3682

 Test job not archived.
 1\1\GINC-SE162\SP\RHF\Aug-CC-pVDZ\H3P1\OHZDE\08-Apr-2025\0\\#t hf aug-
 cc-pvdz iop(5/13=1,5/36=2,99/5=2) pseudo=read geom=check guess=(read,t
 check) scf=(maxcycle=1)\\title\\0,1\P,0,-0.000001,0.000002,-0.128066\H
 ,0,0.806689,0.879494,0.640332\H,0,-1.165012,0.258838,0.640339\H,0,0.35
 8346,-1.138366,0.640314\\Version=ES64L-G16RevC.01\State=1-A\HF=-342.52
 05317\RMSD=4.851e-02\Dipole=-0.0000011,0.0000024,0.1448543\Quadrupole=
 0.6426531,0.6426305,-1.2852836,0.0000026,-0.0000118,0.0000208\PG=C01 [
 X(H3P1)]\\@

 Normal termination of Gaussian 16 at Tue Apr  8 23:12:45 2025.
