 Gaussian 16, Revision C.01,

 ----------------------------------------------------------------------
 #t hf aug-cc-pvdz symm=none int=(grid=ultrafine) guess=(read,tcheck) s
 table=(opt,rrhf)
 ----------------------------------------------------------------------
 -----
 title
 -----
 Symbolic Z-matrix:
 Charge =  0 Multiplicity = 1

 SCF Done:  E(RHF) =  -496.908353867     A.U. after   13 cycles
 Normal termination of Gaussian 16 at Tue Apr  8 23:52:21 2025.
 Gaussian 16:  ES64L-G16RevC.01  3-Jul-2019

 ----------------------------------------------------------------------
 #t hf aug-cc-pvdz iop(5/13=1,5/36=2,99/5=2) pseudo=read geom=check gue
 ss=(read,tcheck) scf=(maxcycle=1)
 ----------------------------------------------------------------------
 -----
 title
 -----
 Structure from the checkpoint file:  "BDE49_nonexpt_1913_mol1.chk"
 Charge =  0 Multiplicity = 1

                         Standard orientation:
 ---------------------------------------------------------------------
 Center     Atomic      Atomic             Coordinates (Angstroms)
 Number     Number       Type             X           Y           Z
 ---------------------------------------------------------------------
      1         14           0        1.860909   -0.424783    0.009110
      2          6           0        0.558745    0.949287   -0.198380
      3          1           0        3.134996    0.034592   -0.593326
      4          1           0        1.393606   -1.647373   -0.681929
      5          1           0        2.060335   -0.710495    1.446101
      6          7           0       -0.718206    0.566248    0.367715
      7          6           0       -1.722768   -0.011495    0.055181
      8          8           0       -2.748496   -0.547660   -0.134527
      9          1           0        0.453035    1.213401   -1.256241
     10          1           0        0.904853    1.847617    0.319264
 ---------------------------------------------------------------------

 SCF Done:  E(RHF) =  -497.147901814     A.U. after    2 cycles

 The electronic state is 1-A.
 Alpha  occ. eigenvalues --  -69.54436 -20.59020 -15.53214 -11.40684 -11.29707
 Alpha  occ. eigenvalues --   -6.21550  -3.96917  -3.96909  -3.96897  -1.53460
 Alpha  occ. eigenvalues --   -1.28080  -1.01842  -0.77874  -0.73614  -0.71212
 Alpha  occ. eigenvalues --   -0.67995  -0.65863  -0.60002  -0.54186  -0.50299
 Alpha  occ. eigenvalues --   -0.49994  -0.46534  -0.42122
 Alpha virt. eigenvalues --    0.03032   0.03815   0.04253   0.05409   0.07328
 Alpha virt. eigenvalues --    0.07503   0.08489   0.08804   0.09126   0.11398
 Alpha virt. eigenvalues --    0.11695   0.12891   0.13245   0.14576   0.15282

 Mulliken charges:
               1
     1  Si   1.110695
     2  C   -0.650135
     3  H   -0.195634
     4  H   -0.191403
     5  H   -0.176440
     6  N    0.667852
     7  C    0.102704
     8  O   -0.819480
     9  H    0.075806
    10  H    0.076035
 Sum of Mulliken charges =  -0.00000

 Dipole moment (field-independent basis, Debye):
    X=              2.4527    Y=              0.9736    Z=             -0.8880  Tot=              2.7843

 Test job not archived.
 1\1\GINC-SE284\SP\RHF\Aug-CC-pVDZ\C2H5N1O1Si1\OHZDE\08-Apr-2025\0\\#t
 hf aug-cc-pvdz iop(5/13=1,5/36=2,99/5=2) pseudo=read geom=check guess=
 (read,tcheck) scf=(maxcycle=1)\\title\\0,1\Si,0,1.860909,-0.424783,0.0
 0911\C,0,0.558745,0.949287,-0.19838\H,0,3.134996,0.034592,-0.593326\H,
 0,1.393606,-1.647373,-0.681929\H,0,2.060335,-0.710495,1.446101\N,0,-0.
 718206,0.566248,0.367715\C,0,-1.722768,-0.011495,0.055181\O,0,-2.74849
 6,-0.54766,-0.134527\H,0,0.453035,1.213401,-1.256241\H,0,0.904853,1.84
 7617,0.319264\\Version=ES64L-G16RevC.01\State=1-A\HF=-497.1479018\RMSD

 Normal termination of Gaussian 16 at Tue Apr  8 23:52:24 2025.
