 Gaussian 16, Revision C.01,

 ----------------------------------------------------------------------
 #t hf aug-cc-pvdz symm=none int=(grid=ultrafine) guess=(read,tcheck) s
 table=(opt,rrhf)
 ----------------------------------------------------------------------
 -----
 title
 -----
 Symbolic Z-matrix:
 Charge =  0 Multiplicity = 1

 SCF Done:  E(RHF) =  -360.824403949     A.U. after   15 cycles
 Normal termination of Gaussian 16 at Tue Apr  8 22:37:57 2025.
 Gaussian 16:  ES64L-G16RevC.01  3-Jul-2019

 ----------------------------------------------------------------------
 #t hf aug-cc-pvdz iop(5/13=1,5/36=2,99/5=2) pseudo=read geom=check gue
 ss=(read,tcheck) scf=(maxcycle=1)
 ----------------------------------------------------------------------
 -----
 title
 -----
 Structure from the checkpoint file:  "BDE49_expt_1208_mol1.chk"
 Charge =  0 Multiplicity = 1

                         Standard orientation:
 ---------------------------------------------------------------------
 Center     Atomic      Atomic             Coordinates (Angstroms)
 Number     Number       Type             X           Y           Z
 ---------------------------------------------------------------------
      1          6           0       -1.544578   -0.068168    0.541536
      2          6           0       -0.790838    0.655098   -0.580802
      3          6           0        0.630254    1.055404   -0.215123
      4          1           0       -1.322531    1.574760   -0.851287
      5          1           0       -0.759836    0.030116   -1.476591
      6          7           0        1.541643   -0.144167   -0.009075
      7          1           0        0.697438    1.622604    0.711703
      8          1           0        1.109340    1.623082   -1.016082
      9          8           0        2.388908   -0.048899    0.863252
     10          8           0        1.389621   -1.104067   -0.748198
     11          6           0       -2.982541   -0.419292    0.151169
     12          1           0       -1.549711    0.560612    1.439832
     13          1           0       -1.007227   -0.985002    0.805076
     14          1           0       -3.559608    0.478779   -0.090308
     15          1           0       -3.497259   -0.936041    0.964826
     16          1           0       -3.004116   -1.074265   -0.724752
 ---------------------------------------------------------------------

 SCF Done:  E(RHF) =  -361.193433027     A.U. after    2 cycles

 The electronic state is 1-A.
 Alpha  occ. eigenvalues --  -20.59036 -20.58867 -15.78271 -11.31620 -11.25926
 Alpha  occ. eigenvalues --  -11.24622 -11.23615  -1.66807  -1.50649  -1.14368
 Alpha  occ. eigenvalues --   -1.06083  -0.96012  -0.86996  -0.82482  -0.76941
 Alpha  occ. eigenvalues --   -0.75298  -0.74197  -0.66018  -0.62573  -0.61642
 Alpha  occ. eigenvalues --   -0.57688  -0.55021  -0.51617  -0.50057  -0.49650
 Alpha  occ. eigenvalues --   -0.48467  -0.47941  -0.44896
 Alpha virt. eigenvalues --    0.02950   0.03454   0.03797   0.04458   0.05624
 Alpha virt. eigenvalues --    0.06366   0.06562   0.07552   0.08420   0.09319
 Alpha virt. eigenvalues --    0.11121   0.12594   0.13231   0.14003   0.14904

 Mulliken charges:
               1
     1  C   -0.231654
     2  C   -0.223192
     3  C   -0.260863
     4  H    0.155505
     5  H    0.188506
     6  N    2.571935
     7  H    0.115780
     8  H    0.135421
     9  O   -1.373763
    10  O   -1.378969
    11  C   -0.412465
    12  H    0.117987
    13  H    0.143853
    14  H    0.156292
    15  H    0.122944
    16  H    0.172684
 Sum of Mulliken charges =   0.00000

 Dipole moment (field-independent basis, Debye):
    X=             -2.9252    Y=              2.7505    Z=             -0.5626  Tot=              4.0544

 Test job not archived.
 1\1\GINC-SE072\SP\RHF\Aug-CC-pVDZ\C4H9N1O2\OHZDE\08-Apr-2025\0\\#t hf
 aug-cc-pvdz iop(5/13=1,5/36=2,99/5=2) pseudo=read geom=check guess=(re
 ad,tcheck) scf=(maxcycle=1)\\title\\0,1\C,0,1.544578,-0.068168,-0.5415
 36\C,0,0.790838,0.655098,0.580802\C,0,-0.630254,1.055404,0.215123\H,0,
 1.322531,1.57476,0.851287\H,0,0.759836,0.030116,1.476591\N,0,-1.541643
 ,-0.144167,0.009075\H,0,-0.697438,1.622604,-0.711703\H,0,-1.10934,1.62
 3082,1.016082\O,0,-2.388908,-0.048899,-0.863252\O,0,-1.389621,-1.10406
 7,0.748198\C,0,2.982541,-0.419292,-0.151169\H,0,1.549711,0.560612,-1.4

 Normal termination of Gaussian 16 at Tue Apr  8 22:38:03 2025.
