 Gaussian 16, Revision C.01,

 ----------------------------------------------------------------------
 #t hf aug-cc-pvdz symm=none int=(grid=ultrafine) guess=(read,tcheck) s
 table=(opt,rrhf)
 ----------------------------------------------------------------------
 -----
 title
 -----
 Symbolic Z-matrix:
 Charge =  0 Multiplicity = 1

 SCF Done:  E(RHF) =  -351.412414683     A.U. after   10 cycles
 Normal termination of Gaussian 16 at Wed Apr  9 00:04:30 2025.
 Gaussian 16:  ES64L-G16RevC.01  3-Jul-2019

 ----------------------------------------------------------------------
 #t hf aug-cc-pvdz iop(5/13=1,5/36=2,99/5=2) pseudo=read geom=check gue
 ss=(read,tcheck) scf=(maxcycle=1)
 ----------------------------------------------------------------------
 -----
 title
 -----
 Structure from the checkpoint file:  "BDE49_nonexpt_21_mol1.chk"
 Charge =  0 Multiplicity = 1

                         Standard orientation:
 ---------------------------------------------------------------------
 Center     Atomic      Atomic             Coordinates (Angstroms)
 Number     Number       Type             X           Y           Z
 ---------------------------------------------------------------------
      1          5           0        0.000000   -0.000000    0.855878
      2          5           0       -0.000000    0.000000   -0.855878
      3          8           0        1.204885    0.000030   -1.510513
      4          1           0        1.150904    0.000034   -2.473063
      5          8           0        0.000000    1.204885    1.510513
      6          1           0        0.000005    1.150904    2.473063
      7          8           0       -1.204885   -0.000030   -1.510513
      8          1           0       -1.150904   -0.000034   -2.473063
      9          8           0       -0.000000   -1.204885    1.510513
     10          1           0       -0.000005   -1.150904    2.473063
 ---------------------------------------------------------------------

 SCF Done:  E(RHF) =  -351.758105408     A.U. after    2 cycles

 The electronic state is 1-A.
 Alpha  occ. eigenvalues --  -20.55635 -20.55635 -20.55635 -20.55634  -7.62205
 Alpha  occ. eigenvalues --   -7.62167  -1.47756  -1.47442  -1.43428  -1.43428
 Alpha  occ. eigenvalues --   -0.80586  -0.74248  -0.72818  -0.72818  -0.63835
 Alpha  occ. eigenvalues --   -0.62918  -0.56076  -0.56076  -0.51795  -0.51795
 Alpha  occ. eigenvalues --   -0.49342  -0.48692  -0.45428
 Alpha virt. eigenvalues --    0.02576   0.03308   0.05717   0.05717   0.07077
 Alpha virt. eigenvalues --    0.07077   0.07656   0.08757   0.10199   0.10199
 Alpha virt. eigenvalues --    0.12493   0.12593   0.18642   0.18642   0.18761

 Mulliken charges:
               1
     1  B    1.332451
     2  B    1.332451
     3  O   -1.157330
     4  H    0.491104
     5  O   -1.157330
     6  H    0.491104
     7  O   -1.157330
     8  H    0.491104
     9  O   -1.157330
    10  H    0.491104
 Sum of Mulliken charges =  -0.00000

 Dipole moment (field-independent basis, Debye):
    X=              0.0000    Y=             -0.0000    Z=             -0.0000  Tot=              0.0000

 Test job not archived.
 1\1\GINC-SE345\SP\RHF\Aug-CC-pVDZ\B2H4O4\OHZDE\09-Apr-2025\0\\#t hf au
 g-cc-pvdz iop(5/13=1,5/36=2,99/5=2) pseudo=read geom=check guess=(read
 ,tcheck) scf=(maxcycle=1)\\title\\0,1\B,0,0.,0.,0.855878\B,0,0.,0.,-0.
 855878\O,0,0.,1.204885,-1.510513\H,0,-0.000005,1.150904,-2.473063\O,0,
 -1.204885,0.00003,1.510513\H,0,-1.150904,0.000034,2.473063\O,0,0.,-1.2
 04885,-1.510513\H,0,0.000005,-1.150904,-2.473063\O,0,1.204885,-0.00003
 ,1.510513\H,0,1.150904,-0.000034,2.473063\\Version=ES64L-G16RevC.01\St
 ate=1-A\HF=-351.7581054\RMSD=1.393e-02\Dipole=0.,0.,0.\Quadrupole=-6.5

 Normal termination of Gaussian 16 at Wed Apr  9 00:04:33 2025.
