 Gaussian 16, Revision C.01,

 ----------------------------------------------------------------------
 #t hf aug-cc-pvdz symm=none int=(grid=ultrafine) guess=(read,tcheck) s
 table=(opt,rrhf)
 ----------------------------------------------------------------------
 -----
 title
 -----
 Symbolic Z-matrix:
 Charge =  0 Multiplicity = 1

 SCF Done:  E(RHF) =  -1070.79232539     A.U. after   13 cycles
 Normal termination of Gaussian 16 at Tue Apr  8 22:33:40 2025.
 Gaussian 16:  ES64L-G16RevC.01  3-Jul-2019

 ----------------------------------------------------------------------
 #t hf aug-cc-pvdz iop(5/13=1,5/36=2,99/5=2) pseudo=read geom=check gue
 ss=(read,tcheck) scf=(maxcycle=1)
 ----------------------------------------------------------------------
 -----
 title
 -----
 Structure from the checkpoint file:  "BDE49_expt_1078_mol1.chk"
 Charge =  0 Multiplicity = 1

                         Standard orientation:
 ---------------------------------------------------------------------
 Center     Atomic      Atomic             Coordinates (Angstroms)
 Number     Number       Type             X           Y           Z
 ---------------------------------------------------------------------
      1          6           0       -0.547152   -0.719268    0.000235
      2          6           0        0.475358    0.394485    0.000569
      3          8           0        0.322746    1.558327    0.000120
      4         17           0        2.149061   -0.350126   -0.000283
      5         17           0       -2.228841   -0.111353   -0.000083
      6          1           0       -0.397276   -1.336318   -0.884883
      7          1           0       -0.397660   -1.336461    0.885317
 ---------------------------------------------------------------------

 SCF Done:  E(RHF) =  -1071.09265450     A.U. after    2 cycles

 The electronic state is 1-A.
 Alpha  occ. eigenvalues -- -105.59432-105.58861 -20.60820 -11.44421 -11.35761
 Alpha  occ. eigenvalues --  -10.64270 -10.63642  -7.81186  -7.80816  -7.80806
 Alpha  occ. eigenvalues --   -7.80598  -7.80185  -7.80179  -1.55920  -1.15928
 Alpha  occ. eigenvalues --   -1.09667  -0.97695  -0.80109  -0.71607  -0.69903
 Alpha  occ. eigenvalues --   -0.68818  -0.59489  -0.59277  -0.49948  -0.49198
 Alpha  occ. eigenvalues --   -0.48330  -0.47383  -0.46525
 Alpha virt. eigenvalues --    0.03290   0.04666   0.06942   0.07896   0.09809
 Alpha virt. eigenvalues --    0.10038   0.11380   0.12277   0.12307   0.13585
 Alpha virt. eigenvalues --    0.14922   0.15331   0.16727   0.17273   0.18028

 Mulliken charges:
               1
     1  C   -0.555399
     2  C    0.866998
     3  O   -0.971793
     4  Cl  -0.108029
     5  Cl   0.043246
     6  H    0.362452
     7  H    0.362524
 Sum of Mulliken charges =   0.00000

 Dipole moment (field-independent basis, Debye):
    X=             -0.0665    Y=             -2.4607    Z=              0.0011  Tot=              2.4616

 Test job not archived.
 1\1\GINC-SE159\SP\RHF\Aug-CC-pVDZ\C2H2Cl2O1\OHZDE\08-Apr-2025\0\\#t hf
  aug-cc-pvdz iop(5/13=1,5/36=2,99/5=2) pseudo=read geom=check guess=(r
 ead,tcheck) scf=(maxcycle=1)\\title\\0,1\C,0,0.547152,-0.719268,-0.000
 235\C,0,-0.475358,0.394485,-0.000569\O,0,-0.322746,1.558327,-0.00012\C
 l,0,-2.149061,-0.350126,0.000283\Cl,0,2.228841,-0.111353,0.000083\H,0,
 0.397276,-1.336318,0.884883\H,0,0.39766,-1.336461,-0.885317\\Version=E
 S64L-G16RevC.01\State=1-A\HF=-1071.0926545\RMSD=7.816e-03\Dipole=0.026
 1561,-0.9681044,-0.0004246\Quadrupole=-2.0134472,-0.1174709,2.1309181,

 Normal termination of Gaussian 16 at Tue Apr  8 22:33:43 2025.
