 Gaussian 16, Revision C.01,

 ----------------------------------------------------------------------
 #t hf aug-cc-pvdz symm=none int=(grid=ultrafine) guess=(read,tcheck) s
 table=(opt,rrhf)
 ----------------------------------------------------------------------
 -----
 title
 -----
 Symbolic Z-matrix:
 Charge =  0 Multiplicity = 1

 SCF Done:  E(RHF) =  -737.536035641     A.U. after   11 cycles
 Normal termination of Gaussian 16 at Tue Apr  8 23:12:32 2025.
 Gaussian 16:  ES64L-G16RevC.01  3-Jul-2019

 ----------------------------------------------------------------------
 #t hf aug-cc-pvdz iop(5/13=1,5/36=2,99/5=2) pseudo=read geom=check gue
 ss=(read,tcheck) scf=(maxcycle=1)
 ----------------------------------------------------------------------
 -----
 title
 -----
 Structure from the checkpoint file:  "BDE49_expt_802_mol1.chk"
 Charge =  0 Multiplicity = 1

                         Standard orientation:
 ---------------------------------------------------------------------
 Center     Atomic      Atomic             Coordinates (Angstroms)
 Number     Number       Type             X           Y           Z
 ---------------------------------------------------------------------
      1         14           0       -0.313409    1.141533   -0.000000
      2         14           0        0.313409   -1.141533   -0.000000
      3          6           0        0.313409    2.027487    1.548852
      4          1           0       -1.803844    1.213805    0.000000
      5          6           0        0.313409    2.027487   -1.548852
      6          6           0       -0.313409   -2.027487   -1.548852
      7          6           0       -0.313409   -2.027487    1.548852
      8          1           0        1.803844   -1.213805    0.000000
      9          1           0        1.405518    1.998724   -1.605385
     10          1           0        0.005467    3.077559   -1.547107
     11          1           0       -0.081178    1.566619   -2.458540
     12          1           0       -0.081178    1.566619    2.458540
     13          1           0        0.005467    3.077559    1.547107
     14          1           0        1.405518    1.998724    1.605385
     15          1           0       -1.405518   -1.998724    1.605385
     16          1           0        0.081178   -1.566619    2.458540
     17          1           0       -0.005467   -3.077559    1.547107
     18          1           0       -1.405518   -1.998724   -1.605385
     19          1           0       -0.005467   -3.077559   -1.547107
     20          1           0        0.081178   -1.566619   -2.458540
 ---------------------------------------------------------------------

 SCF Done:  E(RHF) =  -737.787075744     A.U. after    2 cycles

 The electronic state is 1-AG.
 Alpha  occ. eigenvalues --  -69.50734 -69.50734 -11.21304 -11.21302 -11.21300
 Alpha  occ. eigenvalues --  -11.21299  -6.17845  -6.17834  -3.93188  -3.93181
 Alpha  occ. eigenvalues --   -3.93170  -3.93169  -3.93159  -3.93104  -0.96758
 Alpha  occ. eigenvalues --   -0.95745  -0.92969  -0.92475  -0.70621  -0.63794
 Alpha  occ. eigenvalues --   -0.57458  -0.57165  -0.56891  -0.55752  -0.55468
 Alpha  occ. eigenvalues --   -0.54892  -0.54775  -0.54292  -0.45977  -0.45316
 Alpha  occ. eigenvalues --   -0.44343  -0.43679  -0.37380
 Alpha virt. eigenvalues --    0.03538   0.03684   0.03714   0.03791   0.05671
 Alpha virt. eigenvalues --    0.05868   0.06321   0.06490   0.07131   0.08056
 Alpha virt. eigenvalues --    0.08444   0.08779   0.08982   0.09954   0.10123

 Mulliken charges:
               1
     1  Si   1.468846
     2  Si   1.468846
     3  C   -0.647854
     4  H   -0.247391
     5  C   -0.647854
     6  C   -0.647854
     7  C   -0.647854
     8  H   -0.247391
     9  H    0.091690
    10  H   -0.035188
    11  H   -0.019375
    12  H   -0.019375
    13  H   -0.035188
    14  H    0.091690
    15  H    0.091690
    16  H   -0.019375
    17  H   -0.035188
    18  H    0.091690
    19  H   -0.035188
    20  H   -0.019375
 Sum of Mulliken charges =  -0.00000

 Dipole moment (field-independent basis, Debye):
    X=              0.0000    Y=              0.0000    Z=              0.0000  Tot=              0.0000

 Test job not archived.
 1\1\GINC-SE227\SP\RHF\Aug-CC-pVDZ\C4H14Si2\OHZDE\08-Apr-2025\0\\#t hf
 aug-cc-pvdz iop(5/13=1,5/36=2,99/5=2) pseudo=read geom=check guess=(re
 ad,tcheck) scf=(maxcycle=1)\\title\\0,1\Si,0,-0.313409,1.141533,0.\Si,
 0,0.313409,-1.141533,0.\C,0,0.313409,2.027487,1.548852\H,0,-1.803844,1
 .213805,0.\C,0,0.313409,2.027487,-1.548852\C,0,-0.313409,-2.027487,-1.
 548852\C,0,-0.313409,-2.027487,1.548852\H,0,1.803844,-1.213805,0.\H,0,
 1.405518,1.998724,-1.605385\H,0,0.005467,3.077559,-1.547107\H,0,-0.081
 178,1.566619,-2.45854\H,0,-0.081178,1.566619,2.45854\H,0,0.005467,3.07

 Normal termination of Gaussian 16 at Tue Apr  8 23:12:38 2025.
