 Gaussian 16, Revision C.01,

 ----------------------------------------------------------------------
 #t hf aug-cc-pvdz symm=none int=(grid=ultrafine) guess=(read,tcheck) s
 table=(opt,rrhf)
 ----------------------------------------------------------------------
 -----
 title
 -----
 Symbolic Z-matrix:
 Charge =  0 Multiplicity = 1

 SCF Done:  E(RHF) =  -740.059459056     A.U. after   15 cycles
 Normal termination of Gaussian 16 at Wed Apr  9 00:21:42 2025.
 Gaussian 16:  ES64L-G16RevC.01  3-Jul-2019

 ----------------------------------------------------------------------
 #t hf aug-cc-pvdz iop(5/13=1,5/36=2,99/5=2) pseudo=read geom=check gue
 ss=(read,tcheck) scf=(maxcycle=1)
 ----------------------------------------------------------------------
 -----
 title
 -----
 Structure from the checkpoint file:  "BDE49_nonexpt_2632_mol1.chk"
 Charge =  0 Multiplicity = 1

                         Standard orientation:
 ---------------------------------------------------------------------
 Center     Atomic      Atomic             Coordinates (Angstroms)
 Number     Number       Type             X           Y           Z
 ---------------------------------------------------------------------
      1          9           0        1.797617   -0.182730    1.084867
      2         16           0        1.431180    0.172227   -0.499880
      3          6           0       -0.119354   -0.666923   -0.593120
      4          7           0       -1.337652    0.067270    0.019110
      5          1           0       -0.090768   -1.642145   -0.111674
      6          1           0       -0.358950   -0.781086   -1.653434
      7          8           0       -2.258340   -0.669738    0.325348
      8          8           0       -1.310163    1.275090    0.102694
 ---------------------------------------------------------------------

 SCF Done:  E(RHF) =  -740.439595915     A.U. after    2 cycles

 The electronic state is 1-A.
 Alpha  occ. eigenvalues --  -94.07548 -26.50029 -20.61332 -20.60907 -15.80634
 Alpha  occ. eigenvalues --  -11.37558  -8.34862  -6.32637  -6.32360  -6.32050
 Alpha  occ. eigenvalues --   -1.69238  -1.60163  -1.53330  -1.16776  -1.02197
 Alpha  occ. eigenvalues --   -0.88892  -0.80191  -0.78016  -0.76753  -0.69822
 Alpha  occ. eigenvalues --   -0.69097  -0.67676  -0.62828  -0.55835  -0.50787
 Alpha  occ. eigenvalues --   -0.50370  -0.46889  -0.42240
 Alpha virt. eigenvalues --    0.02546   0.04060   0.05363   0.06011   0.06482
 Alpha virt. eigenvalues --    0.08968   0.11257   0.12049   0.13437   0.14459
 Alpha virt. eigenvalues --    0.15333   0.16389   0.16991   0.19259   0.20595

 Mulliken charges:
               1
     1  F   -0.670602
     2  S    1.181580
     3  C   -0.799061
     4  N    2.361926
     5  H    0.208626
     6  H    0.269962
     7  O   -1.295054
     8  O   -1.257377
 Sum of Mulliken charges =  -0.00000

 Dipole moment (field-independent basis, Debye):
    X=              1.6773    Y=             -1.7156    Z=             -2.6214  Tot=              3.5536

 Test job not archived.
 1\1\GINC-SE132\SP\RHF\Aug-CC-pVDZ\C1H2F1N1O2S1\OHZDE\09-Apr-2025\0\\#t
  hf aug-cc-pvdz iop(5/13=1,5/36=2,99/5=2) pseudo=read geom=check guess
 =(read,tcheck) scf=(maxcycle=1)\\title\\0,1\F,0,1.797617,0.18273,-1.08
 4867\S,0,1.43118,-0.172227,0.49988\C,0,-0.119354,0.666923,0.59312\N,0,
 -1.337652,-0.06727,-0.01911\H,0,-0.090768,1.642145,0.111674\H,0,-0.358
 95,0.781086,1.653434\O,0,-2.25834,0.669738,-0.325348\O,0,-1.310163,-1.
 27509,-0.102694\\Version=ES64L-G16RevC.01\State=1-A\HF=-740.4395959\RM
 SD=1.422e-02\Dipole=0.659893,0.6749572,1.0313506\Quadrupole=-3.9076203

 Normal termination of Gaussian 16 at Wed Apr  9 00:21:45 2025.
