 Gaussian 16, Revision C.01,

 ----------------------------------------------------------------------
 #t hf aug-cc-pvdz symm=none int=(grid=ultrafine) guess=(read,tcheck) s
 table=(opt,rrhf)
 ----------------------------------------------------------------------
 -----
 title
 -----
 Symbolic Z-matrix:
 Charge =  0 Multiplicity = 1

 SCF Done:  E(RHF) =  -574.411645678     A.U. after   13 cycles
 Normal termination of Gaussian 16 at Wed Apr  9 00:21:56 2025.
 Gaussian 16:  ES64L-G16RevC.01  3-Jul-2019

 ----------------------------------------------------------------------
 #t hf aug-cc-pvdz iop(5/13=1,5/36=2,99/5=2) pseudo=read geom=check gue
 ss=(read,tcheck) scf=(maxcycle=1)
 ----------------------------------------------------------------------
 -----
 title
 -----
 Structure from the checkpoint file:  "BDE49_nonexpt_2652_mol1.chk"
 Charge =  0 Multiplicity = 1

                         Standard orientation:
 ---------------------------------------------------------------------
 Center     Atomic      Atomic             Coordinates (Angstroms)
 Number     Number       Type             X           Y           Z
 ---------------------------------------------------------------------
      1          9           0        1.083707    1.047724   -0.000001
      2         16           0        0.768954   -0.584271    0.000000
      3          6           0       -0.974822   -0.563549    0.000000
      4          6           0       -1.772517    0.500680    0.000000
      5          1           0       -1.349095   -1.585910    0.000001
      6          1           0       -1.375956    1.506947   -0.000001
      7          1           0       -2.847544    0.374994    0.000000
 ---------------------------------------------------------------------

 SCF Done:  E(RHF) =  -574.640928619     A.U. after    2 cycles

 The electronic state is 1-A.
 Alpha  occ. eigenvalues --  -94.04770 -26.47973 -11.29549 -11.25577  -8.32117
 Alpha  occ. eigenvalues --   -6.29925  -6.29608  -6.29323  -1.58182  -1.11241
 Alpha  occ. eigenvalues --   -0.98172  -0.79895  -0.69588  -0.66696  -0.66235
 Alpha  occ. eigenvalues --   -0.62828  -0.57299  -0.50323  -0.47534  -0.34792
 Alpha virt. eigenvalues --    0.03424   0.04195   0.05638   0.07599   0.07989
 Alpha virt. eigenvalues --    0.09137   0.11923   0.12524   0.14204   0.14932
 Alpha virt. eigenvalues --    0.15698   0.16640   0.18138   0.18535   0.19504

 Mulliken charges:
               1
     1  F   -0.701389
     2  S    0.927437
     3  C   -0.135817
     4  C    0.072656
     5  H   -0.125465
     6  H    0.001955
     7  H   -0.039377
 Sum of Mulliken charges =  -0.00000

 Dipole moment (field-independent basis, Debye):
    X=             -1.5827    Y=             -1.1440    Z=              0.0000  Tot=              1.9529

 Test job not archived.
 1\1\GINC-SE054\SP\RHF\Aug-CC-pVDZ\C2H3F1S1\OHZDE\09-Apr-2025\0\\#t hf
 aug-cc-pvdz iop(5/13=1,5/36=2,99/5=2) pseudo=read geom=check guess=(re
 ad,tcheck) scf=(maxcycle=1)\\title\\0,1\F,0,1.083707,1.047723,-0.00000
 1\S,0,0.768954,-0.584271,0.\C,0,-0.974822,-0.563549,0.\C,0,-1.772517,0
 .500681,0.\H,0,-1.349096,-1.58591,0.000001\H,0,-1.375955,1.506947,-0.0
 00001\H,0,-2.847544,0.374995,0.\\Version=ES64L-G16RevC.01\State=1-A\HF
 =-574.6409286\RMSD=9.734e-03\Dipole=-0.6226785,-0.4500856,0.0000003\Qu
 adrupole=1.2552457,1.3726316,-2.6278773,-0.2526272,0.,-0.0000027\PG=C0

 Normal termination of Gaussian 16 at Wed Apr  9 00:21:58 2025.
