 Gaussian 16, Revision C.01,

 ----------------------------------------------------------------------
 #t hf aug-cc-pvdz symm=none int=(grid=ultrafine) guess=(read,tcheck) s
 table=opt
 ----------------------------------------------------------------------
 -----
 title
 -----
 Symbolic Z-matrix:
 Charge =  0 Multiplicity = 2

 SCF Done:  E(UHF) =  -285.439214447     A.U. after   21 cycles
 Normal termination of Gaussian 16 at Tue Apr  8 23:04:19 2025.
 Gaussian 16:  ES64L-G16RevC.01  3-Jul-2019

 ----------------------------------------------------------------------
 #t hf aug-cc-pvdz iop(5/13=1,5/36=2,99/5=2) pseudo=read geom=check gue
 ss=(read,tcheck) scf=(maxcycle=1)
 ----------------------------------------------------------------------
 -----
 title
 -----
 Structure from the checkpoint file:  "BDE49_expt_355_mol2.chk"
 Charge =  0 Multiplicity = 2

                         Standard orientation:
 ---------------------------------------------------------------------
 Center     Atomic      Atomic             Coordinates (Angstroms)
 Number     Number       Type             X           Y           Z
 ---------------------------------------------------------------------
      1          7           0        0.570944    0.051851   -0.056491
      2          6           0        1.186015    1.368217   -0.026050
      3          1           0        2.135630    1.327216   -0.565443
      4          1           0        1.393968    1.712499    0.996210
      5          1           0        0.561883    2.106712   -0.526680
      6          6           0        1.471819   -1.085734    0.050731
      7          1           0        2.203469   -1.070181   -0.763843
      8          1           0        0.881556   -1.996463   -0.007249
      9          1           0        2.015243   -1.069790    1.004009
     10          6           0       -0.792168   -0.176564   -0.021656
     11          8           0       -1.261384   -1.317250   -0.023887
     12          6           0       -1.692533    0.967585    0.038152
     13          1           0       -1.390745    1.982751    0.253550
     14          1           0       -2.745348    0.741274   -0.051081
 ---------------------------------------------------------------------

 SCF Done:  E(UHF) =  -285.734110296     A.U. after    2 cycles

 The electronic state is 2-A.
 Alpha  occ. eigenvalues --  -20.51254 -15.52062 -11.35087 -11.28017 -11.27224
 Alpha  occ. eigenvalues --  -11.26054  -1.45804  -1.24716  -1.03840  -0.98294
 Alpha  occ. eigenvalues --   -0.93175  -0.76102  -0.71249  -0.67688  -0.67211
 Alpha  occ. eigenvalues --   -0.60082  -0.59597  -0.57456  -0.57047  -0.56159
 Alpha  occ. eigenvalues --   -0.54350  -0.43478  -0.41560  -0.39842
 Alpha virt. eigenvalues --    0.03114   0.04008   0.04501   0.04754   0.05846
 Alpha virt. eigenvalues --    0.06419   0.07239   0.08569   0.09670   0.12202
 Alpha virt. eigenvalues --    0.12686   0.13977   0.14260   0.14904   0.15429

  Beta  occ. eigenvalues --  -20.50199 -15.52059 -11.35629 -11.28010 -11.26065
  Beta  occ. eigenvalues --  -11.24971  -1.43693  -1.24478  -0.99647  -0.97877
  Beta  occ. eigenvalues --   -0.90297  -0.75647  -0.70132  -0.67171  -0.66850
  Beta  occ. eigenvalues --   -0.58977  -0.58727  -0.57247  -0.56929  -0.54320
  Beta  occ. eigenvalues --   -0.52070  -0.42009  -0.37593
  Beta virt. eigenvalues --    0.03158   0.03642   0.04063   0.04751   0.05200
  Beta virt. eigenvalues --    0.05870   0.07030   0.07242   0.08715   0.09855
  Beta virt. eigenvalues --    0.12571   0.12809   0.14308   0.14334   0.15160

 Mulliken charges and spin densities:
               1          2
     1  N    0.705314  -0.000319
     2  C   -0.395687   0.007644
     3  H    0.109623  -0.000402
     4  H    0.165759  -0.002276
     5  H    0.046306  -0.007483
     6  C   -0.410258  -0.003019
     7  H    0.157697   0.000792
     8  H    0.010792  -0.001405
     9  H    0.211835   0.001184
    10  C    0.571172  -0.322850
    11  O   -1.273130   0.253463
    12  C    0.173862   1.234698
    13  H   -0.034886  -0.073734
    14  H   -0.038400  -0.086294
 Sum of Mulliken charges =  -0.00000   1.00000

 Dipole moment (field-independent basis, Debye):
    X=              1.9349    Y=              3.2564    Z=              0.1678  Tot=              3.7916
                          Isotropic Fermi Contact Couplings
        Atom                 a.u.       MegaHertz       Gauss      10(-4) cm-1
     1  N(14)             -0.00411      -1.32692      -0.47348      -0.44261
     2  C(13)              0.00069       0.77203       0.27548       0.25752
     3  H(1)              -0.00012      -0.51908      -0.18522      -0.17315
     4  H(1)              -0.00087      -3.88424      -1.38599      -1.29564
     5  H(1)              -0.00032      -1.43217      -0.51104      -0.47772
     6  C(13)             -0.00188      -2.11147      -0.75343      -0.70431
     7  H(1)               0.00048       2.13337       0.76124       0.71162
     8  H(1)               0.00017       0.77279       0.27575       0.25777

 Normal termination of Gaussian 16 at Tue Apr  8 23:04:24 2025.
