 Gaussian 16, Revision C.01,

 ----------------------------------------------------------------------
 #t hf aug-cc-pvdz symm=none int=(grid=ultrafine) guess=(read,tcheck) s
 table=opt
 ----------------------------------------------------------------------
 -----
 title
 -----
 Symbolic Z-matrix:
 Charge =  0 Multiplicity = 2

 SCF Done:  E(UHF) =  -588.864316292     A.U. after   22 cycles
 Normal termination of Gaussian 16 at Tue Apr  8 23:43:21 2025.
 Gaussian 16:  ES64L-G16RevC.01  3-Jul-2019

 ----------------------------------------------------------------------
 #t hf aug-cc-pvdz iop(5/13=1,5/36=2,99/5=2) pseudo=read geom=check gue
 ss=(read,tcheck) scf=(maxcycle=1)
 ----------------------------------------------------------------------
 -----
 title
 -----
 Structure from the checkpoint file:  "BDE49_nonexpt_1699_mol2.chk"
 Charge =  0 Multiplicity = 2

                         Standard orientation:
 ---------------------------------------------------------------------
 Center     Atomic      Atomic             Coordinates (Angstroms)
 Number     Number       Type             X           Y           Z
 ---------------------------------------------------------------------
      1         16           0        1.824400   -0.073949   -0.000001
      2          8           0        0.279491   -0.663035   -0.000003
      3          6           0       -0.860086    0.146521    0.000000
      4          6           0       -0.840005    1.476157    0.000000
      5          6           0       -2.070206   -0.734245    0.000004
      6          1           0       -2.980633   -0.135117    0.000006
      7          1           0       -2.070530   -1.381550    0.881357
      8          1           0       -2.070534   -1.381553   -0.881347
      9          1           0        0.088401    2.030289   -0.000004
     10          1           0       -1.771254    2.024799    0.000002
 ---------------------------------------------------------------------

 SCF Done:  E(UHF) =  -589.113795251     A.U. after    2 cycles

 The electronic state is 2-A.
 Alpha  occ. eigenvalues --  -94.02374 -20.61576 -11.31606 -11.24639 -11.23135
 Alpha  occ. eigenvalues --   -8.29784  -6.28815  -6.27248  -6.26799  -1.51975
 Alpha  occ. eigenvalues --   -1.08664  -0.98826  -0.95507  -0.75771  -0.67703
 Alpha  occ. eigenvalues --   -0.65907  -0.65164  -0.57446  -0.57240  -0.54942
 Alpha  occ. eigenvalues --   -0.53130  -0.44098  -0.39173  -0.36431
 Alpha virt. eigenvalues --    0.03701   0.04359   0.04971   0.05649   0.06642
 Alpha virt. eigenvalues --    0.08320   0.09512   0.11369   0.11586   0.12791
 Alpha virt. eigenvalues --    0.14424   0.15461   0.16560   0.16698   0.16817

  Beta  occ. eigenvalues --  -94.01526 -20.60920 -11.31963 -11.24601 -11.22818
  Beta  occ. eigenvalues --   -8.28812  -6.26876  -6.26299  -6.24944  -1.50286
  Beta  occ. eigenvalues --   -1.08102  -0.96319  -0.91547  -0.73978  -0.67359
  Beta  occ. eigenvalues --   -0.64806  -0.61980  -0.57020  -0.54733  -0.54694
  Beta  occ. eigenvalues --   -0.52453  -0.37192  -0.36055
  Beta virt. eigenvalues --    0.00343   0.03715   0.04393   0.05053   0.05846
  Beta virt. eigenvalues --    0.06804   0.08410   0.09895   0.11257   0.12902
  Beta virt. eigenvalues --    0.13717   0.14453   0.15843   0.16669   0.16736

 Mulliken charges and spin densities:
               1          2
     1  S    0.544228   0.949840
     2  O   -1.560603   0.041596
     3  C    1.248203  -0.192212
     4  C    0.027011   0.208559
     5  C   -0.621299   0.039597
     6  H    0.138530  -0.001395
     7  H    0.213988  -0.003056
     8  H    0.213989  -0.003056
     9  H   -0.105649  -0.030601
    10  H   -0.098395  -0.009271
 Sum of Mulliken charges =  -0.00000   1.00000

 Dipole moment (field-independent basis, Debye):
    X=             -1.2076    Y=              0.4396    Z=              0.0000  Tot=              1.2851
                          Isotropic Fermi Contact Couplings
        Atom                 a.u.       MegaHertz       Gauss      10(-4) cm-1
     1  S(33)              0.19115      65.65625      23.42778      21.90057
     2  O(17)              0.06419     -38.90948     -13.88387     -12.97880
     3  C(13)             -0.03521     -39.57861     -14.12263     -13.20200
     4  C(13)              0.02743      30.83726      11.00350      10.28620
     5  C(13)              0.00655       7.36480       2.62794       2.45663
     6  H(1)              -0.00042      -1.88772      -0.67359      -0.62968
     7  H(1)              -0.00202      -9.01884      -3.21815      -3.00836
     8  H(1)              -0.00202      -9.01882      -3.21814      -3.00835

 Normal termination of Gaussian 16 at Tue Apr  8 23:43:24 2025.
