 Gaussian 16, Revision C.01,

 ----------------------------------------------------------------------
 #t hf aug-cc-pvdz symm=none int=(grid=ultrafine) guess=(read,tcheck) s
 table=(opt,rrhf)
 ----------------------------------------------------------------------
 -----
 title
 -----
 Symbolic Z-matrix:
 Charge =  0 Multiplicity = 1

 SCF Done:  E(RHF) =  -2273.37484925     A.U. after   13 cycles

 1\1\GINC-SE250\Stability\RHF\Aug-CC-pVDZ\C1Cl4S1\OHZDE\09-Apr-2025\0\\
 #t hf aug-cc-pvdz symm=none int=(grid=ultrafine) guess=(read,tcheck) s
 table=(opt,rrhf)\\title\\0,1\Cl,0,2.497238,-0.015446,-0.000071\S,0,0.8
 17576,1.184282,-0.000596\C,0,-0.533609,-0.037447,-0.000009\Cl,0,-1.957
 245,1.065763,0.000643\Cl,0,-0.559922,-1.075871,1.455541\Cl,0,-0.561221
 ,-1.075849,-1.455549\\Version=ES64L-G16RevC.01\HF=-2273.3748493\RMSD=6
 .349e-09\Dipole=-0.1242899,0.1531295,-0.0000104\Quadrupole=-0.0771674,
 0.8501634,-0.772996,-0.6535595,0.0001993,-0.0008159\PG=Unknown\\@

 Normal termination of Gaussian 16 at Wed Apr  9 00:16:39 2025.
 Gaussian 16:  ES64L-G16RevC.01  3-Jul-2019

 ----------------------------------------------------------------------
 #t hf aug-cc-pvdz iop(5/13=1,5/36=2,99/5=2) pseudo=read geom=check gue
 ss=(read,tcheck) scf=(maxcycle=1)
 ----------------------------------------------------------------------
 -----
 title
 -----
 Structure from the checkpoint file:  "BDE49_nonexpt_2538_mol1.chk"
 Charge =  0 Multiplicity = 1

                         Standard orientation:
 ---------------------------------------------------------------------
 Center     Atomic      Atomic             Coordinates (Angstroms)
 Number     Number       Type             X           Y           Z
 ---------------------------------------------------------------------
      1         17           0       -2.497238   -0.015445    0.000071
      2         16           0       -0.817576    1.184282    0.000596
      3          6           0        0.533609   -0.037447    0.000009
      4         17           0        1.957245    1.065763   -0.000643
      5         17           0        0.559922   -1.075871   -1.455541
      6         17           0        0.561221   -1.075849    1.455549
 ---------------------------------------------------------------------

 SCF Done:  E(RHF) =  -2273.77281920     A.U. after    2 cycles

 The electronic state is 1-A.
 Alpha  occ. eigenvalues -- -105.61880-105.60969-105.60968-105.60782 -94.05247
 Alpha  occ. eigenvalues --  -11.48902 -10.66679 -10.65787 -10.65783 -10.65503
 Alpha  occ. eigenvalues --   -8.32929  -7.83622  -7.83192  -7.83168  -7.82739
 Alpha  occ. eigenvalues --   -7.82734  -7.82445  -7.82285  -7.82284  -7.82282
 Alpha  occ. eigenvalues --   -7.82280  -7.81984  -7.81941  -6.30696  -6.30461
 Alpha  occ. eigenvalues --   -6.30140  -1.24745  -1.13581  -1.09060  -1.08213
 Alpha  occ. eigenvalues --   -0.98345  -0.81531  -0.67013  -0.66145  -0.65762
 Alpha  occ. eigenvalues --   -0.56624  -0.55232  -0.52246  -0.51892  -0.51006
 Alpha  occ. eigenvalues --   -0.48580  -0.48550  -0.47299  -0.47012  -0.40340
 Alpha virt. eigenvalues --    0.03780   0.05171   0.07716   0.08260   0.08335
 Alpha virt. eigenvalues --    0.08560   0.10336   0.10746   0.12356   0.14005
 Alpha virt. eigenvalues --    0.14517   0.14935   0.16036   0.16516   0.18226

 Mulliken charges:
               1
     1  Cl  -0.238252
     2  S    0.730146
     3  C   -1.228355
     4  Cl   0.317245
     5  Cl   0.209618
     6  Cl   0.209598
 Sum of Mulliken charges =  -0.00000

 Dipole moment (field-independent basis, Debye):
    X=              0.3108    Y=              0.3794    Z=              0.0000  Tot=              0.4905

 Test job not archived.
 1\1\GINC-SE250\SP\RHF\Aug-CC-pVDZ\C1Cl4S1\OHZDE\09-Apr-2025\0\\#t hf a
 ug-cc-pvdz iop(5/13=1,5/36=2,99/5=2) pseudo=read geom=check guess=(rea
 d,tcheck) scf=(maxcycle=1)\\title\\0,1\Cl,0,2.497238,-0.015446,-0.0000
 71\S,0,0.817576,1.184282,-0.000596\C,0,-0.533609,-0.037447,-0.000009\C
 l,0,-1.957245,1.065763,0.000643\Cl,0,-0.559922,-1.075871,1.455541\Cl,0
 ,-0.561221,-1.075849,-1.455549\\Version=ES64L-G16RevC.01\State=1-A\HF=
 -2273.7728192\RMSD=3.472e-03\Dipole=-0.1222808,0.1492685,-0.0000092\Qu
 adrupole=0.0070042,0.8332138,-0.840218,-0.6798403,0.0001901,-0.0008409

 Normal termination of Gaussian 16 at Wed Apr  9 00:16:42 2025.
