 Gaussian 16, Revision C.01,

 ----------------------------------------------------------------------
 #t hf aug-cc-pvdz symm=none int=(grid=ultrafine) guess=(read,tcheck) s
 table=opt
 ----------------------------------------------------------------------
 -----
 title
 -----
 Symbolic Z-matrix:
 Charge =  0 Multiplicity = 2

 SCF Done:  E(UHF) =  -931.596565069     A.U. after   15 cycles
 Normal termination of Gaussian 16 at Tue Apr  8 23:54:35 2025.
 Gaussian 16:  ES64L-G16RevC.01  3-Jul-2019

 ----------------------------------------------------------------------
 #t hf aug-cc-pvdz iop(5/13=1,5/36=2,99/5=2) pseudo=read geom=check gue
 ss=(read,tcheck) scf=(maxcycle=1)
 ----------------------------------------------------------------------
 -----
 title
 -----
 Structure from the checkpoint file:  "BDE49_nonexpt_1955_mol2.chk"
 Charge =  0 Multiplicity = 2

                         Standard orientation:
 ---------------------------------------------------------------------
 Center     Atomic      Atomic             Coordinates (Angstroms)
 Number     Number       Type             X           Y           Z
 ---------------------------------------------------------------------
      1         14           0       -2.269666    0.001790   -0.079518
      2         15           0        0.779069   -0.039964   -0.108193
      3          8           0        0.514676    1.519199    0.139324
      4          1           0        1.268653    2.062998   -0.116519
      5          8           0        1.385537   -0.529035    1.289354
      6          1           0        2.034374   -1.230139    1.158120
      7          8           0        1.595890   -0.390206   -1.267715
      8          8           0       -0.697991   -0.583779   -0.083238
      9          1           0       -3.120615   -1.212096   -0.066547
     10          1           0       -2.478022    0.824209    1.139295
 ---------------------------------------------------------------------

 SCF Done:  E(UHF) =  -931.963833574     A.U. after    2 cycles

 The electronic state is 2-A.
 Alpha  occ. eigenvalues --  -84.46871 -69.59506 -20.60380 -20.59796 -20.58422
 Alpha  occ. eigenvalues --  -20.51041  -6.91639  -6.26042  -4.45833  -4.45139
 Alpha  occ. eigenvalues --   -4.45068  -4.01913  -4.01194  -4.01001  -1.56713
 Alpha  occ. eigenvalues --   -1.48603  -1.47724  -1.39498  -0.89207  -0.79214
 Alpha  occ. eigenvalues --   -0.75116  -0.68249  -0.66537  -0.63672  -0.60676
 Alpha  occ. eigenvalues --   -0.59734  -0.57991  -0.54559  -0.53358  -0.49803
 Alpha  occ. eigenvalues --   -0.46624  -0.46499  -0.35881
 Alpha virt. eigenvalues --    0.03418   0.04059   0.04765   0.06043   0.06925
 Alpha virt. eigenvalues --    0.07339   0.09003   0.10276   0.11043   0.12010
 Alpha virt. eigenvalues --    0.13110   0.13601   0.16908   0.17889   0.17996

  Beta  occ. eigenvalues --  -84.46874 -69.58940 -20.60383 -20.59787 -20.58127
  Beta  occ. eigenvalues --  -20.51048  -6.91643  -6.25151  -4.45838  -4.45146
  Beta  occ. eigenvalues --   -4.45068  -4.00847  -4.00645  -3.99819  -1.56524
  Beta  occ. eigenvalues --   -1.48591  -1.47134  -1.39485  -0.88702  -0.77711
  Beta  occ. eigenvalues --   -0.75017  -0.67938  -0.64688  -0.62735  -0.59616
  Beta  occ. eigenvalues --   -0.58833  -0.57751  -0.54147  -0.52876  -0.48533
  Beta  occ. eigenvalues --   -0.46576  -0.46297
  Beta virt. eigenvalues --    0.01966   0.03505   0.04340   0.04859   0.06245
  Beta virt. eigenvalues --    0.07483   0.08922   0.09397   0.10315   0.11155
  Beta virt. eigenvalues --    0.12360   0.13720   0.14594   0.17993   0.18326

 Mulliken charges and spin densities:
               1          2
     1  Si   1.161717   0.898931
     2  P    4.112410   0.002292
     3  O   -1.238276  -0.004105
     4  H    0.369703  -0.000637
     5  O   -1.216313  -0.000597
     6  H    0.352059   0.000870
     7  O   -1.322560   0.002033
     8  O   -1.952280  -0.002804
     9  H   -0.149045   0.044999
    10  H   -0.117415   0.059019
 Sum of Mulliken charges =  -0.00000   1.00000

 Dipole moment (field-independent basis, Debye):
    X=             -0.7675    Y=              0.9098    Z=              1.8064  Tot=              2.1633
                          Isotropic Fermi Contact Couplings
        Atom                 a.u.       MegaHertz       Gauss      10(-4) cm-1
     1  Si(29)             0.72343    -642.93255    -229.41432    -214.45921
     2  P(31)             -0.00404      -7.30867      -2.60792      -2.43791
     3  O(17)             -0.00132       0.79950       0.28528       0.26668
     4  H(1)              -0.00007      -0.30947      -0.11043      -0.10323
     5  O(17)              0.00164      -0.99546      -0.35521      -0.33205
     6  H(1)              -0.00003      -0.11280      -0.04025      -0.03763
     7  O(17)             -0.00059       0.35640       0.12717       0.11888
     8  O(17)              0.03472     -21.04619      -7.50980      -7.02025

 Normal termination of Gaussian 16 at Tue Apr  8 23:54:40 2025.
