 Gaussian 16, Revision C.01,

 ----------------------------------------------------------------------
 #t hf aug-cc-pvdz symm=none int=(grid=ultrafine) guess=(read,tcheck) s
 table=(opt,rrhf)
 ----------------------------------------------------------------------
 -----
 title
 -----
 Symbolic Z-matrix:
 Charge =  0 Multiplicity = 1

 SCF Done:  E(RHF) =  -859.715491676     A.U. after   14 cycles
 Normal termination of Gaussian 16 at Wed Apr  9 00:11:40 2025.
 Gaussian 16:  ES64L-G16RevC.01  3-Jul-2019

 ----------------------------------------------------------------------
 #t hf aug-cc-pvdz iop(5/13=1,5/36=2,99/5=2) pseudo=read geom=check gue
 ss=(read,tcheck) scf=(maxcycle=1)
 ----------------------------------------------------------------------
 -----
 title
 -----
 Structure from the checkpoint file:  "BDE49_nonexpt_2399_mol1.chk"
 Charge =  0 Multiplicity = 1

                         Standard orientation:
 ---------------------------------------------------------------------
 Center     Atomic      Atomic             Coordinates (Angstroms)
 Number     Number       Type             X           Y           Z
 ---------------------------------------------------------------------
      1         14           0       -2.138083   -0.690999   -0.226215
      2         14           0       -0.673773    1.097596    0.244694
      3          1           0       -3.497366   -0.131970   -0.425505
      4          1           0       -2.165588   -1.659769    0.889359
      5          1           0       -1.703870   -1.360452   -1.473937
      6          8           0        0.916671    0.860068   -0.411689
      7          1           0       -0.543256    1.385044    1.687886
      8          1           0       -1.022642    2.331502   -0.488210
      9          7           0        1.607856   -0.275233    0.010548
     10          8           0        1.009087   -0.998487    0.789863
     11          8           0        2.704707   -0.402842   -0.443441
 ---------------------------------------------------------------------

 SCF Done:  E(RHF) =  -860.047624866     A.U. after    2 cycles

 The electronic state is 1-A.
 Alpha  occ. eigenvalues --  -69.59238 -69.54573 -20.64399 -20.62999 -20.62220
 Alpha  occ. eigenvalues --  -15.87087  -6.25894  -6.21774  -4.01327  -4.01171
 Alpha  occ. eigenvalues --   -4.01130  -3.97135  -3.97125  -3.97116  -1.74333
 Alpha  occ. eigenvalues --   -1.56568  -1.51157  -0.98207  -0.84903  -0.81240
 Alpha  occ. eigenvalues --   -0.80244  -0.78578  -0.70881  -0.61400  -0.57852
 Alpha  occ. eigenvalues --   -0.54193  -0.52396  -0.50966  -0.50768  -0.49932
 Alpha  occ. eigenvalues --   -0.48891  -0.43395
 Alpha virt. eigenvalues --    0.03478   0.03629   0.04569   0.05315   0.05669
 Alpha virt. eigenvalues --    0.06565   0.07253   0.07740   0.08477   0.08661
 Alpha virt. eigenvalues --    0.10054   0.10524   0.11932   0.13001   0.13605

 Mulliken charges:
               1
     1  Si   0.195675
     2  Si   1.225518
     3  H   -0.127190
     4  H   -0.060757
     5  H   -0.072400
     6  O   -1.461189
     7  H   -0.131655
     8  H   -0.141185
     9  N    2.764322
    10  O   -1.087132
    11  O   -1.104008
 Sum of Mulliken charges =  -0.00000

 Dipole moment (field-independent basis, Debye):
    X=             -2.7916    Y=              1.1777    Z=              0.1757  Tot=              3.0349

 Test job not archived.
 1\1\GINC-SE457\SP\RHF\Aug-CC-pVDZ\H5N1O3Si2\OHZDE\09-Apr-2025\0\\#t hf
  aug-cc-pvdz iop(5/13=1,5/36=2,99/5=2) pseudo=read geom=check guess=(r
 ead,tcheck) scf=(maxcycle=1)\\title\\0,1\Si,0,-2.138083,-0.690999,-0.2
 26215\Si,0,-0.673773,1.097596,0.244694\H,0,-3.497366,-0.13197,-0.42550
 5\H,0,-2.165588,-1.659769,0.889359\H,0,-1.70387,-1.360452,-1.473937\O,
 0,0.916671,0.860068,-0.411689\H,0,-0.543256,1.385044,1.687886\H,0,-1.0
 22642,2.331502,-0.48821\N,0,1.607856,-0.275233,0.010548\O,0,1.009087,-
 0.998487,0.789863\O,0,2.704707,-0.402842,-0.443441\\Version=ES64L-G16R

 Normal termination of Gaussian 16 at Wed Apr  9 00:11:44 2025.
