 Gaussian 16, Revision C.01,

 ----------------------------------------------------------------------
 #t hf aug-cc-pvdz symm=none int=(grid=ultrafine) guess=(read,tcheck) s
 table=opt
 ----------------------------------------------------------------------
 -----
 title
 -----
 Symbolic Z-matrix:
 Charge =  0 Multiplicity = 2

 SCF Done:  E(UHF) =  -458.430808171     A.U. after   19 cycles
 Normal termination of Gaussian 16 at Wed Apr  9 00:10:49 2025.
 Gaussian 16:  ES64L-G16RevC.01  3-Jul-2019

 ----------------------------------------------------------------------
 #t hf aug-cc-pvdz iop(5/13=1,5/36=2,99/5=2) pseudo=read geom=check gue
 ss=(read,tcheck) scf=(maxcycle=1)
 ----------------------------------------------------------------------
 -----
 title
 -----
 Structure from the checkpoint file:  "BDE49_nonexpt_2369_mol2.chk"
 Charge =  0 Multiplicity = 2

                         Standard orientation:
 ---------------------------------------------------------------------
 Center     Atomic      Atomic             Coordinates (Angstroms)
 Number     Number       Type             X           Y           Z
 ---------------------------------------------------------------------
      1         14           0       -1.382420   -0.251639    0.000001
      2          6           0        0.519350    0.134270   -0.000005
      3          1           0       -1.944929    0.400087    1.210388
      4          1           0       -1.944935    0.400084   -1.210383
      5          8           0        0.823159    1.315497   -0.000004
      6          7           0        1.427382   -0.873787    0.000003
      7          1           0        1.136226   -1.837016    0.000009
      8          1           0        2.414466   -0.653294    0.000005
 ---------------------------------------------------------------------

 SCF Done:  E(UHF) =  -458.626493213     A.U. after    2 cycles

 The electronic state is 2-A.
 Alpha  occ. eigenvalues --  -69.55617 -20.52251 -15.54004 -11.35670  -6.22739
 Alpha  occ. eigenvalues --   -3.98692  -3.97775  -3.97761  -1.46573  -1.22977
 Alpha  occ. eigenvalues --   -0.87158  -0.79700  -0.74189  -0.65639  -0.59807
 Alpha  occ. eigenvalues --   -0.56775  -0.50388  -0.44288  -0.43271  -0.34855
 Alpha virt. eigenvalues --    0.02533   0.04409   0.05209   0.05646   0.06553
 Alpha virt. eigenvalues --    0.07272   0.08645   0.11531   0.12015   0.12892
 Alpha virt. eigenvalues --    0.13365   0.15096   0.16021   0.17314   0.19069

  Beta  occ. eigenvalues --  -69.55070 -20.52005 -15.54024 -11.35545  -6.21909
  Beta  occ. eigenvalues --   -3.97426  -3.97391  -3.96538  -1.46007  -1.22961
  Beta  occ. eigenvalues --   -0.86369  -0.78600  -0.72280  -0.64146  -0.59677
  Beta  occ. eigenvalues --   -0.55540  -0.49398  -0.44172  -0.40153
  Beta virt. eigenvalues --    0.00962   0.03296   0.04740   0.05388   0.06001
  Beta virt. eigenvalues --    0.06779   0.08228   0.09016   0.11842   0.12361
  Beta virt. eigenvalues --    0.13479   0.13595   0.16606   0.16939   0.18237

 Mulliken charges and spin densities:
               1          2
     1  Si   0.813570   0.891396
     2  C    0.040071   0.026830
     3  H   -0.196197   0.033713
     4  H   -0.196197   0.033713
     5  O   -1.089982   0.033576
     6  N    0.523272  -0.016860
     7  H    0.043803   0.002611
     8  H    0.061660  -0.004978
 Sum of Mulliken charges =  -0.00000   1.00000

 Dipole moment (field-independent basis, Debye):
    X=              0.0289    Y=             -3.5352    Z=              0.0000  Tot=              3.5353
                          Isotropic Fermi Contact Couplings
        Atom                 a.u.       MegaHertz       Gauss      10(-4) cm-1
     1  Si(29)             0.55399    -492.34270    -175.68012    -164.22785
     2  C(13)              0.03050      34.28263      12.23289      11.43545
     3  H(1)               0.00642      28.69111      10.23770       9.57032
     4  H(1)               0.00642      28.69049      10.23748       9.57012
     5  O(17)              0.03147     -19.07802      -6.80751      -6.36374
     6  N(14)             -0.01357      -4.38576      -1.56495      -1.46293
     7  H(1)              -0.00014      -0.60995      -0.21764      -0.20346
     8  H(1)              -0.00055      -2.45818      -0.87714      -0.81996

 1\1\GINC-SE069\SP\UHF\Aug-CC-pVDZ\C1H4N1O1Si1(2)\OHZDE\09-Apr-2025\0\\
 #t hf aug-cc-pvdz iop(5/13=1,5/36=2,99/5=2) pseudo=read geom=check gue
 ss=(read,tcheck) scf=(maxcycle=1)\\title\\0,2\Si,0,-1.38242,-0.251639,
 0.000001\C,0,0.51935,0.13427,-0.000005\H,0,-1.944929,0.400087,1.210388
 \H,0,-1.944935,0.400084,-1.210383\O,0,0.823159,1.315497,-0.000004\N,0,
 1.427382,-0.873787,0.000003\H,0,1.136226,-1.837016,0.000009\H,0,2.4144
 66,-0.653294,0.000005\\Version=ES64L-G16RevC.01\State=2-A\HF=-458.6264
 932\S2=0.754132\S2-1=0.\S2A=0.750007\RMSD=1.164e-02\Dipole=0.0113552,-

 Normal termination of Gaussian 16 at Wed Apr  9 00:10:51 2025.
