 Gaussian 16, Revision C.01,

 ----------------------------------------------------------------------
 #t hf aug-cc-pvdz symm=none int=(grid=ultrafine) guess=(read,tcheck) s
 table=(opt,rrhf)
 ----------------------------------------------------------------------
 -----
 title
 -----
 Symbolic Z-matrix:
 Charge =  0 Multiplicity = 1

 SCF Done:  E(RHF) =  -443.488559957     A.U. after   15 cycles
 Normal termination of Gaussian 16 at Tue Apr  8 22:42:14 2025.
 Gaussian 16:  ES64L-G16RevC.01  3-Jul-2019

 ----------------------------------------------------------------------
 #t hf aug-cc-pvdz iop(5/13=1,5/36=2,99/5=2) pseudo=read geom=check gue
 ss=(read,tcheck) scf=(maxcycle=1)
 ----------------------------------------------------------------------
 -----
 title
 -----
 Structure from the checkpoint file:  "BDE49_expt_1398_mol1.chk"
 Charge =  0 Multiplicity = 1

                         Standard orientation:
 ---------------------------------------------------------------------
 Center     Atomic      Atomic             Coordinates (Angstroms)
 Number     Number       Type             X           Y           Z
 ---------------------------------------------------------------------
      1          6           0       -1.975058   -0.649765    0.000000
      2          6           0       -1.377669    0.596898    0.000000
      3          6           0        0.000000    0.779352    0.000000
      4          6           0       -1.137536   -1.768155    0.000000
      5          6           0        0.242359   -1.631982    0.000000
      6          6           0        0.817980   -0.353619    0.000000
      7          1           0       -3.053593   -0.734657    0.000000
      8          9           0       -2.158717    1.701883    0.000000
      9          1           0        0.390838    1.786622    0.000000
     10          1           0       -1.574692   -2.759854    0.000000
     11          1           0        0.898285   -2.493074    0.000000
     12          8           0        2.177408   -0.312547    0.000000
     13          6           0        2.819005    0.955301    0.000000
     14          1           0        3.887549    0.747351    0.000000
     15          1           0        2.563160    1.534437    0.894234
     16          1           0        2.563160    1.534437   -0.894234
 ---------------------------------------------------------------------

 SCF Done:  E(RHF) =  -443.931538354     A.U. after    2 cycles

 The electronic state is 1-A'.
 Alpha  occ. eigenvalues --  -26.47590 -20.58226 -11.34115 -11.32257 -11.30295
 Alpha  occ. eigenvalues --  -11.26073 -11.24786 -11.24230 -11.23972  -1.60420
 Alpha  occ. eigenvalues --   -1.50708  -1.16264  -1.03413  -1.03074  -0.95730
 Alpha  occ. eigenvalues --   -0.85352  -0.84332  -0.75275  -0.71770  -0.69234
 Alpha  occ. eigenvalues --   -0.67380  -0.67302  -0.66254  -0.63866  -0.61901
 Alpha  occ. eigenvalues --   -0.58300  -0.55727  -0.53931  -0.52948  -0.50855
 Alpha  occ. eigenvalues --   -0.47567  -0.35727  -0.32831
 Alpha virt. eigenvalues --    0.03323   0.03673   0.04181   0.05079   0.05227
 Alpha virt. eigenvalues --    0.05699   0.08258   0.09845   0.10233   0.11424
 Alpha virt. eigenvalues --    0.11444   0.12597   0.13481   0.13510   0.13975

 Mulliken charges:
               1
     1  C   -0.148155
     2  C    1.376078
     3  C   -0.416819
     4  C    0.726300
     5  C   -0.159601
     6  C    2.041001
     7  H   -0.184384
     8  F   -1.008236
     9  H   -0.365305
    10  H   -0.206122
    11  H   -0.259562
    12  O   -1.850558
    13  C    0.115831
    14  H   -0.040026
    15  H    0.189779
    16  H    0.189779
 Sum of Mulliken charges =  -0.00000

 Dipole moment (field-independent basis, Debye):
    X=              1.4186    Y=             -0.0187    Z=             -0.0000  Tot=              1.4187

 Test job not archived.
 1\1\GINC-SE329\SP\RHF\Aug-CC-pVDZ\C7H7F1O1\OHZDE\08-Apr-2025\0\\#t hf
 aug-cc-pvdz iop(5/13=1,5/36=2,99/5=2) pseudo=read geom=check guess=(re
 ad,tcheck) scf=(maxcycle=1)\\title\\0,1\C,0,-1.975058,-0.649765,0.\C,0
 ,-1.377669,0.596898,0.\C,0,0.,0.779352,0.\C,0,-1.137536,-1.768155,0.\C
 ,0,0.242359,-1.631982,0.\C,0,0.81798,-0.353619,0.\H,0,-3.053593,-0.734
 657,0.\F,0,-2.158717,1.701883,0.\H,0,0.390838,1.786622,0.\H,0,-1.57469
 2,-2.759854,0.\H,0,0.898285,-2.493074,0.\O,0,2.177408,-0.312547,0.\C,0
 ,2.819005,0.955301,0.\H,0,3.887549,0.747352,0.\H,0,2.56316,1.534437,0.

 Normal termination of Gaussian 16 at Tue Apr  8 22:42:20 2025.
