 Gaussian 16, Revision C.01,

 ----------------------------------------------------------------------
 #t hf aug-cc-pvdz symm=none int=(grid=ultrafine) guess=(read,tcheck) s
 table=(opt,rrhf)
 ----------------------------------------------------------------------
 -----
 title
 -----
 Symbolic Z-matrix:
 Charge =  0 Multiplicity = 1

 SCF Done:  E(RHF) =  -1191.36934824     A.U. after   15 cycles
 Normal termination of Gaussian 16 at Tue Apr  8 23:45:02 2025.
 Gaussian 16:  ES64L-G16RevC.01  3-Jul-2019

 ----------------------------------------------------------------------
 #t hf aug-cc-pvdz iop(5/13=1,5/36=2,99/5=2) pseudo=read geom=check gue
 ss=(read,tcheck) scf=(maxcycle=1)
 ----------------------------------------------------------------------
 -----
 title
 -----
 Structure from the checkpoint file:  "BDE49_nonexpt_1723_mol1.chk"
 Charge =  0 Multiplicity = 1

                         Standard orientation:
 ---------------------------------------------------------------------
 Center     Atomic      Atomic             Coordinates (Angstroms)
 Number     Number       Type             X           Y           Z
 ---------------------------------------------------------------------
      1         16           0        0.137565    1.357114   -0.458171
      2         15           0        1.521660   -0.187404    0.057617
      3          8           0        2.838176    0.369180   -0.250173
      4          8           0        1.088712   -1.499799   -0.683493
      5          8           0       -1.376637    0.919689    0.285765
      6          6           0       -2.042287   -0.194509   -0.096347
      7          6           0       -3.445067   -0.178978    0.446329
      8          1           0       -3.883864   -1.168240    0.336909
      9          1           0       -4.034834    0.549011   -0.116800
     10          1           0       -3.445591    0.131834    1.491431
     11          8           0       -1.571336   -1.079238   -0.772139
     12          8           0        1.216633   -0.554612    1.585811
     13          1           0        1.576748    0.104242    2.193712
     14          1           0        0.121331   -1.520445   -0.864830
 ---------------------------------------------------------------------

 SCF Done:  E(RHF) =  -1191.91772551     A.U. after    2 cycles

 The electronic state is 1-A.
 Alpha  occ. eigenvalues --  -94.03986 -84.46274 -20.64544 -20.61419 -20.59315
 Alpha  occ. eigenvalues --  -20.58201 -20.52258 -11.43891 -11.28150  -8.31544
 Alpha  occ. eigenvalues --   -6.91388  -6.29335  -6.29069  -6.28816  -4.45524
 Alpha  occ. eigenvalues --   -4.44801  -4.43635  -1.57905  -1.55081  -1.49697
 Alpha  occ. eigenvalues --   -1.48390  -1.40723  -1.08279  -1.01357  -0.86932
 Alpha  occ. eigenvalues --   -0.81286  -0.77495  -0.72938  -0.71653  -0.69930
 Alpha  occ. eigenvalues --   -0.66942  -0.64088  -0.61458  -0.60420  -0.58923
 Alpha  occ. eigenvalues --   -0.58693  -0.56671  -0.54843  -0.53436  -0.50571
 Alpha  occ. eigenvalues --   -0.48327  -0.47746  -0.44692  -0.41684
 Alpha virt. eigenvalues --    0.02591   0.03746   0.04658   0.05042   0.06648
 Alpha virt. eigenvalues --    0.06983   0.07785   0.09780   0.10315   0.11243
 Alpha virt. eigenvalues --    0.11433   0.12269   0.12468   0.13648   0.14211

 Mulliken charges:
               1
     1  S    0.124499
     2  P    3.587162
     3  O   -1.375038
     4  O   -1.501111
     5  O   -1.310418
     6  C    1.741560
     7  C   -0.523543
     8  H    0.199017
     9  H    0.267833
    10  H    0.217231
    11  O   -1.242474
    12  O   -1.269645
    13  H    0.367196
    14  H    0.717729
 Sum of Mulliken charges =   0.00000

 Dipole moment (field-independent basis, Debye):
    X=             -5.3652    Y=              0.7331    Z=              2.6727  Tot=              6.0387

 Test job not archived.
 1\1\GINC-SE108\SP\RHF\Aug-CC-pVDZ\C2H5O5P1S1\OHZDE\08-Apr-2025\0\\#t h
 f aug-cc-pvdz iop(5/13=1,5/36=2,99/5=2) pseudo=read geom=check guess=(
 read,tcheck) scf=(maxcycle=1)\\title\\0,1\S,0,0.137565,1.357114,-0.458
 171\P,0,1.52166,-0.187404,0.057617\O,0,2.838176,0.36918,-0.250173\O,0,
 1.088712,-1.499799,-0.683493\O,0,-1.376637,0.919689,0.285765\C,0,-2.04
 2287,-0.194509,-0.096347\C,0,-3.445067,-0.178978,0.446329\H,0,-3.88386
 4,-1.16824,0.336909\H,0,-4.034834,0.549011,-0.1168\H,0,-3.445591,0.131
 834,1.491431\O,0,-1.571336,-1.079238,-0.772139\O,0,1.216633,-0.554612,

 Normal termination of Gaussian 16 at Tue Apr  8 23:45:08 2025.
