 Gaussian 16, Revision C.01,

 ----------------------------------------------------------------------
 #t hf aug-cc-pvdz symm=none int=(grid=ultrafine) guess=(read,tcheck) s
 table=(opt,rrhf)
 ----------------------------------------------------------------------
 -----
 title
 -----
 Symbolic Z-matrix:
 Charge =  0 Multiplicity = 1

 SCF Done:  E(RHF) =  -611.893595523     A.U. after   15 cycles
 Normal termination of Gaussian 16 at Tue Apr  8 23:59:56 2025.
 Gaussian 16:  ES64L-G16RevC.01  3-Jul-2019

 ----------------------------------------------------------------------
 #t hf aug-cc-pvdz iop(5/13=1,5/36=2,99/5=2) pseudo=read geom=check gue
 ss=(read,tcheck) scf=(maxcycle=1)
 ----------------------------------------------------------------------
 -----
 title
 -----
 Structure from the checkpoint file:  "BDE49_nonexpt_2099_mol1.chk"
 Charge =  0 Multiplicity = 1

                         Standard orientation:
 ---------------------------------------------------------------------
 Center     Atomic      Atomic             Coordinates (Angstroms)
 Number     Number       Type             X           Y           Z
 ---------------------------------------------------------------------
      1         14           0       -0.623906    1.105896   -0.003136
      2          7           0       -1.681297   -0.445379   -0.017644
      3          8           0       -1.200859   -1.501662   -0.423084
      4          8           0       -2.835710   -0.310924    0.376464
      5          6           0        1.118468    0.667788   -0.497163
      6          6           0        1.881857   -0.222241    0.504139
      7          1           0        1.654483    1.614822   -0.650492
      8          1           0        1.074757    0.181490   -1.478507
      9          6           0        3.311071   -0.532172    0.048957
     10          1           0        1.331644   -1.157685    0.639201
     11          1           0        1.910759    0.268282    1.483781
     12          1           0        3.312003   -1.056746   -0.910968
     13          1           0        3.826507   -1.165873    0.775478
     14          1           0        3.896967    0.384390   -0.070870
     15          1           0       -0.761478    1.600755    1.378540
     16          1           0       -1.317703    1.986121   -0.961398
 ---------------------------------------------------------------------

 SCF Done:  E(RHF) =  -612.253290838     A.U. after    2 cycles

 The electronic state is 1-A.
 Alpha  occ. eigenvalues --  -69.59028 -20.58729 -20.58679 -15.75016 -11.25231
 Alpha  occ. eigenvalues --  -11.25041 -11.23670  -6.25931  -4.01338  -4.01185
 Alpha  occ. eigenvalues --   -4.01172  -1.65020  -1.49213  -1.08087  -0.99626
 Alpha  occ. eigenvalues --   -0.94847  -0.83351  -0.80941  -0.73489  -0.72077
 Alpha  occ. eigenvalues --   -0.69396  -0.65317  -0.60063  -0.57826  -0.56698
 Alpha  occ. eigenvalues --   -0.52733  -0.50118  -0.49952  -0.49292  -0.46915
 Alpha  occ. eigenvalues --   -0.45721  -0.44160
 Alpha virt. eigenvalues --    0.02777   0.03503   0.03692   0.04236   0.05480
 Alpha virt. eigenvalues --    0.05573   0.06333   0.06863   0.07522   0.08661
 Alpha virt. eigenvalues --    0.09072   0.09954   0.10213   0.11428   0.13297

 Mulliken charges:
               1
     1  Si   1.087915
     2  N    1.791037
     3  O   -1.139758
     4  O   -1.256287
     5  C   -0.545637
     6  C   -0.292398
     7  H    0.083483
     8  H    0.210838
     9  C   -0.391589
    10  H    0.126761
    11  H    0.084887
    12  H    0.170139
    13  H    0.128552
    14  H    0.164134
    15  H   -0.081187
    16  H   -0.140891
 Sum of Mulliken charges =   0.00000

 Dipole moment (field-independent basis, Debye):
    X=              3.6085    Y=              3.0014    Z=             -0.1584  Tot=              4.6963

 Test job not archived.
 1\1\GINC-SE458\SP\RHF\Aug-CC-pVDZ\C3H9N1O2Si1\OHZDE\09-Apr-2025\0\\#t
 hf aug-cc-pvdz iop(5/13=1,5/36=2,99/5=2) pseudo=read geom=check guess=
 (read,tcheck) scf=(maxcycle=1)\\title\\0,1\Si,0,-0.623906,1.105896,-0.
 003136\N,0,-1.681297,-0.445379,-0.017644\O,0,-1.200859,-1.501662,-0.42
 3084\O,0,-2.83571,-0.310924,0.376464\C,0,1.118468,0.667788,-0.497163\C
 ,0,1.881857,-0.222241,0.504139\H,0,1.654483,1.614822,-0.650492\H,0,1.0
 74757,0.18149,-1.478507\C,0,3.311071,-0.532172,0.048957\H,0,1.331644,-
 1.157685,0.639201\H,0,1.910759,0.268282,1.483781\H,0,3.312003,-1.05674

 Normal termination of Gaussian 16 at Wed Apr  9 00:00:02 2025.
