 Gaussian 16, Revision C.01,

 ----------------------------------------------------------------------
 #t hf aug-cc-pvdz symm=none int=(grid=ultrafine) guess=(read,tcheck) s
 table=opt
 ----------------------------------------------------------------------
 -----
 title
 -----
 Symbolic Z-matrix:
 Charge =  0 Multiplicity = 2

 SCF Done:  E(UHF) =  -800.906572237     A.U. after   22 cycles
 Normal termination of Gaussian 16 at Tue Apr  8 23:58:25 2025.
 Gaussian 16:  ES64L-G16RevC.01  3-Jul-2019

 ----------------------------------------------------------------------
 #t hf aug-cc-pvdz iop(5/13=1,5/36=2,99/5=2) pseudo=read geom=check gue
 ss=(read,tcheck) scf=(maxcycle=1)
 ----------------------------------------------------------------------
 -----
 title
 -----
 Structure from the checkpoint file:  "BDE49_nonexpt_2054_mol2.chk"
 Charge =  0 Multiplicity = 2

                         Standard orientation:
 ---------------------------------------------------------------------
 Center     Atomic      Atomic             Coordinates (Angstroms)
 Number     Number       Type             X           Y           Z
 ---------------------------------------------------------------------
      1         14           0       -1.633008   -0.453899   -0.088831
      2          6           0        0.024115    0.498324    0.005475
      3          8           0        0.061746    1.700670    0.017886
      4         16           0        1.590700   -0.445847    0.001700
      5          1           0        1.037698   -1.670241    0.037849
      6          1           0       -2.718278    0.368759    0.488221
      7          1           0       -1.547155   -1.805684    0.514425
 ---------------------------------------------------------------------

 SCF Done:  E(UHF) =  -801.102041507     A.U. after    2 cycles

 The electronic state is 2-A.
 Alpha  occ. eigenvalues --  -93.98031 -69.57431 -20.57554 -11.37857  -8.26203
 Alpha  occ. eigenvalues --   -6.24628  -6.24025  -6.23892  -6.23650  -4.00604
 Alpha  occ. eigenvalues --   -3.99691  -3.99649  -1.51369  -1.06011  -0.84645
 Alpha  occ. eigenvalues --   -0.74157  -0.65346  -0.61878  -0.58897  -0.55203
 Alpha  occ. eigenvalues --   -0.51257  -0.41272  -0.40594  -0.35954
 Alpha virt. eigenvalues --    0.03193   0.04568   0.05358   0.05372   0.06973
 Alpha virt. eigenvalues --    0.08210   0.08321   0.09786   0.11384   0.12376
 Alpha virt. eigenvalues --    0.12981   0.14133   0.15088   0.15769   0.16473

  Beta  occ. eigenvalues --  -93.98030 -69.56847 -20.56876 -11.38158  -8.26203
  Beta  occ. eigenvalues --   -6.24010  -6.23882  -6.23751  -6.23669  -3.99271
  Beta  occ. eigenvalues --   -3.99237  -3.98365  -1.49911  -1.05963  -0.82557
  Beta  occ. eigenvalues --   -0.72362  -0.64755  -0.60996  -0.56166  -0.54723
  Beta  occ. eigenvalues --   -0.50738  -0.39954  -0.39518
  Beta virt. eigenvalues --   -0.00239   0.03402   0.04760   0.05510   0.06329
  Beta virt. eigenvalues --    0.07221   0.08627   0.09618   0.11159   0.11835
  Beta virt. eigenvalues --    0.13061   0.13421   0.14911   0.15867   0.16511

 Mulliken charges and spin densities:
               1          2
     1  Si   0.719794   0.997453
     2  C    0.167973  -0.161238
     3  O   -0.965313   0.165420
     4  S    0.054837   0.004659
     5  H    0.329169  -0.003100
     6  H   -0.138985   0.004085
     7  H   -0.167476  -0.007280
 Sum of Mulliken charges =  -0.00000   1.00000

 Dipole moment (field-independent basis, Debye):
    X=             -1.5996    Y=             -2.8521    Z=              0.0818  Tot=              3.2711
                          Isotropic Fermi Contact Couplings
        Atom                 a.u.       MegaHertz       Gauss      10(-4) cm-1
     1  Si(29)             0.57974    -515.23289    -183.84791    -171.86319
     2  C(13)             -0.02418     -27.18712      -9.70104      -9.06865
     3  O(17)              0.05020     -30.43374     -10.85952     -10.15160
     4  S(33)             -0.00424      -1.45698      -0.51989      -0.48600
     5  H(1)               0.00002       0.10101       0.03604       0.03369
     6  H(1)               0.00021       0.92723       0.33086       0.30929
     7  H(1)               0.00001       0.04231       0.01510       0.01411
 --------------------------------------------------------

 1\1\GINC-SE094\SP\UHF\Aug-CC-pVDZ\C1H3O1S1Si1(2)\OHZDE\08-Apr-2025\0\\
 #t hf aug-cc-pvdz iop(5/13=1,5/36=2,99/5=2) pseudo=read geom=check gue
 ss=(read,tcheck) scf=(maxcycle=1)\\title\\0,2\Si,0,-1.633008,-0.453899
 ,-0.088831\C,0,0.024115,0.498324,0.005475\O,0,0.061746,1.70067,0.01788
 6\S,0,1.5907,-0.445847,0.0017\H,0,1.037698,-1.670241,0.037849\H,0,-2.7
 18278,0.368759,0.488221\H,0,-1.547155,-1.805684,0.514425\\Version=ES64
 L-G16RevC.01\State=2-A\HF=-801.1020415\S2=0.776294\S2-1=0.\S2A=0.75025
 5\RMSD=5.850e-03\Dipole=-0.6293418,-1.122114,0.0321789\Quadrupole=1.27

 Normal termination of Gaussian 16 at Tue Apr  8 23:58:27 2025.
