 Gaussian 16, Revision C.01,

 ----------------------------------------------------------------------
 #t hf aug-cc-pvdz symm=none int=(grid=ultrafine) guess=(read,tcheck) s
 table=(opt,rrhf)
 ----------------------------------------------------------------------
 -----
 title
 -----
 Symbolic Z-matrix:
 Charge =  0 Multiplicity = 1

 SCF Done:  E(RHF) =  -750.651548117     A.U. after   17 cycles
 Normal termination of Gaussian 16 at Tue Apr  8 23:37:14 2025.
 Gaussian 16:  ES64L-G16RevC.01  3-Jul-2019

 ----------------------------------------------------------------------
 #t hf aug-cc-pvdz iop(5/13=1,5/36=2,99/5=2) pseudo=read geom=check gue
 ss=(read,tcheck) scf=(maxcycle=1)
 ----------------------------------------------------------------------
 -----
 title
 -----
 Structure from the checkpoint file:  "BDE49_nonexpt_1537_mol1.chk"
 Charge =  0 Multiplicity = 1

                         Standard orientation:
 ---------------------------------------------------------------------
 Center     Atomic      Atomic             Coordinates (Angstroms)
 Number     Number       Type             X           Y           Z
 ---------------------------------------------------------------------
      1         15           0        0.072568   -1.134500    0.130713
      2          7           0        1.401128    0.212884   -0.136612
      3          7           0       -1.371701   -0.234167    0.248236
      4          8           0        2.555153   -0.150167   -0.035691
      5          8           0        1.024816    1.350669   -0.402802
      6          8           0       -1.403444    0.946077    0.993993
      7          8           0       -1.926996   -0.027301   -1.040821
      8          1           0       -2.862633   -0.234815   -0.916197
      9          1           0       -0.775515    1.542067    0.542608
     10          1           0        0.347401   -1.094998    1.514093
 ---------------------------------------------------------------------

 SCF Done:  E(RHF) =  -751.086778135     A.U. after    2 cycles

 The electronic state is 1-A.
 Alpha  occ. eigenvalues --  -84.39094 -20.62753 -20.61908 -20.61146 -20.60507
 Alpha  occ. eigenvalues --  -15.78291 -15.65015  -6.85536  -4.38395  -4.37735
 Alpha  occ. eigenvalues --   -4.37179  -1.67937  -1.57692  -1.52181  -1.47935
 Alpha  occ. eigenvalues --   -1.13174  -1.00942  -0.87684  -0.79880  -0.78713
 Alpha  occ. eigenvalues --   -0.75900  -0.74653  -0.69985  -0.66949  -0.65242
 Alpha  occ. eigenvalues --   -0.53636  -0.52232  -0.51366  -0.50961  -0.46977
 Alpha  occ. eigenvalues --   -0.45649  -0.42638
 Alpha virt. eigenvalues --    0.03141   0.04318   0.04908   0.05990   0.06791
 Alpha virt. eigenvalues --    0.07584   0.08898   0.11489   0.13154   0.14311
 Alpha virt. eigenvalues --    0.15235   0.15468   0.16154   0.17579   0.18471

 Mulliken charges:
               1
     1  P    0.534533
     2  N    1.808168
     3  N    1.405028
     4  O   -1.239595
     5  O   -1.179730
     6  O   -1.184221
     7  O   -1.099825
     8  H    0.332900
     9  H    0.381467
    10  H    0.241274
 Sum of Mulliken charges =   0.00000

 Dipole moment (field-independent basis, Debye):
    X=             -2.6486    Y=             -2.3635    Z=              0.3902  Tot=              3.5712

 Test job not archived.
 1\1\GINC-SE247\SP\RHF\Aug-CC-pVDZ\H3N2O4P1\OHZDE\08-Apr-2025\0\\#t hf
 aug-cc-pvdz iop(5/13=1,5/36=2,99/5=2) pseudo=read geom=check guess=(re
 ad,tcheck) scf=(maxcycle=1)\\title\\0,1\P,0,0.072568,-1.1345,0.130713\
 N,0,1.401128,0.212884,-0.136612\N,0,-1.371701,-0.234167,0.248236\O,0,2
 .555153,-0.150168,-0.035691\O,0,1.024816,1.350669,-0.402802\O,0,-1.403
 444,0.946077,0.993993\O,0,-1.926996,-0.027301,-1.040821\H,0,-2.862633,
 -0.234815,-0.916197\H,0,-0.775515,1.542067,0.542608\H,0,0.347401,-1.09
 4998,1.514093\\Version=ES64L-G16RevC.01\State=1-A\HF=-751.0867781\RMSD

 Normal termination of Gaussian 16 at Tue Apr  8 23:37:18 2025.
