 Gaussian 16, Revision C.01,

 ----------------------------------------------------------------------
 #t hf aug-cc-pvdz symm=none int=(grid=ultrafine) guess=(read,tcheck) s
 table=(opt,rrhf)
 ----------------------------------------------------------------------
 -----
 title
 -----
 Symbolic Z-matrix:
 Charge =  0 Multiplicity = 1

 SCF Done:  E(RHF) =  -671.625992427     A.U. after   11 cycles
 Normal termination of Gaussian 16 at Tue Apr  8 23:41:11 2025.
 Gaussian 16:  ES64L-G16RevC.01  3-Jul-2019

 ----------------------------------------------------------------------
 #t hf aug-cc-pvdz iop(5/13=1,5/36=2,99/5=2) pseudo=read geom=check gue
 ss=(read,tcheck) scf=(maxcycle=1)
 ----------------------------------------------------------------------
 -----
 title
 -----
 Structure from the checkpoint file:  "BDE49_nonexpt_1665_mol1.chk"
 Charge =  0 Multiplicity = 1

                         Standard orientation:
 ---------------------------------------------------------------------
 Center     Atomic      Atomic             Coordinates (Angstroms)
 Number     Number       Type             X           Y           Z
 ---------------------------------------------------------------------
      1         15           0       -1.600893   -0.153498    0.000001
      2         14           0        0.546161    0.620802   -0.000001
      3          6           0        1.881397   -0.704071    0.000000
      4          1           0        1.800965   -1.340700    0.884842
      5          1           0        2.875123   -0.246064   -0.000002
      6          1           0        1.800964   -1.340702   -0.884842
      7          1           0       -1.379673   -1.099948    1.036346
      8          1           0       -1.379674   -1.099950   -1.036343
      9          1           0        0.680531    1.481517    1.201238
     10          1           0        0.680530    1.481516   -1.201240
 ---------------------------------------------------------------------

 SCF Done:  E(RHF) =  -671.755534362     A.U. after    2 cycles

 The electronic state is 1-A.
 Alpha  occ. eigenvalues --  -84.26246 -69.53640 -11.22705  -6.73518  -6.20642
 Alpha  occ. eigenvalues --   -4.25760  -4.25675  -4.25185  -3.95994  -3.95958
 Alpha  occ. eigenvalues --   -3.95939  -0.96265  -0.86152  -0.69476  -0.57862
 Alpha  occ. eigenvalues --   -0.57119  -0.51414  -0.47856  -0.47069  -0.42307
 Alpha  occ. eigenvalues --   -0.34353
 Alpha virt. eigenvalues --    0.03628   0.04327   0.04921   0.04931   0.06978
 Alpha virt. eigenvalues --    0.07698   0.08134   0.08199   0.08650   0.11426
 Alpha virt. eigenvalues --    0.11537   0.12184   0.13236   0.15470   0.16443

 Mulliken charges:
               1
     1  P   -1.223962
     2  Si   1.491867
     3  C   -0.612778
     4  H    0.072793
     5  H   -0.023213
     6  H    0.072796
     7  H    0.347259
     8  H    0.347259
     9  H   -0.236010
    10  H   -0.236010
 Sum of Mulliken charges =   0.00000

 Dipole moment (field-independent basis, Debye):
    X=              0.8629    Y=             -0.7492    Z=             -0.0000  Tot=              1.1427

 Test job not archived.
 1\1\GINC-SE074\SP\RHF\Aug-CC-pVDZ\C1H7P1Si1\OHZDE\08-Apr-2025\0\\#t hf
  aug-cc-pvdz iop(5/13=1,5/36=2,99/5=2) pseudo=read geom=check guess=(r
 ead,tcheck) scf=(maxcycle=1)\\title\\0,1\P,0,1.600893,-0.153498,-0.000
 001\Si,0,-0.546161,0.620802,0.000001\C,0,-1.881397,-0.704071,0.\H,0,-1
 .800965,-1.3407,-0.884842\H,0,-2.875123,-0.246064,0.000002\H,0,-1.8009
 64,-1.340702,0.884842\H,0,1.379673,-1.099948,-1.036346\H,0,1.379674,-1
 .09995,1.036343\H,0,-0.680531,1.481517,-1.201238\H,0,-0.68053,1.481516
 ,1.20124\\Version=ES64L-G16RevC.01\State=1-A\HF=-671.7555344\RMSD=2.25

 Normal termination of Gaussian 16 at Tue Apr  8 23:41:13 2025.
