 Gaussian 16, Revision C.01,

 ----------------------------------------------------------------------
 #t hf aug-cc-pvdz symm=none int=(grid=ultrafine) guess=(read,tcheck) s
 table=(opt,rrhf)
 ----------------------------------------------------------------------
 -----
 title
 -----
 Symbolic Z-matrix:
 Charge =  0 Multiplicity = 1

 SCF Done:  E(RHF) =  -1030.95939921     A.U. after   15 cycles
 Normal termination of Gaussian 16 at Tue Apr  8 23:32:43 2025.
 Gaussian 16:  ES64L-G16RevC.01  3-Jul-2019

 ----------------------------------------------------------------------
 #t hf aug-cc-pvdz iop(5/13=1,5/36=2,99/5=2) pseudo=read geom=check gue
 ss=(read,tcheck) scf=(maxcycle=1)
 ----------------------------------------------------------------------
 -----
 title
 -----
 Structure from the checkpoint file:  "BDE49_nonexpt_1418_mol1.chk"
 Charge =  0 Multiplicity = 1

                         Standard orientation:
 ---------------------------------------------------------------------
 Center     Atomic      Atomic             Coordinates (Angstroms)
 Number     Number       Type             X           Y           Z
 ---------------------------------------------------------------------
      1          6           0       -2.338776   -0.914138    0.000783
      2          6           0       -1.068959   -1.481939    0.012187
      3          6           0        0.088128   -0.689098    0.016302
      4          6           0       -2.482745    0.471233   -0.001881
      5          6           0       -1.353934    1.284245    0.001827
      6          6           0       -0.092236    0.698575    0.002190
      7          1           0       -3.213663   -1.553759    0.001142
      8          1           0       -0.969275   -2.561256    0.024304
      9          1           0       -1.442777    2.362997    0.001831
     10         15           0        1.772547   -1.436613   -0.111994
     11         17           0        1.313990    1.759353   -0.001841
     12          1           0       -3.468098    0.922144   -0.005626
     13          1           0        1.389395   -2.720587    0.351149
     14          1           0        2.269524   -1.022620    1.149968
 ---------------------------------------------------------------------

 SCF Done:  E(RHF) =  -1031.31547988     A.U. after    2 cycles

 The electronic state is 1-A.
 Alpha  occ. eigenvalues -- -105.57620 -84.28361 -11.31784 -11.27123 -11.26339
 Alpha  occ. eigenvalues --  -11.26284 -11.26108 -11.25835 -10.62426  -7.79385
 Alpha  occ. eigenvalues --   -7.79003  -7.78976  -6.75417  -4.28350  -4.27916
 Alpha  occ. eigenvalues --   -4.27149  -1.19040  -1.10164  -1.04638  -0.99436
 Alpha  occ. eigenvalues --   -0.89448  -0.84666  -0.80720  -0.70937  -0.67574
 Alpha  occ. eigenvalues --   -0.64717  -0.60778  -0.58064  -0.56315  -0.53018
 Alpha  occ. eigenvalues --   -0.50611  -0.49520  -0.48302  -0.46851  -0.39497
 Alpha  occ. eigenvalues --   -0.35463  -0.32590
 Alpha virt. eigenvalues --    0.03146   0.03625   0.04209   0.05436   0.06106
 Alpha virt. eigenvalues --    0.07309   0.07947   0.08710   0.09547   0.09903
 Alpha virt. eigenvalues --    0.10135   0.11936   0.12492   0.13110   0.13361

 Mulliken charges:
               1
     1  C    0.146919
     2  C    0.368203
     3  C    0.158511
     4  C    0.377261
     5  C    0.232530
     6  C   -0.361379
     7  H   -0.212493
     8  H   -0.285952
     9  H   -0.177125
    10  P   -0.469247
    11  Cl  -0.360771
    12  H   -0.199297
    13  H    0.297838
    14  H    0.485002
 Sum of Mulliken charges =  -0.00000

 Dipole moment (field-independent basis, Debye):
    X=             -1.9260    Y=             -1.0050    Z=              0.3877  Tot=              2.2068

 Test job not archived.
 1\1\GINC-SE127\SP\RHF\Aug-CC-pVDZ\C6H6Cl1P1\OHZDE\08-Apr-2025\0\\#t hf
  aug-cc-pvdz iop(5/13=1,5/36=2,99/5=2) pseudo=read geom=check guess=(r
 ead,tcheck) scf=(maxcycle=1)\\title\\0,1\C,0,-2.338776,-0.914137,0.000
 783\C,0,-1.06896,-1.481939,0.012187\C,0,0.088128,-0.689098,0.016302\C,
 0,-2.482745,0.471234,-0.001881\C,0,-1.353934,1.284245,0.001827\C,0,-0.
 092236,0.698575,0.00219\H,0,-3.213664,-1.553758,0.001142\H,0,-0.969276
 ,-2.561256,0.024304\H,0,-1.442777,2.362997,0.001831\P,0,1.772546,-1.43
 6613,-0.111994\Cl,0,1.31399,1.759353,-0.001841\H,0,-3.468098,0.922145,

 Normal termination of Gaussian 16 at Tue Apr  8 23:32:50 2025.
