 Gaussian 16, Revision C.01,

 ----------------------------------------------------------------------
 #t hf aug-cc-pvdz symm=none int=(grid=ultrafine) guess=(read,tcheck) s
 table=(opt,rrhf)
 ----------------------------------------------------------------------
 -----
 title
 -----
 Symbolic Z-matrix:
 Charge =  0 Multiplicity = 1

 SCF Done:  E(RHF) =  -672.238549397     A.U. after   16 cycles
 Normal termination of Gaussian 16 at Wed Apr  9 00:44:53 2025.
 Gaussian 16:  ES64L-G16RevC.01  3-Jul-2019

 ----------------------------------------------------------------------
 #t hf aug-cc-pvdz iop(5/13=1,5/36=2,99/5=2) pseudo=read geom=check gue
 ss=(read,tcheck) scf=(maxcycle=1)
 ----------------------------------------------------------------------
 -----
 title
 -----
 Structure from the checkpoint file:  "BDE49_nonexpt_750_mol1.chk"
 Charge =  0 Multiplicity = 1

                         Standard orientation:
 ---------------------------------------------------------------------
 Center     Atomic      Atomic             Coordinates (Angstroms)
 Number     Number       Type             X           Y           Z
 ---------------------------------------------------------------------
      1          6           0       -2.749995    0.356865    0.213518
      2          6           0       -1.947962    1.132797   -0.618260
      3          6           0       -0.635312    0.744090   -0.886889
      4          6           0       -2.230512   -0.807649    0.778495
      5          6           0       -0.915545   -1.187496    0.526826
      6          6           0       -0.095176   -0.416690   -0.309869
      7          1           0       -3.773084    0.651919    0.415891
      8          1           0       -2.344839    2.033699   -1.072861
      9          1           0       -0.036292    1.334399   -1.574172
     10          1           0       -2.850300   -1.419725    1.424455
     11          1           0       -0.522958   -2.088248    0.985060
     12          5           0        2.596836    0.338558    0.515123
     13          8           0        2.067662    1.486889    0.982325
     14          1           0        1.134908    1.604398    0.752748
     15         15           0        1.653077   -0.847340   -0.698524
     16          1           0        3.727888    0.092285    0.805106
     17          1           0        1.790065   -2.018042    0.084495
 ---------------------------------------------------------------------

 SCF Done:  E(RHF) =  -672.621270700     A.U. after    2 cycles

 The electronic state is 1-A.
 Alpha  occ. eigenvalues --  -84.26139 -20.57010 -11.26507 -11.25818 -11.25749
 Alpha  occ. eigenvalues --  -11.25685 -11.25593 -11.25418  -7.63265  -6.73519
 Alpha  occ. eigenvalues --   -4.26537  -4.26048  -4.25463  -1.47073  -1.16728
 Alpha  occ. eigenvalues --   -1.03833  -1.02977  -0.88979  -0.84773  -0.81226
 Alpha  occ. eigenvalues --   -0.76674  -0.71505  -0.65702  -0.64964  -0.61956
 Alpha  occ. eigenvalues --   -0.61127  -0.59082  -0.55676  -0.54185  -0.52578
 Alpha  occ. eigenvalues --   -0.51831  -0.48606  -0.42760  -0.38442  -0.36056
 Alpha  occ. eigenvalues --   -0.31306
 Alpha virt. eigenvalues --    0.03051   0.03371   0.03653   0.04503   0.05069
 Alpha virt. eigenvalues --    0.05193   0.06690   0.07023   0.07662   0.08781
 Alpha virt. eigenvalues --    0.09006   0.09412   0.09911   0.10492   0.11403

 Mulliken charges:
               1
     1  C    0.137027
     2  C    0.286606
     3  C   -0.090446
     4  C    0.456290
     5  C    0.012441
     6  C    0.235898
     7  H   -0.205585
     8  H   -0.218134
     9  H   -0.283883
    10  H   -0.217713
    11  H   -0.272979
    12  B    0.952680
    13  O   -1.320517
    14  H    0.771119
    15  P   -0.543099
    16  H    0.122050
    17  H    0.178245
 Sum of Mulliken charges =  -0.00000

 Dipole moment (field-independent basis, Debye):
    X=             -2.0917    Y=             -0.2495    Z=              0.0728  Tot=              2.1078

 Test job not archived.
 1\1\GINC-SE338\SP\RHF\Aug-CC-pVDZ\C6H8B1O1P1\OHZDE\09-Apr-2025\0\\#t h
 f aug-cc-pvdz iop(5/13=1,5/36=2,99/5=2) pseudo=read geom=check guess=(
 read,tcheck) scf=(maxcycle=1)\\title\\0,1\C,0,-2.749995,0.356865,0.213
 518\C,0,-1.947962,1.132797,-0.61826\C,0,-0.635312,0.74409,-0.886889\C,
 0,-2.230512,-0.807649,0.778495\C,0,-0.915545,-1.187496,0.526826\C,0,-0
 .095176,-0.41669,-0.309869\H,0,-3.773084,0.651919,0.415891\H,0,-2.3448
 39,2.033699,-1.072861\H,0,-0.036292,1.334399,-1.574172\H,0,-2.8503,-1.
 419725,1.424455\H,0,-0.522958,-2.088248,0.98506\B,0,2.596836,0.338558,

 Normal termination of Gaussian 16 at Wed Apr  9 00:45:15 2025.
