 Gaussian 16, Revision C.01,

 ----------------------------------------------------------------------
 #t hf aug-cc-pvdz symm=none int=(grid=ultrafine) guess=(read,tcheck) s
 table=(opt,rrhf)
 ----------------------------------------------------------------------
 -----
 title
 -----
 Symbolic Z-matrix:
 Charge =  0 Multiplicity = 1

 SCF Done:  E(RHF) =  -702.593270981     A.U. after   15 cycles
 Normal termination of Gaussian 16 at Tue Apr  8 23:18:51 2025.
 Gaussian 16:  ES64L-G16RevC.01  3-Jul-2019

 ----------------------------------------------------------------------
 #t hf aug-cc-pvdz iop(5/13=1,5/36=2,99/5=2) pseudo=read geom=check gue
 ss=(read,tcheck) scf=(maxcycle=1)
 ----------------------------------------------------------------------
 -----
 title
 -----
 Structure from the checkpoint file:  "BDE49_nonexpt_1069_mol1.chk"
 Charge =  0 Multiplicity = 1

                         Standard orientation:
 ---------------------------------------------------------------------
 Center     Atomic      Atomic             Coordinates (Angstroms)
 Number     Number       Type             X           Y           Z
 ---------------------------------------------------------------------
      1         17           0        1.740618   -0.457054   -0.000007
      2          8           0        0.748341    0.974771    0.000003
      3          6           0       -0.589187    0.748981    0.000005
      4          7           0       -1.127064   -0.392064    0.000000
      5          1           0       -1.111528    1.703931    0.000012
      6          8           0       -2.529787   -0.284351    0.000006
      7          1           0       -2.802842   -1.206819    0.000002
 ---------------------------------------------------------------------

 SCF Done:  E(RHF) =  -702.904443357     A.U. after    2 cycles

 The electronic state is 1-A.
 Alpha  occ. eigenvalues -- -105.64115 -20.66425 -20.60154 -15.57062 -11.36632
 Alpha  occ. eigenvalues --  -10.68275  -7.85266  -7.84679  -7.84664  -1.54189
 Alpha  occ. eigenvalues --   -1.50938  -1.19500  -1.06016  -0.83901  -0.76976
 Alpha  occ. eigenvalues --   -0.72028  -0.67357  -0.66098  -0.59980  -0.58865
 Alpha  occ. eigenvalues --   -0.50769  -0.48601  -0.48277  -0.41361
 Alpha virt. eigenvalues --    0.03863   0.04827   0.05065   0.08830   0.08896
 Alpha virt. eigenvalues --    0.11095   0.13801   0.13822   0.14653   0.16535
 Alpha virt. eigenvalues --    0.16661   0.17694   0.18712   0.20227   0.21190

 Mulliken charges:
               1
     1  Cl   0.385197
     2  O   -1.104138
     3  C    0.238022
     4  N    1.092689
     5  H    0.131126
     6  O   -1.041091
     7  H    0.298195
 Sum of Mulliken charges =  -0.00000

 Dipole moment (field-independent basis, Debye):
    X=             -0.6326    Y=              0.3678    Z=              0.0000  Tot=              0.7318

 Test job not archived.
 1\1\GINC-SE212\SP\RHF\Aug-CC-pVDZ\C1H2Cl1N1O2\OHZDE\08-Apr-2025\0\\#t
 hf aug-cc-pvdz iop(5/13=1,5/36=2,99/5=2) pseudo=read geom=check guess=
 (read,tcheck) scf=(maxcycle=1)\\title\\0,1\Cl,0,1.740618,-0.457054,-0.
 000007\O,0,0.748341,0.974771,0.000003\C,0,-0.589187,0.748981,0.000005\
 N,0,-1.127064,-0.392064,0.\H,0,-1.111528,1.703931,0.000012\O,0,-2.5297
 87,-0.28435,0.000006\H,0,-2.802842,-1.206818,0.000002\\Version=ES64L-G
 16RevC.01\State=1-A\HF=-702.9044434\RMSD=1.212e-02\Dipole=-0.2488989,0
 .1447176,0.000002\Quadrupole=0.0930566,2.1044611,-2.1975176,0.4679805,

 Normal termination of Gaussian 16 at Tue Apr  8 23:18:54 2025.
