 Gaussian 16, Revision C.01,

 ----------------------------------------------------------------------
 #t hf aug-cc-pvdz symm=none int=(grid=ultrafine) guess=(read,tcheck) s
 table=(opt,rrhf)
 ----------------------------------------------------------------------
 -----
 title
 -----
 Symbolic Z-matrix:
 Charge =  0 Multiplicity = 1

 SCF Done:  E(RHF) =  -295.024317945     A.U. after   15 cycles
 Normal termination of Gaussian 16 at Wed Apr  9 00:37:41 2025.
 Gaussian 16:  ES64L-G16RevC.01  3-Jul-2019

 ----------------------------------------------------------------------
 #t hf aug-cc-pvdz iop(5/13=1,5/36=2,99/5=2) pseudo=read geom=check gue
 ss=(read,tcheck) scf=(maxcycle=1)
 ----------------------------------------------------------------------
 -----
 title
 -----
 Structure from the checkpoint file:  "BDE49_nonexpt_530_mol1.chk"
 Charge =  0 Multiplicity = 1

                         Standard orientation:
 ---------------------------------------------------------------------
 Center     Atomic      Atomic             Coordinates (Angstroms)
 Number     Number       Type             X           Y           Z
 ---------------------------------------------------------------------
      1          1           0        2.747469    1.509925   -0.000005
      2          1           0        1.349130    3.006573   -0.000006
      3          5           0        1.602432    1.839788    0.000003
      4          6           0        0.448579    0.825955    0.000001
      5          6           0        0.632130   -0.586677   -0.000000
      6          6           0       -0.489448   -1.416260   -0.000001
      7          6           0       -1.781863   -0.891039   -0.000001
      8          6           0       -0.872747    1.324209    0.000001
      9          1           0       -1.015790    2.399577    0.000002
     10          6           0       -1.981210    0.486734   -0.000000
     11          1           0       -2.984424    0.897357   -0.000000
     12          1           0       -0.355078   -2.493045   -0.000002
     13          6           0        2.007051   -1.213777   -0.000000
     14          1           0        2.584796   -0.913618    0.877718
     15          1           0        2.584796   -0.913617   -0.877717
     16          1           0        1.934978   -2.303034   -0.000000
     17          1           0       -2.632991   -1.563928   -0.000002
 ---------------------------------------------------------------------

 SCF Done:  E(RHF) =  -295.333632637     A.U. after    2 cycles

 The electronic state is 1-A.
 Alpha  occ. eigenvalues --  -11.26112 -11.25708 -11.25245 -11.23943 -11.23860
 Alpha  occ. eigenvalues --  -11.23465 -11.21650  -7.58854  -1.15696  -1.05027
 Alpha  occ. eigenvalues --   -1.01789  -0.93918  -0.84183  -0.81339  -0.72420
 Alpha  occ. eigenvalues --   -0.67263  -0.65758  -0.62606  -0.58901  -0.58279
 Alpha  occ. eigenvalues --   -0.56009  -0.54432  -0.50600  -0.49972  -0.47461
 Alpha  occ. eigenvalues --   -0.46788  -0.35266  -0.33942
 Alpha virt. eigenvalues --    0.03222   0.03280   0.03437   0.03562   0.04991
 Alpha virt. eigenvalues --    0.05104   0.06057   0.06916   0.07476   0.07657
 Alpha virt. eigenvalues --    0.08460   0.10621   0.10756   0.12126   0.12451

 Mulliken charges:
               1
     1  H    0.307163
     2  H    0.187885
     3  B   -0.908591
     4  C    0.319128
     5  C    0.367299
     6  C    0.561398
     7  C    0.164226
     8  C    0.391008
     9  H   -0.300526
    10  C   -0.018969
    11  H   -0.212198
    12  H   -0.294196
    13  C   -0.832459
    14  H    0.245296
    15  H    0.245295
    16  H    0.002359
    17  H   -0.224119
 Sum of Mulliken charges =  -0.00000

 Dipole moment (field-independent basis, Debye):
    X=             -0.6766    Y=             -1.0920    Z=              0.0000  Tot=              1.2846

 Test job not archived.
 1\1\GINC-SE059\SP\RHF\Aug-CC-pVDZ\C7H9B1\OHZDE\09-Apr-2025\0\\#t hf au
 g-cc-pvdz iop(5/13=1,5/36=2,99/5=2) pseudo=read geom=check guess=(read
 ,tcheck) scf=(maxcycle=1)\\title\\0,1\H,0,-2.747469,1.509924,0.000005\
 H,0,-1.349131,3.006573,0.000006\B,0,-1.602432,1.839788,-0.000003\C,0,-
 0.448579,0.825955,-0.000001\C,0,-0.63213,-0.586677,0.\C,0,0.489448,-1.
 41626,0.000001\C,0,1.781863,-0.891039,0.000001\C,0,0.872747,1.324209,-
 0.000001\H,0,1.01579,2.399577,-0.000002\C,0,1.98121,0.486734,0.\H,0,2.
 984424,0.897358,0.\H,0,0.355079,-2.493045,0.000002\C,0,-2.007051,-1.21

 Normal termination of Gaussian 16 at Wed Apr  9 00:37:49 2025.
