 Gaussian 16, Revision C.01,

 ----------------------------------------------------------------------
 #t hf aug-cc-pvdz symm=none int=(grid=ultrafine) guess=(read,tcheck) s
 table=(opt,rrhf)
 ----------------------------------------------------------------------
 -----
 title
 -----
 Symbolic Z-matrix:
 Charge =  0 Multiplicity = 1

 SCF Done:  E(RHF) =  -831.757341569     A.U. after   16 cycles
 Normal termination of Gaussian 16 at Tue Apr  8 23:40:12 2025.
 Gaussian 16:  ES64L-G16RevC.01  3-Jul-2019

 ----------------------------------------------------------------------
 #t hf aug-cc-pvdz iop(5/13=1,5/36=2,99/5=2) pseudo=read geom=check gue
 ss=(read,tcheck) scf=(maxcycle=1)
 ----------------------------------------------------------------------
 -----
 title
 -----
 Structure from the checkpoint file:  "BDE49_nonexpt_1556_mol1.chk"
 Charge =  0 Multiplicity = 1

                         Standard orientation:
 ---------------------------------------------------------------------
 Center     Atomic      Atomic             Coordinates (Angstroms)
 Number     Number       Type             X           Y           Z
 ---------------------------------------------------------------------
      1          6           0       -1.782509    1.791617   -0.277850
      2          6           0       -0.492419    1.592970    0.212169
      3          6           0       -2.667778    0.729201   -0.407851
      4          6           0       -2.281045   -0.571128   -0.043863
      5          6           0       -0.986325   -0.764495    0.459865
      6          6           0       -0.090582    0.301758    0.589553
      7          1           0       -0.677343   -1.761633    0.758058
      8          1           0       -3.670356    0.901624   -0.786321
      9          1           0       -2.102831    2.787430   -0.564341
     10          1           0        0.188641    2.429160    0.311056
     11          7           0        2.576950   -0.179873   -0.260663
     12          8           0        2.264920   -1.455128   -0.844449
     13          8           0        2.312768    0.809828   -1.225692
     14          7           0       -3.180832   -1.629595   -0.117361
     15          1           0       -3.941136   -1.516104   -0.770700
     16          1           0       -2.771224   -2.550793   -0.157383
     17          1           0        3.112001   -1.729505   -1.216318
     18          1           0        1.357850    0.764125   -1.413899
     19         15           0        1.595380   -0.081914    1.225139
     20          1           0        1.983302    1.253545    1.477922
 ---------------------------------------------------------------------

 SCF Done:  E(RHF) =  -832.296238347     A.U. after    2 cycles

 The electronic state is 1-A.
 Alpha  occ. eigenvalues --  -84.30202 -20.58748 -20.58376 -15.60667 -15.51941
 Alpha  occ. eigenvalues --  -11.29754 -11.25832 -11.25670 -11.24877 -11.24852
 Alpha  occ. eigenvalues --  -11.24629  -6.76987  -4.29985  -4.29652  -4.29075
 Alpha  occ. eigenvalues --   -1.53362  -1.43682  -1.23704  -1.14602  -1.06530
 Alpha  occ. eigenvalues --   -1.02698  -1.00598  -0.87808  -0.84787  -0.81303
 Alpha  occ. eigenvalues --   -0.75369  -0.73447  -0.72046  -0.68769  -0.66245
 Alpha  occ. eigenvalues --   -0.63948  -0.63602  -0.62272  -0.61548  -0.56943
 Alpha  occ. eigenvalues --   -0.56593  -0.52997  -0.50006  -0.49036  -0.48587
 Alpha  occ. eigenvalues --   -0.47773  -0.43324  -0.37203  -0.34689  -0.32407
 Alpha virt. eigenvalues --    0.02715   0.03609   0.04159   0.05152   0.05541
 Alpha virt. eigenvalues --    0.06066   0.06913   0.07294   0.07961   0.08410
 Alpha virt. eigenvalues --    0.09004   0.10297   0.10931   0.11254   0.12730

 Mulliken charges:
               1
     1  C    0.255801
     2  C   -0.103502
     3  C    0.815692
     4  C   -1.494312
     5  C    0.164878
     6  C    0.601413
     7  H   -0.291676
     8  H   -0.285926
     9  H   -0.232092
    10  H   -0.339691
    11  N    1.298942
    12  O   -1.212083
    13  O   -1.246159
    14  N    0.756260
    15  H    0.017817
    16  H    0.014319
    17  H    0.373420
    18  H    0.421888
    19  P    0.286922
    20  H    0.198087
 Sum of Mulliken charges =   0.00000

 Dipole moment (field-independent basis, Debye):
    X=             -2.8240    Y=             -0.7927    Z=             -1.1581  Tot=              3.1535

 Test job not archived.
 1\1\GINC-SE106\SP\RHF\Aug-CC-pVDZ\C6H9N2O2P1\OHZDE\08-Apr-2025\0\\#t h
 f aug-cc-pvdz iop(5/13=1,5/36=2,99/5=2) pseudo=read geom=check guess=(
 read,tcheck) scf=(maxcycle=1)\\title\\0,1\C,0,-1.782509,1.791617,-0.27
 785\C,0,-0.492419,1.59297,0.212169\C,0,-2.667778,0.729201,-0.407851\C,
 0,-2.281045,-0.571128,-0.043863\C,0,-0.986325,-0.764495,0.459865\C,0,-
 0.090582,0.301758,0.589553\H,0,-0.677343,-1.761633,0.758058\H,0,-3.670
 356,0.901624,-0.786321\H,0,-2.102831,2.78743,-0.564341\H,0,0.188641,2.
 42916,0.311056\N,0,2.57695,-0.179873,-0.260663\O,0,2.26492,-1.455128,-

 Normal termination of Gaussian 16 at Tue Apr  8 23:40:25 2025.
