 Gaussian 16, Revision C.01,

 ----------------------------------------------------------------------
 #t hf aug-cc-pvdz symm=none int=(grid=ultrafine) guess=(read,tcheck) s
 table=(opt,rrhf)
 ----------------------------------------------------------------------
 -----
 title
 -----
 Symbolic Z-matrix:
 Charge =  0 Multiplicity = 1

 SCF Done:  E(RHF) =  -1071.54743857     A.U. after   16 cycles
 Normal termination of Gaussian 16 at Tue Apr  8 23:47:24 2025.
 Gaussian 16:  ES64L-G16RevC.01  3-Jul-2019

 ----------------------------------------------------------------------
 #t hf aug-cc-pvdz iop(5/13=1,5/36=2,99/5=2) pseudo=read geom=check gue
 ss=(read,tcheck) scf=(maxcycle=1)
 ----------------------------------------------------------------------
 -----
 title
 -----
 Structure from the checkpoint file:  "BDE49_nonexpt_1777_mol1.chk"
 Charge =  0 Multiplicity = 1

                         Standard orientation:
 ---------------------------------------------------------------------
 Center     Atomic      Atomic             Coordinates (Angstroms)
 Number     Number       Type             X           Y           Z
 ---------------------------------------------------------------------
      1          6           0        0.264416    1.205823   -0.331027
      2          6           0        1.630335    1.213673   -0.080177
      3          6           0        2.320236   -0.000012    0.046647
      4          6           0        1.630297   -1.213644   -0.080487
      5          6           0        0.264379   -1.205688   -0.331335
      6          6           0       -0.443344    0.000095   -0.459320
      7          1           0       -0.253788    2.153803   -0.429235
      8          1           0        2.168448    2.148388    0.016746
      9         14           0       -2.281862    0.000169   -0.791066
     10          1           0       -0.253854   -2.153627   -0.429785
     11         17           0       -3.351268   -0.000204    0.999668
     12          1           0        2.168381   -2.148400    0.016198
     13          6           0        3.728467   -0.000067    0.301932
     14          7           0        4.865181   -0.000113    0.507209
     15          1           0       -2.668282   -1.221544   -1.520862
     16          1           0       -2.668265    1.222191   -1.520353
 ---------------------------------------------------------------------

 SCF Done:  E(RHF) =  -1071.97806740     A.U. after    2 cycles

 The electronic state is 1-A.
 Alpha  occ. eigenvalues -- -105.56547 -69.59545 -15.52604 -11.30989 -11.29300
 Alpha  occ. eigenvalues --  -11.28768 -11.28766 -11.28418 -11.28395 -11.27249
 Alpha  occ. eigenvalues --  -10.61536  -7.78424  -7.78117  -7.78115  -6.26210
 Alpha  occ. eigenvalues --   -4.01636  -4.01507  -4.01493  -1.24582  -1.19577
 Alpha  occ. eigenvalues --   -1.07905  -1.05906  -1.05666  -0.90807  -0.87834
 Alpha  occ. eigenvalues --   -0.79127  -0.76415  -0.69281  -0.67577  -0.64757
 Alpha  occ. eigenvalues --   -0.64003  -0.60901  -0.57966  -0.55541  -0.54967
 Alpha  occ. eigenvalues --   -0.54419  -0.52586  -0.51142  -0.50936  -0.46616
 Alpha  occ. eigenvalues --   -0.46534  -0.38427  -0.38352
 Alpha virt. eigenvalues --    0.02622   0.02907   0.03139   0.03718   0.04358
 Alpha virt. eigenvalues --    0.05419   0.05625   0.07068   0.07962   0.08230
 Alpha virt. eigenvalues --    0.08909   0.09082   0.09702   0.11283   0.11938

 Mulliken charges:
               1
     1  C    0.634679
     2  C    0.383600
     3  C    2.438987
     4  C    0.383605
     5  C    0.634826
     6  C   -1.454944
     7  H   -0.304262
     8  H   -0.298792
     9  Si   1.107129
    10  H   -0.304274
    11  Cl  -0.594547
    12  H   -0.298791
    13  C   -3.135929
    14  N    1.089294
    15  H   -0.140286
    16  H   -0.140296
 Sum of Mulliken charges =  -0.00000

 Dipole moment (field-independent basis, Debye):
    X=             -3.6009    Y=              0.0005    Z=             -2.2073  Tot=              4.2236

 Test job not archived.
 1\1\GINC-SE361\SP\RHF\Aug-CC-pVDZ\C7H6Cl1N1Si1\OHZDE\08-Apr-2025\0\\#t
  hf aug-cc-pvdz iop(5/13=1,5/36=2,99/5=2) pseudo=read geom=check guess
 =(read,tcheck) scf=(maxcycle=1)\\title\\0,1\C,0,0.264416,1.205823,-0.3
 31027\C,0,1.630335,1.213673,-0.080177\C,0,2.320236,-0.000012,0.046647\
 C,0,1.630297,-1.213644,-0.080487\C,0,0.264379,-1.205688,-0.331335\C,0,
 -0.443344,0.000095,-0.45932\H,0,-0.253788,2.153803,-0.429235\H,0,2.168
 448,2.148388,0.016746\Si,0,-2.281862,0.000169,-0.791066\H,0,-0.253854,
 -2.153627,-0.429785\Cl,0,-3.351268,-0.000204,0.999668\H,0,2.168381,-2.

 Normal termination of Gaussian 16 at Tue Apr  8 23:47:33 2025.
