 Gaussian 16, Revision C.01,

 ----------------------------------------------------------------------
 #t hf aug-cc-pvdz symm=none int=(grid=ultrafine) guess=(read,tcheck) s
 table=opt
 ----------------------------------------------------------------------
 -----
 title
 -----
 Symbolic Z-matrix:
 Charge =  0 Multiplicity = 2

 SCF Done:  E(UHF) =  -474.072335989     A.U. after   15 cycles
 Normal termination of Gaussian 16 at Tue Apr  8 22:31:44 2025.
 Gaussian 16:  ES64L-G16RevC.01  3-Jul-2019

 ----------------------------------------------------------------------
 #t hf aug-cc-pvdz iop(5/13=1,5/36=2,99/5=2) pseudo=read geom=check gue
 ss=(read,tcheck) scf=(maxcycle=1)
 ----------------------------------------------------------------------
 -----
 title
 -----
 Structure from the checkpoint file:  "BDE49_expt_1054_mol3.chk"
 Charge =  0 Multiplicity = 2

                         Standard orientation:
 ---------------------------------------------------------------------
 Center     Atomic      Atomic             Coordinates (Angstroms)
 Number     Number       Type             X           Y           Z
 ---------------------------------------------------------------------
      1          6           0        0.713057    0.213507   -0.317986
      2          6           0       -0.696621   -0.310486   -0.334919
      3          9           0        0.998757    1.082946    0.640157
      4          9           0        1.648040   -0.729853   -0.419061
      5          9           0       -1.555417    0.723865   -0.525415
      6          9           0       -1.010489   -0.895514    0.864707
      7          1           0       -0.826627   -1.051125   -1.126065
 ---------------------------------------------------------------------

 SCF Done:  E(UHF) =  -474.504677211     A.U. after    2 cycles

 The electronic state is 2-A.
 Alpha  occ. eigenvalues --  -26.53132 -26.52788 -26.50911 -26.50517 -11.46247
 Alpha  occ. eigenvalues --  -11.46209  -1.70693  -1.67036  -1.63671  -1.60528
 Alpha  occ. eigenvalues --   -1.07740  -0.92370  -0.83389  -0.81833  -0.80888
 Alpha  occ. eigenvalues --   -0.77283  -0.75700  -0.70575  -0.69531  -0.66615
 Alpha  occ. eigenvalues --   -0.65202  -0.63208  -0.62866  -0.57110  -0.45027
 Alpha virt. eigenvalues --    0.03536   0.07175   0.08768   0.09017   0.11758
 Alpha virt. eigenvalues --    0.11915   0.12021   0.15767   0.20876   0.21667
 Alpha virt. eigenvalues --    0.22970   0.26245   0.26852   0.28061   0.29826

  Beta  occ. eigenvalues --  -26.52696 -26.52354 -26.50927 -26.50284 -11.46218
  Beta  occ. eigenvalues --  -11.43382  -1.69162  -1.66700  -1.62569  -1.60152
  Beta  occ. eigenvalues --   -1.04540  -0.90096  -0.82341  -0.81191  -0.77413
  Beta  occ. eigenvalues --   -0.76257  -0.71886  -0.69999  -0.66461  -0.65813
  Beta  occ. eigenvalues --   -0.64754  -0.62812  -0.62356  -0.55900
  Beta virt. eigenvalues --    0.03380   0.05861   0.08237   0.09079   0.10649
  Beta virt. eigenvalues --    0.11822   0.12021   0.12239   0.16593   0.21597
  Beta virt. eigenvalues --    0.22012   0.23063   0.27037   0.28215   0.29469

 Mulliken charges and spin densities:
               1          2
     1  C    1.246667   1.024368
     2  C    1.323831  -0.092195
     3  F   -0.654640   0.027333
     4  F   -0.671851   0.027016
     5  F   -0.665746  -0.007798
     6  F   -0.667983   0.026503
     7  H    0.089722  -0.005228
 Sum of Mulliken charges =  -0.00000   1.00000

 Dipole moment (field-independent basis, Debye):
    X=             -0.0025    Y=             -0.8046    Z=             -1.5979  Tot=              1.7890
                          Isotropic Fermi Contact Couplings
        Atom                 a.u.       MegaHertz       Gauss      10(-4) cm-1
     1  C(13)              0.43539     489.45661     174.65029     163.26515
     2  C(13)              0.01871      21.03340       7.50524       7.01599
     3  F(19)              0.06864     288.79857     103.05051      96.33283
     4  F(19)              0.06871     289.09293     103.15555      96.43102
     5  F(19)             -0.00215      -9.06437      -3.23439      -3.02355
     6  F(19)              0.03197     134.51037      47.99664      44.86783
     7  H(1)              -0.00060      -2.69188      -0.96053      -0.89792
 --------------------------------------------------------

 Normal termination of Gaussian 16 at Tue Apr  8 22:31:47 2025.
