 Gaussian 16, Revision C.01,

 ----------------------------------------------------------------------
 #t hf aug-cc-pvdz symm=none int=(grid=ultrafine) guess=(read,tcheck) s
 table=opt
 ----------------------------------------------------------------------
 -----
 title
 -----
 Symbolic Z-matrix:
 Charge =  0 Multiplicity = 2

 SCF Done:  E(UHF) =  -134.695834310     A.U. after   19 cycles
 Normal termination of Gaussian 16 at Wed Apr  9 00:36:18 2025.
 Gaussian 16:  ES64L-G16RevC.01  3-Jul-2019

 ----------------------------------------------------------------------
 #t hf aug-cc-pvdz iop(5/13=1,5/36=2,99/5=2) pseudo=read geom=check gue
 ss=(read,tcheck) scf=(maxcycle=1)
 ----------------------------------------------------------------------
 -----
 title
 -----
 Structure from the checkpoint file:  "BDE49_nonexpt_522_mol2.chk"
 Charge =  0 Multiplicity = 2

                         Standard orientation:
 ---------------------------------------------------------------------
 Center     Atomic      Atomic             Coordinates (Angstroms)
 Number     Number       Type             X           Y           Z
 ---------------------------------------------------------------------
      1          1           0       -2.512255    0.018104   -0.000002
      2          5           0       -1.348533    0.004638    0.000003
      3          7           0       -0.091572    0.024417   -0.000000
      4          7           0        1.182781   -0.143435   -0.000002
      5          1           0        1.616462    0.791835    0.000003
 ---------------------------------------------------------------------

 SCF Done:  E(UHF) =  -134.826149166     A.U. after    2 cycles

 The electronic state is 2-A.
 Alpha  occ. eigenvalues --  -15.57133 -15.52971  -7.62982  -1.33292  -1.04836
 Alpha  occ. eigenvalues --   -0.79614  -0.65724  -0.65088  -0.63550  -0.42058
 Alpha  occ. eigenvalues --   -0.40081
 Alpha virt. eigenvalues --    0.03806   0.04637   0.04917   0.05150   0.07710
 Alpha virt. eigenvalues --    0.10610   0.14297   0.14627   0.15194   0.18300
 Alpha virt. eigenvalues --    0.18490   0.19971   0.22094   0.22584   0.22896

  Beta  occ. eigenvalues --  -15.54346 -15.53753  -7.62242  -1.29994  -1.00568
  Beta  occ. eigenvalues --   -0.77362  -0.63789  -0.62465  -0.55491  -0.41704
  Beta virt. eigenvalues --    0.03912   0.03935   0.04668   0.04907   0.06226
  Beta virt. eigenvalues --    0.07807   0.10704   0.14559   0.15295   0.17951
  Beta virt. eigenvalues --    0.18669   0.20250   0.20851   0.22893   0.23198

 Mulliken charges and spin densities:
               1          2
     1  H    0.338482  -0.022964
     2  B   -0.507593   0.413030
     3  N    0.060408  -0.263346
     4  N   -0.042935   0.947178
     5  H    0.151637  -0.073898
 Sum of Mulliken charges =  -0.00000   1.00000

 Dipole moment (field-independent basis, Debye):
    X=             -1.8527    Y=              1.4800    Z=              0.0000  Tot=              2.3713
                          Isotropic Fermi Contact Couplings
        Atom                 a.u.       MegaHertz       Gauss      10(-4) cm-1
     1  H(1)              -0.01211     -54.12957     -19.31478     -18.05568
     2  B(11)              0.05437      77.97939      27.82499      26.01112
     3  N(14)             -0.20175     -65.18760     -23.26056     -21.74424
     4  N(14)              0.28270      91.34038      32.59252      30.46787
     5  H(1)              -0.02318    -103.62749     -36.97687     -34.56641
 --------------------------------------------------------
       Center         ----  Spin Dipole Couplings  ----
                      3XX-RR        3YY-RR        3ZZ-RR

 Normal termination of Gaussian 16 at Wed Apr  9 00:36:20 2025.
