 Gaussian 16, Revision C.01,

 ----------------------------------------------------------------------
 #t hf aug-cc-pvdz symm=none int=(grid=ultrafine) guess=(read,tcheck) s
 table=opt
 ----------------------------------------------------------------------
 -----
 title
 -----
 Symbolic Z-matrix:
 Charge =  0 Multiplicity = 2

 SCF Done:  E(UHF) =  -380.883888217     A.U. after   17 cycles
 Normal termination of Gaussian 16 at Tue Apr  8 23:53:17 2025.
 Gaussian 16:  ES64L-G16RevC.01  3-Jul-2019

 ----------------------------------------------------------------------
 #t hf aug-cc-pvdz iop(5/13=1,5/36=2,99/5=2) pseudo=read geom=check gue
 ss=(read,tcheck) scf=(maxcycle=1)
 ----------------------------------------------------------------------
 -----
 title
 -----
 Structure from the checkpoint file:  "BDE49_nonexpt_1950_mol2.chk"
 Charge =  0 Multiplicity = 2

                         Standard orientation:
 ---------------------------------------------------------------------
 Center     Atomic      Atomic             Coordinates (Angstroms)
 Number     Number       Type             X           Y           Z
 ---------------------------------------------------------------------
      1          6           0       -1.184562   -0.000000    0.070522
      2         15           0        0.580506   -0.000001   -0.122784
      3          1           0        0.938014   -1.056756    0.754107
      4          1           0        0.938010    1.056769    0.754090
      5          1           0       -1.738118   -0.924252   -0.044787
      6          1           0       -1.738117    0.924253   -0.044780
 ---------------------------------------------------------------------

 SCF Done:  E(UHF) =  -380.971291271     A.U. after    2 cycles

 The electronic state is 2-A.
 Alpha  occ. eigenvalues --  -84.27598 -11.25573  -6.74770  -4.27177  -4.27080
 Alpha  occ. eigenvalues --   -4.26356  -1.00017  -0.80606  -0.61545  -0.52308
 Alpha  occ. eigenvalues --   -0.49966  -0.45303  -0.30728
 Alpha virt. eigenvalues --    0.03828   0.04841   0.05048   0.08121   0.08886
 Alpha virt. eigenvalues --    0.10423   0.11009   0.13506   0.15525   0.17630
 Alpha virt. eigenvalues --    0.17645   0.19944   0.21057   0.22486   0.26283

  Beta  occ. eigenvalues --  -84.27632 -11.23218  -6.74809  -4.27350  -4.27175
  Beta  occ. eigenvalues --   -4.26287  -0.94256  -0.77387  -0.60131  -0.50074
  Beta  occ. eigenvalues --   -0.49071  -0.35039
  Beta virt. eigenvalues --    0.03928   0.04932   0.05072   0.07195   0.08134
  Beta virt. eigenvalues --    0.08961   0.10691   0.11082   0.15739   0.17689
  Beta virt. eigenvalues --    0.17762   0.17886   0.20515   0.21039   0.23283

 Mulliken charges and spin densities:
               1          2
     1  C   -0.573914   1.234621
     2  P   -0.360212  -0.165129
     3  H    0.451246   0.049116
     4  H    0.451242   0.049114
     5  H    0.015820  -0.083861
     6  H    0.015819  -0.083861
 Sum of Mulliken charges =  -0.00000   1.00000

 Dipole moment (field-independent basis, Debye):
    X=             -0.4851    Y=              0.0000    Z=              0.3286  Tot=              0.5859
                          Isotropic Fermi Contact Couplings
        Atom                 a.u.       MegaHertz       Gauss      10(-4) cm-1
     1  C(13)              0.20218     227.28601      81.10130      75.81445
     2  P(31)              0.01947      35.26894      12.58484      11.76445
     3  H(1)               0.01490      66.61700      23.77060      22.22104
     4  H(1)               0.01490      66.61361      23.76939      22.21991
     5  H(1)              -0.02167     -96.84958     -34.55834     -32.30554
     6  H(1)              -0.02167     -96.84991     -34.55846     -32.30565
 --------------------------------------------------------
       Center         ----  Spin Dipole Couplings  ----

 Normal termination of Gaussian 16 at Tue Apr  8 23:53:19 2025.
