 Gaussian 16, Revision C.01,

 ----------------------------------------------------------------------
 #t hf aug-cc-pvdz symm=none int=(grid=ultrafine) guess=(read,tcheck) s
 table=(opt,rrhf)
 ----------------------------------------------------------------------
 -----
 title
 -----
 Symbolic Z-matrix:
 Charge =  0 Multiplicity = 1

 SCF Done:  E(RHF) =  -227.840059877     A.U. after   13 cycles
 Normal termination of Gaussian 16 at Tue Apr  8 22:35:38 2025.
 Gaussian 16:  ES64L-G16RevC.01  3-Jul-2019

 ----------------------------------------------------------------------
 #t hf aug-cc-pvdz iop(5/13=1,5/36=2,99/5=2) pseudo=read geom=check gue
 ss=(read,tcheck) scf=(maxcycle=1)
 ----------------------------------------------------------------------
 -----
 title
 -----
 Structure from the checkpoint file:  "BDE49_expt_1107_mol1.chk"
 Charge =  0 Multiplicity = 1

                         Standard orientation:
 ---------------------------------------------------------------------
 Center     Atomic      Atomic             Coordinates (Angstroms)
 Number     Number       Type             X           Y           Z
 ---------------------------------------------------------------------
      1          6           0        1.372740   -0.048501    0.000005
      2          6           0       -0.132805    0.141515    0.000028
      3          1           0        1.689212   -0.609255    0.884583
      4          1           0        1.856783    0.925221   -0.000015
      5          1           0        1.689187   -0.609278   -0.884567
      6          8           0       -0.688245    1.200798   -0.000015
      7          8           0       -0.861570   -1.011680   -0.000009
      8          1           0       -0.276270   -1.777723   -0.000011
 ---------------------------------------------------------------------

 SCF Done:  E(RHF) =  -228.069010474     A.U. after    2 cycles

 The electronic state is 1-A.
 Alpha  occ. eigenvalues --  -20.60396 -20.53745 -11.39948 -11.27079  -1.54441
 Alpha  occ. eigenvalues --   -1.45783  -1.03417  -0.83578  -0.72722  -0.67580
 Alpha  occ. eigenvalues --   -0.65556  -0.60753  -0.57212  -0.56018  -0.47615
 Alpha  occ. eigenvalues --   -0.44637
 Alpha virt. eigenvalues --    0.02453   0.04291   0.04556   0.06552   0.09348
 Alpha virt. eigenvalues --    0.11780   0.11933   0.12486   0.14081   0.15091
 Alpha virt. eigenvalues --    0.16080   0.16739   0.19859   0.22106   0.23049

 Mulliken charges:
               1
     1  C   -0.473794
     2  C    1.904832
     3  H    0.206587
     4  H    0.108290
     5  H    0.206575
     6  O   -1.141580
     7  O   -1.242846
     8  H    0.431937
 Sum of Mulliken charges =  -0.00000

 Dipole moment (field-independent basis, Debye):
    X=              3.5058    Y=             -3.0449    Z=              0.0001  Tot=              4.6435

 Test job not archived.
 1\1\GINC-SE110\SP\RHF\Aug-CC-pVDZ\C2H4O2\OHZDE\08-Apr-2025\0\\#t hf au
 g-cc-pvdz iop(5/13=1,5/36=2,99/5=2) pseudo=read geom=check guess=(read
 ,tcheck) scf=(maxcycle=1)\\title\\0,1\C,0,1.37274,-0.048501,0.000005\C
 ,0,-0.132805,0.141515,0.000028\H,0,1.689212,-0.609255,0.884583\H,0,1.8
 56784,0.92522,-0.000015\H,0,1.689187,-0.609278,-0.884567\O,0,-0.688244
 ,1.200799,-0.000015\O,0,-0.86157,-1.011679,-0.000009\H,0,-0.27627,-1.7
 77723,-0.000011\\Version=ES64L-G16RevC.01\State=1-A\HF=-228.0690105\RM
 SD=1.041e-02\Dipole=1.3792772,-1.1979632,0.0000291\Quadrupole=-0.88285

 Normal termination of Gaussian 16 at Tue Apr  8 22:35:40 2025.
