 Gaussian 16, Revision C.01,

 ----------------------------------------------------------------------
 #t hf aug-cc-pvdz symm=none int=(grid=ultrafine) guess=(read,tcheck) s
 table=(opt,rrhf)
 ----------------------------------------------------------------------
 -----
 title
 -----
 Symbolic Z-matrix:
 Charge =  0 Multiplicity = 1

 SCF Done:  E(RHF) =  -306.947593474     A.U. after   13 cycles

 1\1\GINC-SE226\Stability\RHF\Aug-CC-pVDZ\C4H10O2\OHZDE\08-Apr-2025\0\\
 #t hf aug-cc-pvdz symm=none int=(grid=ultrafine) guess=(read,tcheck) s
 table=(opt,rrhf)\\title\\0,1\C,0,-2.927775,-0.197327,0.134159\C,0,-1.5
 89199,0.520653,0.194771\H,0,-2.891323,-1.136356,0.690702\H,0,-3.200219
 ,-0.418322,-0.899874\H,0,-3.706285,0.433367,0.570563\C,0,1.589199,-0.5
 20652,0.194772\C,0,2.927775,0.197327,0.134158\H,0,3.706285,-0.433365,0
 .570563\H,0,2.891323,1.136357,0.6907\H,0,3.200219,0.418321,-0.899875\O
 ,0,-0.635962,-0.355448,-0.399864\O,0,0.635962,0.355447,-0.399864\H,0,-

 Normal termination of Gaussian 16 at Tue Apr  8 22:43:51 2025.
 Gaussian 16:  ES64L-G16RevC.01  3-Jul-2019

 ----------------------------------------------------------------------
 #t hf aug-cc-pvdz iop(5/13=1,5/36=2,99/5=2) pseudo=read geom=check gue
 ss=(read,tcheck) scf=(maxcycle=1)
 ----------------------------------------------------------------------
 -----
 title
 -----
 Structure from the checkpoint file:  "BDE49_expt_1473_mol1.chk"
 Charge =  0 Multiplicity = 1

                         Standard orientation:
 ---------------------------------------------------------------------
 Center     Atomic      Atomic             Coordinates (Angstroms)
 Number     Number       Type             X           Y           Z
 ---------------------------------------------------------------------
      1          6           0       -2.927775   -0.197327    0.134159
      2          6           0       -1.589199    0.520653    0.194771
      3          1           0       -2.891323   -1.136356    0.690702
      4          1           0       -3.200219   -0.418322   -0.899874
      5          1           0       -3.706285    0.433367    0.570563
      6          6           0        1.589199   -0.520652    0.194772
      7          6           0        2.927775    0.197327    0.134158
      8          1           0        3.706285   -0.433365    0.570563
      9          1           0        2.891323    1.136357    0.690700
     10          1           0        3.200219    0.418321   -0.899875
     11          8           0       -0.635962   -0.355448   -0.399864
     12          8           0        0.635962    0.355447   -0.399864
     13          1           0       -1.298963    0.740635    1.229371
     14          1           0       -1.618588    1.461966   -0.365430
     15          1           0        1.298963   -0.740633    1.229372
     16          1           0        1.618588   -1.461967   -0.365428
 ---------------------------------------------------------------------

 SCF Done:  E(RHF) =  -307.270712706     A.U. after    2 cycles

 The electronic state is 1-A.
 Alpha  occ. eigenvalues --  -20.59780 -20.59776 -11.28616 -11.28614 -11.23136
 Alpha  occ. eigenvalues --  -11.23136  -1.56940  -1.30105  -1.02290  -0.99709
 Alpha  occ. eigenvalues --   -0.84797  -0.83905  -0.68527  -0.67972  -0.66064
 Alpha  occ. eigenvalues --   -0.62002  -0.58058  -0.56946  -0.54625  -0.52842
 Alpha  occ. eigenvalues --   -0.51918  -0.51917  -0.48185  -0.45882  -0.41418
 Alpha virt. eigenvalues --    0.03831   0.04050   0.04139   0.04517   0.05956
 Alpha virt. eigenvalues --    0.06134   0.06259   0.07931   0.08114   0.08721
 Alpha virt. eigenvalues --    0.12240   0.13322   0.13981   0.14462   0.15644

 Mulliken charges:
               1
     1  C   -0.505066
     2  C    0.640929
     3  H    0.162517
     4  H    0.178150
     5  H    0.170884
     6  C    0.640927
     7  C   -0.505064
     8  H    0.170882
     9  H    0.162518
    10  H    0.178149
    11  O   -0.805537
    12  O   -0.805538
    13  H    0.081046
    14  H    0.077077
    15  H    0.081045
    16  H    0.077080
 Sum of Mulliken charges =  -0.00000

 Dipole moment (field-independent basis, Debye):
    X=             -0.0000    Y=              0.0000    Z=              1.3433  Tot=              1.3433

 Test job not archived.
 1\1\GINC-SE226\SP\RHF\Aug-CC-pVDZ\C4H10O2\OHZDE\08-Apr-2025\0\\#t hf a
 ug-cc-pvdz iop(5/13=1,5/36=2,99/5=2) pseudo=read geom=check guess=(rea
 d,tcheck) scf=(maxcycle=1)\\title\\0,1\C,0,-2.927775,-0.197327,0.13415
 9\C,0,-1.589199,0.520653,0.194771\H,0,-2.891323,-1.136356,0.690702\H,0
 ,-3.200219,-0.418322,-0.899874\H,0,-3.706285,0.433367,0.570563\C,0,1.5
 89199,-0.520652,0.194772\C,0,2.927775,0.197327,0.134158\H,0,3.706285,-
 0.433365,0.570563\H,0,2.891323,1.136357,0.6907\H,0,3.200219,0.418321,-
 0.899875\O,0,-0.635962,-0.355448,-0.399864\O,0,0.635962,0.355447,-0.39

 Normal termination of Gaussian 16 at Tue Apr  8 22:43:56 2025.
