 Gaussian 16, Revision C.01,

 ----------------------------------------------------------------------
 #t hf aug-cc-pvdz symm=none int=(grid=ultrafine) guess=(read,tcheck) s
 table=(opt,rrhf)
 ----------------------------------------------------------------------
 -----
 title
 -----
 Symbolic Z-matrix:
 Charge =  0 Multiplicity = 1

 SCF Done:  E(RHF) =  -332.454448633     A.U. after   13 cycles
 Normal termination of Gaussian 16 at Wed Apr  9 00:25:23 2025.
 Gaussian 16:  ES64L-G16RevC.01  3-Jul-2019

 ----------------------------------------------------------------------
 #t hf aug-cc-pvdz iop(5/13=1,5/36=2,99/5=2) pseudo=read geom=check gue
 ss=(read,tcheck) scf=(maxcycle=1)
 ----------------------------------------------------------------------
 -----
 title
 -----
 Structure from the checkpoint file:  "BDE49_nonexpt_271_mol1.chk"
 Charge =  0 Multiplicity = 1

                         Standard orientation:
 ---------------------------------------------------------------------
 Center     Atomic      Atomic             Coordinates (Angstroms)
 Number     Number       Type             X           Y           Z
 ---------------------------------------------------------------------
      1          6           0        0.617244   -0.002882    0.000009
      2          5           0       -0.976874    0.023765    0.000024
      3          8           0       -1.645616   -1.167405   -0.000037
      4          8           0       -1.738718    1.165743    0.000005
      5          6           0        1.221839    1.414870    0.000010
      6          1           0        0.925808    1.985616    0.888083
      7          1           0        0.925793    1.985624   -0.888052
      8          6           0        1.100578   -0.761066   -1.258493
      9          1           0        2.194114   -0.840642   -1.262953
     10          1           0        0.803371   -0.247557   -2.178999
     11          1           0        0.685993   -1.770980   -1.292655
     12          6           0        1.100597   -0.761076    1.258497
     13          1           0        0.803405   -0.247574    2.179013
     14          1           0        2.194133   -0.840651    1.262938
     15          1           0        0.686014   -1.770991    1.292658
     16          1           0        2.316350    1.372965    0.000001
     17          1           0       -2.600793   -1.042504   -0.000055
     18          1           0       -1.216696    1.972090    0.000012
 ---------------------------------------------------------------------

 SCF Done:  E(RHF) =  -332.806003688     A.U. after    2 cycles

 The electronic state is 1-A.
 Alpha  occ. eigenvalues --  -20.55665 -20.54751 -11.22962 -11.22129 -11.22111
 Alpha  occ. eigenvalues --  -11.21935  -7.62765  -1.47733  -1.43298  -1.08341
 Alpha  occ. eigenvalues --   -0.93422  -0.92732  -0.79811  -0.74971  -0.71622
 Alpha  occ. eigenvalues --   -0.64605  -0.60615  -0.59521  -0.57749  -0.56748
 Alpha  occ. eigenvalues --   -0.55373  -0.53767  -0.53361  -0.52026  -0.48654
 Alpha  occ. eigenvalues --   -0.47027  -0.46890  -0.43172
 Alpha virt. eigenvalues --    0.03221   0.03736   0.04030   0.04289   0.06119
 Alpha virt. eigenvalues --    0.06380   0.06501   0.06735   0.06824   0.09398
 Alpha virt. eigenvalues --    0.09690   0.10069   0.10172   0.10993   0.12078

 Mulliken charges:
               1
     1  C   -1.786464
     2  B    2.132577
     3  O   -1.422889
     4  O   -1.511917
     5  C   -0.019015
     6  H    0.147602
     7  H    0.147597
     8  C    0.103292
     9  H    0.208422
    10  H    0.122346
    11  H    0.139291
    12  C    0.103289
    13  H    0.122352
    14  H    0.208424
    15  H    0.139284
    16  H    0.112414
    17  H    0.480618
    18  H    0.572780
 Sum of Mulliken charges =  -0.00000

 Dipole moment (field-independent basis, Debye):
    X=              0.3007    Y=              1.2495    Z=              0.0001  Tot=              1.2852

 Test job not archived.
 1\1\GINC-SE072\SP\RHF\Aug-CC-pVDZ\C4H11B1O2\OHZDE\09-Apr-2025\0\\#t hf
  aug-cc-pvdz iop(5/13=1,5/36=2,99/5=2) pseudo=read geom=check guess=(r
 ead,tcheck) scf=(maxcycle=1)\\title\\0,1\C,0,-0.617244,-0.002882,-0.00
 0009\B,0,0.976874,0.023765,-0.000024\O,0,1.645616,-1.167405,0.000037\O
 ,0,1.738718,1.165743,-0.000005\C,0,-1.221838,1.41487,-0.00001\H,0,-0.9
 25807,1.985616,-0.888083\H,0,-0.925792,1.985624,0.888052\C,0,-1.100578
 ,-0.761066,1.258493\H,0,-2.194114,-0.840642,1.262953\H,0,-0.803371,-0.
 247557,2.178999\H,0,-0.685993,-1.77098,1.292655\C,0,-1.100597,-0.76107

 Normal termination of Gaussian 16 at Wed Apr  9 00:25:30 2025.
