 Gaussian 16, Revision C.01,

 ----------------------------------------------------------------------
 #t hf aug-cc-pvdz symm=none int=(grid=ultrafine) guess=(read,tcheck) s
 table=opt
 ----------------------------------------------------------------------
 -----
 title
 -----
 Symbolic Z-matrix:
 Charge =  0 Multiplicity = 2

 SCF Done:  E(UHF) =  -496.829360471     A.U. after   17 cycles
 Normal termination of Gaussian 16 at Tue Apr  8 23:37:29 2025.
 Gaussian 16:  ES64L-G16RevC.01  3-Jul-2019

 ----------------------------------------------------------------------
 #t hf aug-cc-pvdz iop(5/13=1,5/36=2,99/5=2) pseudo=read geom=check gue
 ss=(read,tcheck) scf=(maxcycle=1)
 ----------------------------------------------------------------------
 -----
 title
 -----
 Structure from the checkpoint file:  "BDE49_nonexpt_1529_mol2.chk"
 Charge =  0 Multiplicity = 2

                         Standard orientation:
 ---------------------------------------------------------------------
 Center     Atomic      Atomic             Coordinates (Angstroms)
 Number     Number       Type             X           Y           Z
 ---------------------------------------------------------------------
      1          6           0        0.479536   -0.121183    0.000000
      2          6           0       -0.051014    0.873373    1.086455
      3          6           0       -0.051014    0.873373   -1.086455
      4          6           0       -0.092131    1.979700    0.000000
      5          1           0       -1.053253    0.599502   -1.424611
      6          1           0        0.583298    1.031860   -1.960213
      7          1           0       -0.952103    2.651909    0.000000
      8          1           0        0.820589    2.580031    0.000000
      9          1           0        0.583298    1.031860    1.960213
     10          1           0       -1.053253    0.599502    1.424611
     11         15           0       -0.051014   -1.893628    0.000000
     12          1           0        1.573772   -0.112550    0.000000
     13          1           0       -1.449396   -1.609275    0.000000
 ---------------------------------------------------------------------

 SCF Done:  E(UHF) =  -497.040956521     A.U. after    2 cycles

 The electronic state is 2-A".
 Alpha  occ. eigenvalues --  -84.27095 -11.24452 -11.23936 -11.23927 -11.23502
 Alpha  occ. eigenvalues --   -6.74292  -4.26854  -4.26461  -4.25871  -1.13772
 Alpha  occ. eigenvalues --   -0.93448  -0.90728  -0.81320  -0.75206  -0.66562
 Alpha  occ. eigenvalues --   -0.61969  -0.55515  -0.52388  -0.51980  -0.47387
 Alpha  occ. eigenvalues --   -0.45979  -0.45085  -0.36413  -0.31555
 Alpha virt. eigenvalues --    0.03759   0.03944   0.04363   0.04556   0.06502
 Alpha virt. eigenvalues --    0.06703   0.06782   0.07897   0.10515   0.10771
 Alpha virt. eigenvalues --    0.12201   0.12832   0.14196   0.14238   0.15336

  Beta  occ. eigenvalues --  -84.26425 -11.24650 -11.23802 -11.23792 -11.23506
  Beta  occ. eigenvalues --   -6.73442  -4.25956  -4.25463  -4.23572  -1.13469
  Beta  occ. eigenvalues --   -0.91978  -0.90347  -0.78184  -0.73802  -0.66448
  Beta  occ. eigenvalues --   -0.61463  -0.55416  -0.52074  -0.50897  -0.47015
  Beta  occ. eigenvalues --   -0.45521  -0.44598  -0.34674
  Beta virt. eigenvalues --    0.03089   0.03769   0.03957   0.04652   0.05854
  Beta virt. eigenvalues --    0.06555   0.06720   0.07233   0.07973   0.10876
  Beta virt. eigenvalues --    0.11691   0.12269   0.13224   0.14274   0.14943

 Mulliken charges and spin densities:
               1          2
     1  C   -0.109872  -0.145310
     2  C   -0.316506   0.041244
     3  C   -0.316506   0.041244
     4  C    0.084406  -0.003678
     5  H    0.046968  -0.009117
     6  H    0.031506   0.000066
     7  H    0.037424  -0.000994
     8  H    0.043519  -0.000068
     9  H    0.031506   0.000066
    10  H    0.046968  -0.009117
    11  P    0.279395   1.271167
    12  H    0.000600  -0.007974
    13  H    0.140593  -0.177531
 Sum of Mulliken charges =  -0.00000   1.00000

 Dipole moment (field-independent basis, Debye):
    X=              0.0347    Y=              1.2983    Z=             -0.0000  Tot=              1.2988
                          Isotropic Fermi Contact Couplings
        Atom                 a.u.       MegaHertz       Gauss      10(-4) cm-1
     1  C(13)             -0.03700     -41.58977     -14.84027     -13.87286
     2  C(13)              0.03118      35.04853      12.50619      11.69093
     3  C(13)              0.03118      35.04853      12.50619      11.69093
     4  C(13)             -0.00304      -3.41383      -1.21814      -1.13873
     5  H(1)              -0.00074      -3.29600      -1.17610      -1.09943
     6  H(1)              -0.00058      -2.59678      -0.92660      -0.86619
     7  H(1)              -0.00019      -0.82887      -0.29576      -0.27648
     8  H(1)               0.00001       0.03031       0.01081       0.01011

 Normal termination of Gaussian 16 at Tue Apr  8 23:37:33 2025.
