 Gaussian 16, Revision C.01,

 ----------------------------------------------------------------------
 #t hf aug-cc-pvdz symm=none int=(grid=ultrafine) guess=(read,tcheck) s
 table=(opt,rrhf)
 ----------------------------------------------------------------------
 -----
 title
 -----
 Symbolic Z-matrix:
 Charge =  0 Multiplicity = 1

 SCF Done:  E(RHF) =  -407.378238396     A.U. after   12 cycles
 Normal termination of Gaussian 16 at Wed Apr  9 00:41:00 2025.
 Gaussian 16:  ES64L-G16RevC.01  3-Jul-2019

 ----------------------------------------------------------------------
 #t hf aug-cc-pvdz iop(5/13=1,5/36=2,99/5=2) pseudo=read geom=check gue
 ss=(read,tcheck) scf=(maxcycle=1)
 ----------------------------------------------------------------------
 -----
 title
 -----
 Structure from the checkpoint file:  "BDE49_nonexpt_647_mol1.chk"
 Charge =  0 Multiplicity = 1

                         Standard orientation:
 ---------------------------------------------------------------------
 Center     Atomic      Atomic             Coordinates (Angstroms)
 Number     Number       Type             X           Y           Z
 ---------------------------------------------------------------------
      1          8           0        0.700278    0.494208    0.623621
      2          5           0        1.785789   -0.057214    0.008153
      3          8           0        2.915232    0.700576   -0.172417
      4          6           0       -0.502066   -0.256699    0.835833
      5          6           0       -1.517280   -0.047971   -0.291177
      6          6           0       -2.752638   -0.923388   -0.043754
      7          1           0       -2.488808   -1.982980    0.022008
      8          1           0       -3.478997   -0.810119   -0.852792
      9          1           0       -3.252808   -0.643212    0.889840
     10          6           0       -1.893728    1.429808   -0.446629
     11          1           0       -1.038363   -0.385887   -1.218698
     12          1           0       -2.407474    1.796551    0.449153
     13          1           0       -2.563804    1.576459   -1.298434
     14          1           0       -1.006445    2.046832   -0.600054
     15          1           0       -0.919338    0.092701    1.785981
     16          1           0       -0.261581   -1.318918    0.931769
     17          8           0        1.768142   -1.354507   -0.430323
     18          1           0        2.607192   -1.604862   -0.826614
     19          1           0        2.806538    1.586786    0.184386
 ---------------------------------------------------------------------

 SCF Done:  E(RHF) =  -407.801640601     A.U. after    2 cycles

 The electronic state is 1-A.
 Alpha  occ. eigenvalues --  -20.55382 -20.55194 -20.54153 -11.28336 -11.23365
 Alpha  occ. eigenvalues --  -11.22519 -11.21903  -7.66002  -1.49436  -1.44217
 Alpha  occ. eigenvalues --   -1.43828  -1.08229  -0.93216  -0.92659  -0.79210
 Alpha  occ. eigenvalues --   -0.76530  -0.73857  -0.68839  -0.65143  -0.63018
 Alpha  occ. eigenvalues --   -0.59304  -0.57977  -0.56370  -0.55918  -0.54591
 Alpha  occ. eigenvalues --   -0.53894  -0.51280  -0.50197  -0.49399  -0.47849
 Alpha  occ. eigenvalues --   -0.46588  -0.43632
 Alpha virt. eigenvalues --    0.03579   0.03777   0.04020   0.04042   0.05887
 Alpha virt. eigenvalues --    0.06186   0.06245   0.06705   0.07052   0.08809
 Alpha virt. eigenvalues --    0.09149   0.09419   0.09708   0.10776   0.12645

 Mulliken charges:
               1
     1  O   -1.375326
     2  B    2.041627
     3  O   -1.406904
     4  C    1.175014
     5  C   -1.625407
     6  C   -0.032560
     7  H    0.157789
     8  H    0.148798
     9  H    0.233857
    10  C   -0.020013
    11  H    0.140922
    12  H    0.224021
    13  H    0.157546
    14  H    0.172296
    15  H    0.071288
    16  H    0.156373
    17  O   -1.204438
    18  H    0.447213
    19  H    0.537904
 Sum of Mulliken charges =  -0.00000

 Dipole moment (field-independent basis, Debye):
    X=             -0.3378    Y=              0.0785    Z=              0.0200  Tot=              0.3473

 Test job not archived.
 1\1\GINC-SE219\SP\RHF\Aug-CC-pVDZ\C4H11B1O3\OHZDE\09-Apr-2025\0\\#t hf
  aug-cc-pvdz iop(5/13=1,5/36=2,99/5=2) pseudo=read geom=check guess=(r
 ead,tcheck) scf=(maxcycle=1)\\title\\0,1\O,0,0.700278,0.494208,0.62362
 1\B,0,1.785789,-0.057214,0.008153\O,0,2.915232,0.700576,-0.172417\C,0,
 -0.502066,-0.256699,0.835833\C,0,-1.51728,-0.047971,-0.291177\C,0,-2.7
 52638,-0.923388,-0.043754\H,0,-2.488808,-1.98298,0.022008\H,0,-3.47899
 7,-0.810119,-0.852792\H,0,-3.252808,-0.643212,0.88984\C,0,-1.893728,1.
 429808,-0.446629\H,0,-1.038363,-0.385887,-1.218698\H,0,-2.407474,1.796

 Normal termination of Gaussian 16 at Wed Apr  9 00:41:09 2025.
