 Gaussian 16, Revision C.01,

 ----------------------------------------------------------------------
 #t hf aug-cc-pvdz symm=none int=(grid=ultrafine) guess=(read,tcheck) s
 table=opt
 ----------------------------------------------------------------------
 -----
 title
 -----
 Symbolic Z-matrix:
 Charge =  0 Multiplicity = 2

 SCF Done:  E(UHF) =  -1420.50799640     A.U. after   27 cycles
 Normal termination of Gaussian 16 at Wed Apr  9 00:51:55 2025.
 Gaussian 16:  ES64L-G16RevC.01  3-Jul-2019

 ----------------------------------------------------------------------
 #t hf aug-cc-pvdz iop(5/13=1,5/36=2,99/5=2) pseudo=read geom=check gue
 ss=(read,tcheck) scf=(maxcycle=1)
 ----------------------------------------------------------------------
 -----
 title
 -----
 Structure from the checkpoint file:  "BDE49_nonexpt_924_mol2.chk"
 Charge =  0 Multiplicity = 2

                         Standard orientation:
 ---------------------------------------------------------------------
 Center     Atomic      Atomic             Coordinates (Angstroms)
 Number     Number       Type             X           Y           Z
 ---------------------------------------------------------------------
      1         17           0        2.659730   -0.985595   -0.069738
      2         17           0       -2.659729   -0.985596   -0.069738
      3          7           0       -0.000000    1.832424    0.446575
      4          7           0        1.170312   -0.153113    0.056561
      5          7           0       -1.170312   -0.153113    0.056560
      6          6           0       -1.208103    1.257578    0.046482
      7          6           0        1.208103    1.257578    0.046486
      8          6           0        0.000000   -0.945615    0.086128
      9          8           0       -2.182453    1.906844   -0.212640
     10          8           0        2.182452    1.906844   -0.212642
     11          8           0        0.000000   -2.137487    0.097611
 ---------------------------------------------------------------------

 SCF Done:  E(UHF) =  -1421.12963056     A.U. after    2 cycles

 The electronic state is 2-A.
 Alpha  occ. eigenvalues -- -105.65625-105.65624 -20.60764 -20.60761 -20.59171
 Alpha  occ. eigenvalues --  -15.65807 -15.65794 -15.64867 -11.48096 -11.46987
 Alpha  occ. eigenvalues --  -11.46980 -10.70019 -10.70016  -7.87035  -7.87024
 Alpha  occ. eigenvalues --   -7.86455  -7.86454  -7.86420  -7.86420  -1.57588
 Alpha  occ. eigenvalues --   -1.56146  -1.55637  -1.40616  -1.32985  -1.32389
 Alpha  occ. eigenvalues --   -1.11952  -1.09322  -0.99622  -0.97448  -0.90823
 Alpha  occ. eigenvalues --   -0.79773  -0.78657  -0.74514  -0.72663  -0.71905
 Alpha  occ. eigenvalues --   -0.70253  -0.69660  -0.68098  -0.64355  -0.58969
 Alpha  occ. eigenvalues --   -0.57945  -0.55340  -0.55222  -0.54478  -0.52969
 Alpha  occ. eigenvalues --   -0.52757  -0.50063  -0.48323  -0.47385
 Alpha virt. eigenvalues --    0.03058   0.04714   0.05464   0.08093   0.08300
 Alpha virt. eigenvalues --    0.08401   0.08847   0.09200   0.09470   0.09620
 Alpha virt. eigenvalues --    0.09824   0.10028   0.10873   0.13295   0.13542

  Beta  occ. eigenvalues -- -105.65616-105.65616 -20.59916 -20.59913 -20.59177
  Beta  occ. eigenvalues --  -15.65765 -15.65753 -15.61593 -11.48099 -11.47545
  Beta  occ. eigenvalues --  -11.47538 -10.70010 -10.70007  -7.87012  -7.87002
  Beta  occ. eigenvalues --   -7.86443  -7.86442  -7.86408  -7.86408  -1.56468
  Beta  occ. eigenvalues --   -1.54864  -1.54447  -1.38533  -1.32804  -1.25059
  Beta  occ. eigenvalues --   -1.11414  -1.09168  -0.98528  -0.96927  -0.89979
  Beta  occ. eigenvalues --   -0.78104  -0.76258  -0.73879  -0.71798  -0.71089
  Beta  occ. eigenvalues --   -0.70086  -0.67695  -0.65744  -0.57652  -0.56136
  Beta  occ. eigenvalues --   -0.54862  -0.54815  -0.53031  -0.52678  -0.52082
  Beta  occ. eigenvalues --   -0.49365  -0.47091  -0.46228
  Beta virt. eigenvalues --   -0.06246   0.03260   0.04784   0.05491   0.08039
  Beta virt. eigenvalues --    0.08294   0.08424   0.09417   0.09436   0.09599
  Beta virt. eigenvalues --    0.09947   0.09948   0.11320   0.11326   0.13376

 Mulliken charges and spin densities:
               1          2
     1  Cl   0.254476   0.003903
     2  Cl   0.254476   0.003903
     3  N    0.708323   1.074756
     4  N    0.540477   0.011562
     5  N    0.540479   0.011562
     6  C    0.337625  -0.260802
     7  C    0.337625  -0.260802
     8  C    0.225311   0.005752
     9  O   -1.041510   0.206365
    10  O   -1.041512   0.206366
    11  O   -1.115769  -0.002566
 Sum of Mulliken charges =  -0.00000   1.00000

 Dipole moment (field-independent basis, Debye):
    X=             -0.0000    Y=             -1.3194    Z=              0.1207  Tot=              1.3249
                          Isotropic Fermi Contact Couplings
        Atom                 a.u.       MegaHertz       Gauss      10(-4) cm-1
     1  Cl(35)             0.00053       0.23149       0.08260       0.07722
     2  Cl(35)             0.00053       0.23150       0.08260       0.07722
     3  N(14)              0.33584     108.51141      38.71957      36.19551
     4  N(14)              0.01061       3.42763       1.22306       1.14333
     5  N(14)              0.01061       3.42772       1.22310       1.14337
     6  C(13)             -0.06944     -78.06105     -27.85412     -26.03836
     7  C(13)             -0.06944     -78.06109     -27.85414     -26.03838
     8  C(13)             -0.00068      -0.76507      -0.27300      -0.25520

 Normal termination of Gaussian 16 at Wed Apr  9 00:52:06 2025.
