 Gaussian 16, Revision C.01,

 ----------------------------------------------------------------------
 #t hf aug-cc-pvdz symm=none int=(grid=ultrafine) guess=(read,tcheck) s
 table=(opt,rrhf)
 ----------------------------------------------------------------------
 -----
 title
 -----
 Symbolic Z-matrix:
 Charge =  0 Multiplicity = 1

 SCF Done:  E(RHF) =  -275.776077028     A.U. after   12 cycles
 Normal termination of Gaussian 16 at Tue Apr  8 22:41:25 2025.
 Gaussian 16:  ES64L-G16RevC.01  3-Jul-2019

 ----------------------------------------------------------------------
 #t hf aug-cc-pvdz iop(5/13=1,5/36=2,99/5=2) pseudo=read geom=check gue
 ss=(read,tcheck) scf=(maxcycle=1)
 ----------------------------------------------------------------------
 -----
 title
 -----
 Structure from the checkpoint file:  "BDE49_expt_137_mol1.chk"
 Charge =  0 Multiplicity = 1

                         Standard orientation:
 ---------------------------------------------------------------------
 Center     Atomic      Atomic             Coordinates (Angstroms)
 Number     Number       Type             X           Y           Z
 ---------------------------------------------------------------------
      1          6           0       -0.000006   -1.383809   -0.000000
      2          6           0        0.000034   -0.066044   -0.000000
      3          9           0       -0.000006    0.696615    1.082567
      4          1           0       -0.000036   -1.919971   -0.936036
      5          1           0       -0.000036   -1.919971    0.936036
      6          9           0       -0.000006    0.696615   -1.082567
 ---------------------------------------------------------------------

 SCF Done:  E(RHF) =  -276.036141092     A.U. after    2 cycles

 The electronic state is 1-A'.
 Alpha  occ. eigenvalues --  -26.51352 -26.51351 -11.44011 -11.25719  -1.68662
 Alpha  occ. eigenvalues --   -1.61658  -1.07304  -0.87486  -0.79117  -0.74482
 Alpha  occ. eigenvalues --   -0.74474  -0.66324  -0.64265  -0.63389  -0.60204
 Alpha  occ. eigenvalues --   -0.39926
 Alpha virt. eigenvalues --    0.03798   0.04988   0.07457   0.10054   0.11597
 Alpha virt. eigenvalues --    0.11701   0.12135   0.15604   0.17780   0.19565
 Alpha virt. eigenvalues --    0.21330   0.24579   0.26908   0.28406   0.28839

 Mulliken charges:
               1
     1  C   -0.228378
     2  C    1.698774
     3  F   -0.703038
     4  H   -0.032160
     5  H   -0.032160
     6  F   -0.703038
 Sum of Mulliken charges =  -0.00000

 Dipole moment (field-independent basis, Debye):
    X=             -0.0000    Y=             -1.3946    Z=             -0.0000  Tot=              1.3946

 Test job not archived.
 1\1\GINC-SE103\SP\RHF\Aug-CC-pVDZ\C2H2F2\OHZDE\08-Apr-2025\0\\#t hf au
 g-cc-pvdz iop(5/13=1,5/36=2,99/5=2) pseudo=read geom=check guess=(read
 ,tcheck) scf=(maxcycle=1)\\title\\0,1\C,0,-0.000006,-1.383809,0.\C,0,0
 .000034,-0.066044,0.\F,0,-0.000006,0.696615,1.082567\H,0,-0.000036,-1.
 919971,-0.936036\H,0,-0.000036,-1.919971,0.936036\F,0,-0.000006,0.6966
 15,-1.082567\\Version=ES64L-G16RevC.01\State=1-A'\HF=-276.0361411\RMSD
 =9.587e-03\Dipole=-0.0000092,-0.5486762,0.\Quadrupole=-0.7783505,1.131
 5354,-0.3531849,0.0001686,0.,0.\PG=CS [SG(C2),X(H2F2)]\\@

 Normal termination of Gaussian 16 at Tue Apr  8 22:41:27 2025.
