 Gaussian 16, Revision C.01,

 ----------------------------------------------------------------------
 #t hf aug-cc-pvdz symm=none int=(grid=ultrafine) guess=(read,tcheck) s
 table=opt
 ----------------------------------------------------------------------
 -----
 title
 -----
 Symbolic Z-matrix:
 Charge =  0 Multiplicity = 2

 SCF Done:  E(UHF) =  -951.728040486     A.U. after   17 cycles
 Normal termination of Gaussian 16 at Wed Apr  9 00:12:51 2025.
 Gaussian 16:  ES64L-G16RevC.01  3-Jul-2019

 ----------------------------------------------------------------------
 #t hf aug-cc-pvdz iop(5/13=1,5/36=2,99/5=2) pseudo=read geom=check gue
 ss=(read,tcheck) scf=(maxcycle=1)
 ----------------------------------------------------------------------
 -----
 title
 -----
 Structure from the checkpoint file:  "BDE49_nonexpt_2424_mol2.chk"
 Charge =  0 Multiplicity = 2

                         Standard orientation:
 ---------------------------------------------------------------------
 Center     Atomic      Atomic             Coordinates (Angstroms)
 Number     Number       Type             X           Y           Z
 ---------------------------------------------------------------------
      1         14           0        1.968775   -0.650507   -0.128465
      2         16           0        0.007898    0.411969    0.033119
      3          1           0        2.971116    0.435695   -0.030356
      4          1           0        2.054672   -1.607597    0.999245
      5          8           0       -0.241757    0.856517    1.391351
      6          8           0       -0.919909   -0.908555   -0.252635
      7          8           0       -0.157938    1.350486   -1.055364
      8          6           0       -2.347550   -0.750277   -0.054739
      9          1           0       -2.770016   -1.735428   -0.239459
     10          1           0       -2.749355   -0.028735   -0.767881
     11          1           0       -2.553498   -0.434262    0.968666
 ---------------------------------------------------------------------

 SCF Done:  E(UHF) =  -952.081691534     A.U. after    2 cycles

 The electronic state is 2-A.
 Alpha  occ. eigenvalues --  -94.21468 -69.60403 -20.60508 -20.54766 -20.54615
 Alpha  occ. eigenvalues --  -11.31197  -8.46513  -6.44558  -6.44457  -6.44276
 Alpha  occ. eigenvalues --   -6.27412  -4.03288  -4.02451  -4.02333  -1.59363
 Alpha  occ. eigenvalues --   -1.47767  -1.44528  -1.00802  -0.89193  -0.79380
 Alpha  occ. eigenvalues --   -0.71910  -0.68832  -0.68580  -0.63663  -0.61819
 Alpha  occ. eigenvalues --   -0.57773  -0.54634  -0.51920  -0.49924  -0.49343
 Alpha  occ. eigenvalues --   -0.45801  -0.45036  -0.38927
 Alpha virt. eigenvalues --    0.02810   0.03701   0.05215   0.05486   0.05859
 Alpha virt. eigenvalues --    0.06751   0.07075   0.08454   0.09856   0.11835
 Alpha virt. eigenvalues --    0.12780   0.13132   0.14243   0.14850   0.15242

  Beta  occ. eigenvalues --  -94.21458 -69.59790 -20.60512 -20.54622 -20.54559
  Beta  occ. eigenvalues --  -11.31203  -8.46498  -6.44565  -6.44461  -6.44227
  Beta  occ. eigenvalues --   -6.26460  -4.02029  -4.01922  -4.01035  -1.59247
  Beta  occ. eigenvalues --   -1.47712  -1.44246  -1.00601  -0.88385  -0.77231
  Beta  occ. eigenvalues --   -0.71337  -0.68733  -0.67049  -0.63450  -0.61398
  Beta  occ. eigenvalues --   -0.57731  -0.53483  -0.51654  -0.49601  -0.48692
  Beta  occ. eigenvalues --   -0.45322  -0.43733
  Beta virt. eigenvalues --   -0.01308   0.03162   0.03774   0.05298   0.05980
  Beta virt. eigenvalues --    0.06356   0.06868   0.07577   0.08982   0.10819
  Beta virt. eigenvalues --    0.12067   0.13446   0.13731   0.14574   0.15350

 Mulliken charges and spin densities:
               1          2
     1  Si   0.860024   0.923710
     2  S    3.041090   0.002298
     3  H   -0.160247   0.032948
     4  H   -0.124030   0.044259
     5  O   -1.420030   0.028655
     6  O   -1.361354  -0.026506
     7  O   -1.417835  -0.002398
     8  C    0.209773  -0.003586
     9  H    0.021185   0.000332
    10  H    0.166300   0.000091
    11  H    0.185122   0.000196
 Sum of Mulliken charges =  -0.00000   1.00000

 Dipole moment (field-independent basis, Debye):
    X=              0.9991    Y=             -3.5632    Z=             -0.3262  Tot=              3.7149
                          Isotropic Fermi Contact Couplings
        Atom                 a.u.       MegaHertz       Gauss      10(-4) cm-1
     1  Si(29)             0.72101    -640.78251    -228.64713    -213.74204
     2  S(33)              0.02683       9.21708       3.28888       3.07449
     3  H(1)               0.00682      30.48443      10.87760      10.16851
     4  H(1)               0.00996      44.50273      15.87968      14.84451
     5  O(17)              0.01990     -12.06087      -4.30362      -4.02307
     6  O(17)             -0.00647       3.92210       1.39950       1.30827
     7  O(17)             -0.00137       0.83014       0.29622       0.27691
     8  C(13)             -0.00063      -0.71331      -0.25453      -0.23794

 1\1\GINC-SE404\SP\UHF\Aug-CC-pVDZ\C1H5O3S1Si1(2)\OHZDE\09-Apr-2025\0\\
 #t hf aug-cc-pvdz iop(5/13=1,5/36=2,99/5=2) pseudo=read geom=check gue
 ss=(read,tcheck) scf=(maxcycle=1)\\title\\0,2\Si,0,1.968775,-0.650507,
 -0.128465\S,0,0.007898,0.411969,0.033119\H,0,2.971116,0.435695,-0.0303
 56\H,0,2.054672,-1.607597,0.999245\O,0,-0.241757,0.856517,1.391351\O,0
 ,-0.919909,-0.908555,-0.252635\O,0,-0.157938,1.350486,-1.055364\C,0,-2
 .34755,-0.750277,-0.054739\H,0,-2.770016,-1.735428,-0.239459\H,0,-2.74
 9355,-0.028735,-0.767881\H,0,-2.553498,-0.434262,0.968666\\Version=ES6

 Normal termination of Gaussian 16 at Wed Apr  9 00:12:56 2025.
