 Gaussian 16, Revision C.01,

 ----------------------------------------------------------------------
 #t hf aug-cc-pvdz symm=none int=(grid=ultrafine) guess=(read,tcheck) s
 table=(opt,rrhf)
 ----------------------------------------------------------------------
 -----
 title
 -----
 Symbolic Z-matrix:
 Charge =  0 Multiplicity = 1

 SCF Done:  E(RHF) =  -793.886213721     A.U. after   14 cycles
 Normal termination of Gaussian 16 at Tue Apr  8 23:39:33 2025.
 Gaussian 16:  ES64L-G16RevC.01  3-Jul-2019

 ----------------------------------------------------------------------
 #t hf aug-cc-pvdz iop(5/13=1,5/36=2,99/5=2) pseudo=read geom=check gue
 ss=(read,tcheck) scf=(maxcycle=1)
 ----------------------------------------------------------------------
 -----
 title
 -----
 Structure from the checkpoint file:  "BDE49_nonexpt_1606_mol1.chk"
 Charge =  0 Multiplicity = 1

                         Standard orientation:
 ---------------------------------------------------------------------
 Center     Atomic      Atomic             Coordinates (Angstroms)
 Number     Number       Type             X           Y           Z
 ---------------------------------------------------------------------
      1          6           0        2.833997   -0.813688   -0.031415
      2          6           0        1.622019    0.067351   -0.014205
      3          1           0        2.806353   -1.464594   -0.907424
      4          1           0        2.823029   -1.455044    0.853183
      5          1           0        3.732120   -0.200554   -0.037595
      6          8           0        0.474315   -0.661101   -0.111810
      7          8           0        1.631449    1.272677    0.072797
      8         15           0       -1.047822   -0.032921    0.115608
      9          8           0       -1.486929   -0.167990    1.498765
     10          8           0       -1.871046   -0.857690   -0.957338
     11          1           0       -2.470892   -1.484181   -0.535522
     12          8           0       -0.971781    1.384500   -0.562935
     13          1           0       -0.117434    1.813044   -0.348869
 ---------------------------------------------------------------------

 SCF Done:  E(RHF) =  -794.377047110     A.U. after    2 cycles

 The electronic state is 1-A.
 Alpha  occ. eigenvalues --  -84.47816 -20.62252 -20.61115 -20.59731 -20.57886
 Alpha  occ. eigenvalues --  -20.51848 -11.43971 -11.27833  -6.92607  -4.46775
 Alpha  occ. eigenvalues --   -4.46170  -4.45960  -1.59839  -1.54242  -1.49192
 Alpha  occ. eigenvalues --   -1.48634  -1.40472  -1.06130  -0.91099  -0.83095
 Alpha  occ. eigenvalues --   -0.74437  -0.73205  -0.72615  -0.69037  -0.67326
 Alpha  occ. eigenvalues --   -0.64932  -0.60915  -0.60489  -0.59088  -0.57027
 Alpha  occ. eigenvalues --   -0.56290  -0.53788  -0.52046  -0.48524  -0.47203
 Alpha  occ. eigenvalues --   -0.46801
 Alpha virt. eigenvalues --    0.02986   0.04149   0.05077   0.05222   0.06347
 Alpha virt. eigenvalues --    0.08397   0.09884   0.10392   0.11759   0.12482
 Alpha virt. eigenvalues --    0.13419   0.13748   0.14408   0.15196   0.16116

 Mulliken charges:
               1
     1  C   -0.638959
     2  C    1.839035
     3  H    0.239710
     4  H    0.265705
     5  H    0.183818
     6  O   -1.824135
     7  O   -1.192776
     8  P    4.189582
     9  O   -1.349072
    10  O   -1.220500
    11  H    0.374235
    12  O   -1.406219
    13  H    0.539576
 Sum of Mulliken charges =  -0.00000

 Dipole moment (field-independent basis, Debye):
    X=              2.5223    Y=             -2.4780    Z=             -1.9012  Tot=              4.0147

 Test job not archived.
 1\1\GINC-SE362\SP\RHF\Aug-CC-pVDZ\C2H5O5P1\OHZDE\08-Apr-2025\0\\#t hf
 aug-cc-pvdz iop(5/13=1,5/36=2,99/5=2) pseudo=read geom=check guess=(re
 ad,tcheck) scf=(maxcycle=1)\\title\\0,1\C,0,2.833997,-0.813688,-0.0314
 15\C,0,1.622019,0.067351,-0.014205\H,0,2.806353,-1.464594,-0.907424\H,
 0,2.823029,-1.455044,0.853183\H,0,3.73212,-0.200554,-0.037595\O,0,0.47
 4315,-0.661101,-0.11181\O,0,1.631449,1.272677,0.072797\P,0,-1.047822,-
 0.032921,0.115608\O,0,-1.486929,-0.16799,1.498765\O,0,-1.871046,-0.857
 69,-0.957338\H,0,-2.470892,-1.484181,-0.535522\O,0,-0.971781,1.3845,-0

 Normal termination of Gaussian 16 at Tue Apr  8 23:39:38 2025.
