 Gaussian 16, Revision C.01,

 ----------------------------------------------------------------------
 #t hf aug-cc-pvdz symm=none int=(grid=ultrafine) guess=(read,tcheck) s
 table=(opt,rrhf)
 ----------------------------------------------------------------------
 -----
 title
 -----
 Symbolic Z-matrix:
 Charge =  0 Multiplicity = 1

 SCF Done:  E(RHF) =  -442.670013558     A.U. after   12 cycles
 Normal termination of Gaussian 16 at Wed Apr  9 00:43:50 2025.
 Gaussian 16:  ES64L-G16RevC.01  3-Jul-2019

 ----------------------------------------------------------------------
 #t hf aug-cc-pvdz iop(5/13=1,5/36=2,99/5=2) pseudo=read geom=check gue
 ss=(read,tcheck) scf=(maxcycle=1)
 ----------------------------------------------------------------------
 -----
 title
 -----
 Structure from the checkpoint file:  "BDE49_nonexpt_752_mol1.chk"
 Charge =  0 Multiplicity = 1

                         Standard orientation:
 ---------------------------------------------------------------------
 Center     Atomic      Atomic             Coordinates (Angstroms)
 Number     Number       Type             X           Y           Z
 ---------------------------------------------------------------------
      1         15           0        1.148616   -0.080163   -0.117186
      2          5           0       -0.668831    0.572949    0.018852
      3          8           0       -1.768522   -0.214082    0.006674
      4          1           0       -0.859515    1.750540    0.009703
      5          1           0       -1.587787   -1.159662    0.023699
      6          1           0        1.019952   -1.260777    0.660582
      7          1           0        1.690445    0.720253    0.916151
 ---------------------------------------------------------------------

 SCF Done:  E(RHF) =  -442.817473608     A.U. after    2 cycles

 The electronic state is 1-A.
 Alpha  occ. eigenvalues --  -84.26196 -20.57856  -7.63969  -6.73611  -4.26026
 Alpha  occ. eigenvalues --   -4.25960  -4.25266  -1.47826  -0.87650  -0.77705
 Alpha  occ. eigenvalues --   -0.62153  -0.58832  -0.54899  -0.50533  -0.43661
 Alpha  occ. eigenvalues --   -0.34663
 Alpha virt. eigenvalues --    0.03420   0.04305   0.05159   0.05404   0.07532
 Alpha virt. eigenvalues --    0.07952   0.09738   0.09836   0.10843   0.12904
 Alpha virt. eigenvalues --    0.13588   0.14428   0.18101   0.18732   0.20806

 Mulliken charges:
               1
     1  P   -1.089011
     2  B    0.814853
     3  O   -1.046494
     4  H    0.089706
     5  H    0.603820
     6  H    0.306082
     7  H    0.321045
 Sum of Mulliken charges =  -0.00000

 Dipole moment (field-independent basis, Debye):
    X=              0.3612    Y=             -1.2333    Z=              0.4455  Tot=              1.3602

 Test job not archived.
 1\1\GINC-SE342\SP\RHF\Aug-CC-pVDZ\B1H4O1P1\OHZDE\09-Apr-2025\0\\#t hf
 aug-cc-pvdz iop(5/13=1,5/36=2,99/5=2) pseudo=read geom=check guess=(re
 ad,tcheck) scf=(maxcycle=1)\\title\\0,1\P,0,1.148616,-0.080163,-0.1171
 86\B,0,-0.668831,0.572949,0.018852\O,0,-1.768522,-0.214082,0.006674\H,
 0,-0.859514,1.75054,0.009703\H,0,-1.587787,-1.159662,0.023699\H,0,1.01
 9952,-1.260777,0.660582\H,0,1.690445,0.720253,0.916151\\Version=ES64L-
 G16RevC.01\State=1-A\HF=-442.8174736\RMSD=2.800e-02\Dipole=0.1421211,-
 0.4852355,0.175258\Quadrupole=-2.5133709,2.5511916,-0.0378207,1.889066

 Normal termination of Gaussian 16 at Wed Apr  9 00:43:51 2025.
