 Gaussian 16, Revision C.01,

 ----------------------------------------------------------------------
 #t hf aug-cc-pvdz symm=none int=(grid=ultrafine) guess=(read,tcheck) s
 table=(opt,rrhf)
 ----------------------------------------------------------------------
 -----
 title
 -----
 Symbolic Z-matrix:
 Charge =  0 Multiplicity = 1

 SCF Done:  E(RHF) =  -728.692970637     A.U. after   15 cycles

 1\1\GINC-SE250\Stability\RHF\Aug-CC-pVDZ\C7H7Cl1\OHZDE\08-Apr-2025\0\\
 #t hf aug-cc-pvdz symm=none int=(grid=ultrafine) guess=(read,tcheck) s
 table=(opt,rrhf)\\title\\0,1\C,0,-0.021557,0.000003,0.445629\C,0,0.657
 738,-1.204991,0.241653\C,0,1.991024,-1.205924,-0.157203\C,0,2.660366,-
 0.000004,-0.357192\C,0,1.991028,1.205921,-0.157208\C,0,0.657742,1.2049
 94,0.241648\H,0,0.137366,2.144925,0.392912\H,0,3.699409,-0.000006,-0.6
 66422\H,0,2.508044,2.146395,-0.310255\H,0,0.137358,-2.144919,0.392921\
 H,0,2.508036,-2.146401,-0.310246\C,0,-1.452931,0.000007,0.882066\Cl,0,

 Normal termination of Gaussian 16 at Tue Apr  8 22:32:01 2025.
 Gaussian 16:  ES64L-G16RevC.01  3-Jul-2019

 ----------------------------------------------------------------------
 #t hf aug-cc-pvdz iop(5/13=1,5/36=2,99/5=2) pseudo=read geom=check gue
 ss=(read,tcheck) scf=(maxcycle=1)
 ----------------------------------------------------------------------
 -----
 title
 -----
 Structure from the checkpoint file:  "BDE49_expt_1040_mol1.chk"
 Charge =  0 Multiplicity = 1

                         Standard orientation:
 ---------------------------------------------------------------------
 Center     Atomic      Atomic             Coordinates (Angstroms)
 Number     Number       Type             X           Y           Z
 ---------------------------------------------------------------------
      1          6           0       -0.021557    0.000003    0.445629
      2          6           0        0.657738   -1.204991    0.241653
      3          6           0        1.991024   -1.205924   -0.157203
      4          6           0        2.660366   -0.000004   -0.357192
      5          6           0        1.991028    1.205921   -0.157208
      6          6           0        0.657742    1.204994    0.241648
      7          1           0        0.137366    2.144925    0.392912
      8          1           0        3.699409   -0.000006   -0.666422
      9          1           0        2.508044    2.146395   -0.310255
     10          1           0        0.137358   -2.144919    0.392921
     11          1           0        2.508036   -2.146401   -0.310246
     12          6           0       -1.452931    0.000007    0.882066
     13         17           0       -2.616087   -0.000003   -0.543622
     14          1           0       -1.708596    0.889513    1.453145
     15          1           0       -1.708597   -0.889491    1.453158
 ---------------------------------------------------------------------

 SCF Done:  E(RHF) =  -729.049616624     A.U. after    2 cycles

 The electronic state is 1-A.
 Alpha  occ. eigenvalues -- -105.55138 -11.31344 -11.26113 -11.25352 -11.25339
 Alpha  occ. eigenvalues --  -11.25277 -11.25169 -11.25168 -10.59903  -7.76835
 Alpha  occ. eigenvalues --   -7.76469  -7.76463  -1.17329  -1.10103  -1.02745
 Alpha  occ. eigenvalues --   -1.02139  -0.91333  -0.84829  -0.81736  -0.72079
 Alpha  occ. eigenvalues --   -0.67498  -0.65894  -0.61185  -0.61036  -0.59795
 Alpha  occ. eigenvalues --   -0.56987  -0.52402  -0.51340  -0.50792  -0.44383
 Alpha  occ. eigenvalues --   -0.44165  -0.35545  -0.35003
 Alpha virt. eigenvalues --    0.03285   0.03506   0.03641   0.04908   0.05130
 Alpha virt. eigenvalues --    0.07274   0.07984   0.08317   0.08827   0.09790
 Alpha virt. eigenvalues --    0.10985   0.11911   0.12786   0.13773   0.14203

 Mulliken charges:
               1
     1  C    1.641969
     2  C   -0.055201
     3  C    0.272058
     4  C   -0.074684
     5  C    0.272047
     6  C   -0.055197
     7  H   -0.269009
     8  H   -0.209276
     9  H   -0.223108
    10  H   -0.269009
    11  H   -0.223107
    12  C   -0.875809
    13  Cl  -0.090522
    14  H    0.079423
    15  H    0.079426
 Sum of Mulliken charges =  -0.00000

 Dipole moment (field-independent basis, Debye):
    X=              1.9344    Y=              0.0000    Z=              1.5370  Tot=              2.4707

 Test job not archived.
 1\1\GINC-SE250\SP\RHF\Aug-CC-pVDZ\C7H7Cl1\OHZDE\08-Apr-2025\0\\#t hf a
 ug-cc-pvdz iop(5/13=1,5/36=2,99/5=2) pseudo=read geom=check guess=(rea
 d,tcheck) scf=(maxcycle=1)\\title\\0,1\C,0,-0.021557,0.000003,0.445629
 \C,0,0.657738,-1.204991,0.241653\C,0,1.991024,-1.205924,-0.157203\C,0,
 2.660366,-0.000004,-0.357192\C,0,1.991028,1.205921,-0.157208\C,0,0.657
 742,1.204994,0.241648\H,0,0.137366,2.144925,0.392912\H,0,3.699409,-0.0
 00006,-0.666422\H,0,2.508044,2.146395,-0.310255\H,0,0.137358,-2.144919
 ,0.392921\H,0,2.508036,-2.146401,-0.310246\C,0,-1.452931,0.000007,0.88

 Normal termination of Gaussian 16 at Tue Apr  8 22:32:07 2025.
