 Gaussian 16, Revision C.01,

 ----------------------------------------------------------------------
 #t hf aug-cc-pvdz symm=none int=(grid=ultrafine) guess=(read,tcheck) s
 table=(opt,rrhf)
 ----------------------------------------------------------------------
 -----
 title
 -----
 Symbolic Z-matrix:
 Charge =  0 Multiplicity = 1

 SCF Done:  E(RHF) =  -573.912388504     A.U. after   14 cycles
 Normal termination of Gaussian 16 at Tue Apr  8 22:57:35 2025.
 Gaussian 16:  ES64L-G16RevC.01  3-Jul-2019

 ----------------------------------------------------------------------
 #t hf aug-cc-pvdz iop(5/13=1,5/36=2,99/5=2) pseudo=read geom=check gue
 ss=(read,tcheck) scf=(maxcycle=1)
 ----------------------------------------------------------------------
 -----
 title
 -----
 Structure from the checkpoint file:  "BDE49_expt_1924_mol1.chk"
 Charge =  0 Multiplicity = 1

                         Standard orientation:
 ---------------------------------------------------------------------
 Center     Atomic      Atomic             Coordinates (Angstroms)
 Number     Number       Type             X           Y           Z
 ---------------------------------------------------------------------
      1          8           0        0.000000    0.817052    0.000000
      2         17           0        0.812002   -0.719803    0.000000
      3          6           0       -1.415234    0.636498    0.000000
      4          1           0       -1.802249    1.658591    0.000000
      5          1           0       -1.755189    0.111333    0.897064
      6          1           0       -1.755189    0.111333   -0.897064
 ---------------------------------------------------------------------

 SCF Done:  E(RHF) =  -574.103859512     A.U. after    2 cycles

 The electronic state is 1-A'.
 Alpha  occ. eigenvalues -- -105.61577 -20.62910 -11.30816 -10.65839  -7.82811
 Alpha  occ. eigenvalues --   -7.82290  -7.82265  -1.48049  -1.04088  -0.92689
 Alpha  occ. eigenvalues --   -0.66976  -0.66236  -0.64674  -0.53368  -0.52472
 Alpha  occ. eigenvalues --   -0.46979  -0.43589
 Alpha virt. eigenvalues --    0.03607   0.05435   0.05643   0.06841   0.08322
 Alpha virt. eigenvalues --    0.14349   0.14481   0.15083   0.15966   0.16429
 Alpha virt. eigenvalues --    0.18227   0.22023   0.25795   0.26629   0.27178

 Mulliken charges:
               1
     1  O   -1.025138
     2  Cl   0.324176
     3  C    0.337969
     4  H    0.063468
     5  H    0.149763
     6  H    0.149763
 Sum of Mulliken charges =   0.00000

 Dipole moment (field-independent basis, Debye):
    X=             -2.0216    Y=              0.1083    Z=             -0.0000  Tot=              2.0245

 Test job not archived.
 1\1\GINC-SE340\SP\RHF\Aug-CC-pVDZ\C1H3Cl1O1\OHZDE\08-Apr-2025\0\\#t hf
  aug-cc-pvdz iop(5/13=1,5/36=2,99/5=2) pseudo=read geom=check guess=(r
 ead,tcheck) scf=(maxcycle=1)\\title\\0,1\O,0,0.,0.817052,0.\Cl,0,0.812
 002,-0.719803,0.\C,0,-1.415234,0.636498,0.\H,0,-1.802249,1.658591,0.\H
 ,0,-1.755189,0.111333,0.897064\H,0,-1.755189,0.111333,-0.897064\\Versi
 on=ES64L-G16RevC.01\State=1-A'\HF=-574.1038595\RMSD=6.288e-03\Dipole=-
 0.7953503,0.0426084,0.\Quadrupole=1.2247369,-0.2978277,-0.9269093,-1.5
 306443,0.,0.\PG=CS [SG(C1H1Cl1O1),X(H2)]\\@

 Normal termination of Gaussian 16 at Tue Apr  8 22:57:36 2025.
