 Gaussian 16, Revision C.01,

 ----------------------------------------------------------------------
 #t hf aug-cc-pvdz symm=none int=(grid=ultrafine) guess=(read,tcheck) s
 table=(opt,rrhf)
 ----------------------------------------------------------------------
 -----
 title
 -----
 Symbolic Z-matrix:
 Charge =  0 Multiplicity = 1

 SCF Done:  E(RHF) =  -899.884272479     A.U. after   14 cycles
 Normal termination of Gaussian 16 at Tue Apr  8 23:15:26 2025.
 Gaussian 16:  ES64L-G16RevC.01  3-Jul-2019

 ----------------------------------------------------------------------
 #t hf aug-cc-pvdz iop(5/13=1,5/36=2,99/5=2) pseudo=read geom=check gue
 ss=(read,tcheck) scf=(maxcycle=1)
 ----------------------------------------------------------------------
 -----
 title
 -----
 Structure from the checkpoint file:  "BDE49_expt_694_mol1.chk"
 Charge =  0 Multiplicity = 1

                         Standard orientation:
 ---------------------------------------------------------------------
 Center     Atomic      Atomic             Coordinates (Angstroms)
 Number     Number       Type             X           Y           Z
 ---------------------------------------------------------------------
      1          6           0       -1.392194   -0.699199   -0.045246
      2          6           0       -0.079838   -1.447411    0.027117
      3          6           0        0.944126   -0.605412    0.001755
      4          6           0        0.534416    0.851312   -0.094923
      5          7           0       -0.901455    0.650228   -0.459595
      6          6           0       -2.327735   -1.234541   -1.139204
      7          1           0       -1.805436   -1.269854   -2.096112
      8          1           0       -3.187624   -0.568454   -1.243353
      9          1           0       -2.693046   -2.236342   -0.893549
     10          6           0       -2.114861   -0.729725    1.319983
     11          1           0       -1.486138   -0.348953    2.128200
     12          1           0       -2.382112   -1.758567    1.572793
     13          1           0       -3.040074   -0.149112    1.281574
     14          6           0        0.767384    1.581336    1.244835
     15          1           0        0.273275    1.079626    2.080154
     16          1           0        0.411131    2.612162    1.184108
     17          1           0        1.836103    1.611106    1.466375
     18          6           0        1.223657    1.614701   -1.233312
     19          1           0        1.125019    1.065100   -2.170204
     20          1           0        2.283583    1.776183   -1.022596
     21          1           0        0.738002    2.585734   -1.353070
     22          8           0       -1.746220    1.717914   -0.093195
     23          1           0       -1.764390    1.765644    0.876471
     24         17           0        2.627062   -1.054148    0.092180
     25          1           0       -0.018116   -2.525024    0.098840
 ---------------------------------------------------------------------

 SCF Done:  E(RHF) =  -900.423012909     A.U. after    2 cycles

 The electronic state is 1-A.
 Alpha  occ. eigenvalues -- -105.57702 -20.58088 -15.54450 -11.30388 -11.29065
 Alpha  occ. eigenvalues --  -11.28718 -11.25160 -11.23881 -11.23733 -11.22569
 Alpha  occ. eigenvalues --  -11.22322 -10.62472  -7.79446  -7.79048  -7.79036
 Alpha  occ. eigenvalues --   -1.48642  -1.22239  -1.11435  -1.08240  -1.00456
 Alpha  occ. eigenvalues --   -0.99758  -0.94692  -0.94536  -0.84947  -0.79160
 Alpha  occ. eigenvalues --   -0.76052  -0.71170  -0.66398  -0.64304  -0.63390
 Alpha  occ. eigenvalues --   -0.62265  -0.60085  -0.58355  -0.57658  -0.56610
 Alpha  occ. eigenvalues --   -0.55325  -0.54616  -0.54085  -0.53080  -0.51818
 Alpha  occ. eigenvalues --   -0.50675  -0.50017  -0.48932  -0.46402  -0.45545
 Alpha  occ. eigenvalues --   -0.41251  -0.36300
 Alpha virt. eigenvalues --    0.03384   0.03581   0.04108   0.04293   0.04891
 Alpha virt. eigenvalues --    0.05026   0.05393   0.06160   0.06701   0.08561
 Alpha virt. eigenvalues --    0.08847   0.09150   0.09699   0.10280   0.11211

 Mulliken charges:
               1
     1  C   -2.674627
     2  C    0.790672
     3  C    0.462903
     4  C   -2.454334
     5  N    2.809208
     6  C    0.091810
     7  H    0.216910
     8  H    0.214448
     9  H    0.241771
    10  C    0.136686
    11  H    0.121801
    12  H    0.157265
    13  H    0.294862
    14  C    0.078774
    15  H    0.121420
    16  H    0.279930
    17  H    0.174960
    18  C   -0.146748
    19  H    0.226442
    20  H    0.242367
    21  H    0.224056
    22  O   -1.671206
    23  H    0.423373
    24  Cl  -0.207929
    25  H   -0.154817
 Sum of Mulliken charges =  -0.00000

 Dipole moment (field-independent basis, Debye):
    X=             -0.8270    Y=             -0.5776    Z=              2.0529  Tot=              2.2873

 Test job not archived.
 1\1\GINC-SE109\SP\RHF\Aug-CC-pVDZ\C8H14Cl1N1O1\OHZDE\08-Apr-2025\0\\#t
  hf aug-cc-pvdz iop(5/13=1,5/36=2,99/5=2) pseudo=read geom=check guess
 =(read,tcheck) scf=(maxcycle=1)\\title\\0,1\C,0,-1.392194,-0.699199,-0
 .045246\C,0,-0.079838,-1.447411,0.027117\C,0,0.944126,-0.605412,0.0017
 55\C,0,0.534416,0.851312,-0.094923\N,0,-0.901455,0.650228,-0.459595\C,
 0,-2.327735,-1.234542,-1.139204\H,0,-1.805436,-1.269854,-2.096112\H,0,
 -3.187624,-0.568455,-1.243353\H,0,-2.693045,-2.236343,-0.893549\C,0,-2
 .114861,-0.729726,1.319983\H,0,-1.486138,-0.348953,2.1282\H,0,-2.38211

 Normal termination of Gaussian 16 at Tue Apr  8 23:15:48 2025.
