 Gaussian 16, Revision C.01,

 ----------------------------------------------------------------------
 #t hf aug-cc-pvdz symm=none int=(grid=ultrafine) guess=(read,tcheck) s
 table=(opt,rrhf)
 ----------------------------------------------------------------------
 -----
 title
 -----
 Symbolic Z-matrix:
 Charge =  0 Multiplicity = 1

 SCF Done:  E(RHF) =  -476.770621648     A.U. after   12 cycles
 Normal termination of Gaussian 16 at Tue Apr  8 23:13:47 2025.
 Gaussian 16:  ES64L-G16RevC.01  3-Jul-2019

 ----------------------------------------------------------------------
 #t hf aug-cc-pvdz iop(5/13=1,5/36=2,99/5=2) pseudo=read geom=check gue
 ss=(read,tcheck) scf=(maxcycle=1)
 ----------------------------------------------------------------------
 -----
 title
 -----
 Structure from the checkpoint file:  "BDE49_expt_827_mol1.chk"
 Charge =  0 Multiplicity = 1

                         Standard orientation:
 ---------------------------------------------------------------------
 Center     Atomic      Atomic             Coordinates (Angstroms)
 Number     Number       Type             X           Y           Z
 ---------------------------------------------------------------------
      1          6           0       -1.650743   -0.350884   -0.051973
      2          6           0       -0.502966    0.643054    0.090315
      3          1           0       -1.625417   -1.101253    0.742530
      4          1           0       -1.600570   -0.873834   -1.009095
      5          1           0       -2.612860    0.168627    0.008953
      6         16           0        1.171812   -0.100678   -0.081327
      7          1           0       -0.551315    1.178330    1.039973
      8          1           0       -0.537289    1.392182   -0.704036
      9          1           0        1.100720   -0.906230    0.992849
 ---------------------------------------------------------------------

 SCF Done:  E(RHF) =  -476.921859017     A.U. after    2 cycles

 The electronic state is 1-A.
 Alpha  occ. eigenvalues --  -93.94553 -11.27453 -11.23828  -8.22628  -6.20481
 Alpha  occ. eigenvalues --   -6.20333  -6.20110  -1.08297  -0.96327  -0.83231
 Alpha  occ. eigenvalues --   -0.64401  -0.59847  -0.56488  -0.53222  -0.50360
 Alpha  occ. eigenvalues --   -0.45415  -0.36302
 Alpha virt. eigenvalues --    0.03622   0.04207   0.04597   0.05197   0.07264
 Alpha virt. eigenvalues --    0.07653   0.10318   0.12058   0.12859   0.14191
 Alpha virt. eigenvalues --    0.15891   0.15893   0.16954   0.17171   0.17768

 Mulliken charges:
               1
     1  C   -0.311226
     2  C   -0.903495
     3  H    0.148424
     4  H    0.184512
     5  H    0.138345
     6  S   -0.008777
     7  H    0.186590
     8  H    0.246471
     9  H    0.319157
 Sum of Mulliken charges =  -0.00000

 Dipole moment (field-independent basis, Debye):
    X=             -1.6883    Y=              0.1533    Z=              0.7747  Tot=              1.8639

 Test job not archived.
 1\1\GINC-SE120\SP\RHF\Aug-CC-pVDZ\C2H6S1\OHZDE\08-Apr-2025\0\\#t hf au
 g-cc-pvdz iop(5/13=1,5/36=2,99/5=2) pseudo=read geom=check guess=(read
 ,tcheck) scf=(maxcycle=1)\\title\\0,1\C,0,-1.650743,-0.350884,-0.05197
 3\C,0,-0.502966,0.643054,0.090315\H,0,-1.625417,-1.101253,0.74253\H,0,
 -1.60057,-0.873834,-1.009095\H,0,-2.61286,0.168627,0.008953\S,0,1.1718
 12,-0.100678,-0.081327\H,0,-0.551314,1.17833,1.039973\H,0,-0.537288,1.
 392182,-0.704036\H,0,1.10072,-0.90623,0.992849\\Version=ES64L-G16RevC.
 01\State=1-A\HF=-476.921859\RMSD=6.838e-03\Dipole=-0.6642395,0.0603058

 Normal termination of Gaussian 16 at Tue Apr  8 23:13:50 2025.
