 Gaussian 16, Revision C.01,

 ----------------------------------------------------------------------
 #t hf aug-cc-pvdz symm=none int=(grid=ultrafine) guess=(read,tcheck) s
 table=(opt,rrhf)
 ----------------------------------------------------------------------
 -----
 title
 -----
 Symbolic Z-matrix:
 Charge =  0 Multiplicity = 1

 SCF Done:  E(RHF) =  -458.884949114     A.U. after   15 cycles
 Normal termination of Gaussian 16 at Wed Apr  9 00:37:45 2025.
 Gaussian 16:  ES64L-G16RevC.01  3-Jul-2019

 ----------------------------------------------------------------------
 #t hf aug-cc-pvdz iop(5/13=1,5/36=2,99/5=2) pseudo=read geom=check gue
 ss=(read,tcheck) scf=(maxcycle=1)
 ----------------------------------------------------------------------
 -----
 title
 -----
 Structure from the checkpoint file:  "BDE49_nonexpt_558_mol1.chk"
 Charge =  0 Multiplicity = 1

                         Standard orientation:
 ---------------------------------------------------------------------
 Center     Atomic      Atomic             Coordinates (Angstroms)
 Number     Number       Type             X           Y           Z
 ---------------------------------------------------------------------
      1          8           0        0.873027    0.846743   -0.000001
      2          6           0        2.252058    0.982209    0.000002
      3          6           0        0.599871   -0.489179    0.000000
      4          6           0        2.823840   -0.242310   -0.000001
      5          6           0        1.760115   -1.208293    0.000003
      6          1           0        3.882504   -0.448167   -0.000001
      7          1           0        2.618974    1.992750    0.000004
      8          1           0        1.848334   -2.282300    0.000005
      9          5           0       -1.897497    0.003052   -0.000001
     10          8           0       -3.103128   -0.648063   -0.000001
     11          8           0       -1.855559    1.367032    0.000000
     12          1           0       -0.954943    1.709997    0.000000
     13          1           0       -3.835712   -0.025864    0.000000
     14          7           0       -0.730195   -0.843233   -0.000002
     15          1           0       -0.890327   -1.839305   -0.000003
 ---------------------------------------------------------------------

 SCF Done:  E(RHF) =  -459.344607411     A.U. after    2 cycles

 The electronic state is 1-A.
 Alpha  occ. eigenvalues --  -20.61843 -20.55259 -20.55060 -15.51774 -11.34964
 Alpha  occ. eigenvalues --  -11.29232 -11.24717 -11.22830  -7.65806  -1.55475
 Alpha  occ. eigenvalues --   -1.47787  -1.43882  -1.23052  -1.09714  -0.99405
 Alpha  occ. eigenvalues --   -0.83806  -0.82998  -0.77916  -0.75251  -0.72792
 Alpha  occ. eigenvalues --   -0.70151  -0.66076  -0.64620  -0.59622  -0.58570
 Alpha  occ. eigenvalues --   -0.58399  -0.57205  -0.55998  -0.53729  -0.50645
 Alpha  occ. eigenvalues --   -0.49156  -0.40927  -0.30663
 Alpha virt. eigenvalues --    0.03255   0.03796   0.04181   0.04806   0.05863
 Alpha virt. eigenvalues --    0.05943   0.07147   0.08301   0.09279   0.10817
 Alpha virt. eigenvalues --    0.11683   0.11838   0.13073   0.13663   0.14024

 Mulliken charges:
               1
     1  O   -1.549734
     2  C    0.532224
     3  C   -0.849947
     4  C    0.292357
     5  C    0.776214
     6  H   -0.120585
     7  H   -0.227822
     8  H   -0.201691
     9  B    1.278562
    10  O   -1.319817
    11  O   -1.345051
    12  H    0.740890
    13  H    0.430000
    14  N    1.476864
    15  H    0.087538
 Sum of Mulliken charges =  -0.00000

 Dipole moment (field-independent basis, Debye):
    X=              1.1091    Y=             -0.1811    Z=              0.0000  Tot=              1.1238

 Test job not archived.
 1\1\GINC-SE150\SP\RHF\Aug-CC-pVDZ\C4H6B1N1O3\OHZDE\09-Apr-2025\0\\#t h
 f aug-cc-pvdz iop(5/13=1,5/36=2,99/5=2) pseudo=read geom=check guess=(
 read,tcheck) scf=(maxcycle=1)\\title\\0,1\O,0,0.873027,0.846743,-0.000
 001\C,0,2.252058,0.982209,0.000002\C,0,0.599871,-0.489179,0.\C,0,2.823
 84,-0.24231,-0.000001\C,0,1.760115,-1.208293,0.000003\H,0,3.882504,-0.
 448167,-0.000001\H,0,2.618974,1.99275,0.000004\H,0,1.848334,-2.2823,0.
 000005\B,0,-1.897497,0.003052,-0.000001\O,0,-3.103128,-0.648063,-0.000
 001\O,0,-1.855559,1.367032,0.\H,0,-0.954943,1.709997,0.\H,0,-3.835712,

 Normal termination of Gaussian 16 at Wed Apr  9 00:37:52 2025.
