 Gaussian 16, Revision C.01,

 ----------------------------------------------------------------------
 #t hf aug-cc-pvdz symm=none int=(grid=ultrafine) guess=(read,tcheck) s
 table=(opt,rrhf)
 ----------------------------------------------------------------------
 -----
 title
 -----
 Symbolic Z-matrix:
 Charge =  0 Multiplicity = 1

 SCF Done:  E(RHF) =  -411.704584253     A.U. after   11 cycles
 Normal termination of Gaussian 16 at Tue Apr  8 22:40:25 2025.
 Gaussian 16:  ES64L-G16RevC.01  3-Jul-2019

 ----------------------------------------------------------------------
 #t hf aug-cc-pvdz iop(5/13=1,5/36=2,99/5=2) pseudo=read geom=check gue
 ss=(read,tcheck) scf=(maxcycle=1)
 ----------------------------------------------------------------------
 -----
 title
 -----
 Structure from the checkpoint file:  "BDE49_expt_1325_mol1.chk"
 Charge =  0 Multiplicity = 1

                         Standard orientation:
 ---------------------------------------------------------------------
 Center     Atomic      Atomic             Coordinates (Angstroms)
 Number     Number       Type             X           Y           Z
 ---------------------------------------------------------------------
      1          6           0        0.007286    0.023707    0.000000
      2          8           0        1.280118    0.460371    0.000014
      3          9           0       -0.274463   -0.734720    1.082021
      4          9           0       -0.274427   -0.734755   -1.082007
      5          9           0       -0.801741    1.078077   -0.000031
      6          1           0        1.871029   -0.302635    0.000040
 ---------------------------------------------------------------------

 SCF Done:  E(RHF) =  -412.085268669     A.U. after    2 cycles

 The electronic state is 1-A.
 Alpha  occ. eigenvalues --  -26.52102 -26.51743 -26.51739 -20.62931 -11.58272
 Alpha  occ. eigenvalues --   -1.74324  -1.63367  -1.62508  -1.54568  -0.96787
 Alpha  occ. eigenvalues --   -0.86353  -0.83683  -0.83048  -0.71782  -0.70410
 Alpha  occ. eigenvalues --   -0.67676  -0.64871  -0.64839  -0.63220  -0.61413
 Alpha  occ. eigenvalues --   -0.56180
 Alpha virt. eigenvalues --    0.03215   0.09244   0.09351   0.09495   0.13493
 Alpha virt. eigenvalues --    0.17777   0.19467   0.21384   0.23196   0.24019
 Alpha virt. eigenvalues --    0.29579   0.30561   0.31074   0.33716   0.34298

 Mulliken charges:
               1
     1  C    2.794394
     2  O   -1.077091
     3  F   -0.674871
     4  F   -0.674872
     5  F   -0.663764
     6  H    0.296205
 Sum of Mulliken charges =  -0.00000

 Dipole moment (field-independent basis, Debye):
    X=              1.7246    Y=             -0.9985    Z=              0.0001  Tot=              1.9928

 Test job not archived.
 1\1\GINC-SE184\SP\RHF\Aug-CC-pVDZ\C1H1F3O1\OHZDE\08-Apr-2025\0\\#t hf
 aug-cc-pvdz iop(5/13=1,5/36=2,99/5=2) pseudo=read geom=check guess=(re
 ad,tcheck) scf=(maxcycle=1)\\title\\0,1\C,0,0.007286,0.023707,0.\O,0,1
 .280117,0.460375,0.000014\F,0,-0.274461,-0.734721,1.082021\F,0,-0.2744
 25,-0.734756,-1.082007\F,0,-0.801744,1.078075,-0.000031\H,0,1.87103,-0
 .30263,0.00004\\Version=ES64L-G16RevC.01\State=1-A\HF=-412.0852687\RMS
 D=4.962e-03\Dipole=0.6785277,-0.3928306,0.0000223\Quadrupole=2.3657104
 ,-1.0742187,-1.2914916,-1.845511,0.0001012,-0.00004\PG=C01 [X(C1H1F3O1

 Normal termination of Gaussian 16 at Tue Apr  8 22:40:27 2025.
