 Gaussian 16, Revision C.01,

 ----------------------------------------------------------------------
 #t hf aug-cc-pvdz symm=none int=(grid=ultrafine) guess=(read,tcheck) s
 table=(opt,rrhf)
 ----------------------------------------------------------------------
 -----
 title
 -----
 Symbolic Z-matrix:
 Charge =  0 Multiplicity = 1

 SCF Done:  E(RHF) =  -327.075235394     A.U. after   15 cycles
 Normal termination of Gaussian 16 at Wed Apr  9 00:38:01 2025.
 Gaussian 16:  ES64L-G16RevC.01  3-Jul-2019

 ----------------------------------------------------------------------
 #t hf aug-cc-pvdz iop(5/13=1,5/36=2,99/5=2) pseudo=read geom=check gue
 ss=(read,tcheck) scf=(maxcycle=1)
 ----------------------------------------------------------------------
 -----
 title
 -----
 Structure from the checkpoint file:  "BDE49_nonexpt_559_mol1.chk"
 Charge =  0 Multiplicity = 1

                         Standard orientation:
 ---------------------------------------------------------------------
 Center     Atomic      Atomic             Coordinates (Angstroms)
 Number     Number       Type             X           Y           Z
 ---------------------------------------------------------------------
      1          6           0        1.378784    1.294131    0.000000
      2          6           0        2.214467    0.176327    0.000002
      3          6           0        1.616405   -1.077479    0.000004
      4          7           0        0.293337   -1.264589    0.000003
      5          6           0       -0.496089   -0.188600    0.000001
      6          6           0        0.003769    1.121585   -0.000001
      7          1           0        3.292721    0.274822    0.000003
      8          1           0        2.220191   -1.980496    0.000006
      9          1           0       -0.668064    1.968650   -0.000002
     10          1           0        1.796974    2.294538   -0.000001
     11          5           0       -2.991391    0.359675   -0.000012
     12          7           0       -1.872882   -0.480818   -0.000001
     13          1           0       -2.862588    1.542100   -0.000007
     14          1           0       -4.066753   -0.149833    0.000004
     15          1           0       -2.002723   -1.486087    0.000005
 ---------------------------------------------------------------------

 SCF Done:  E(RHF) =  -327.410540980     A.U. after    2 cycles

 The electronic state is 1-A.
 Alpha  occ. eigenvalues --  -15.51696 -15.50220 -11.32611 -11.28630 -11.27071
 Alpha  occ. eigenvalues --  -11.24594 -11.24282  -7.59642  -1.28768  -1.19906
 Alpha  occ. eigenvalues --   -1.09474  -1.02671  -0.89339  -0.87278  -0.77786
 Alpha  occ. eigenvalues --   -0.74860  -0.70295  -0.66880  -0.63434  -0.59920
 Alpha  occ. eigenvalues --   -0.59912  -0.58878  -0.54825  -0.50189  -0.48833
 Alpha  occ. eigenvalues --   -0.46157  -0.40858  -0.33861
 Alpha virt. eigenvalues --    0.03303   0.03748   0.04026   0.04515   0.04749
 Alpha virt. eigenvalues --    0.04964   0.06985   0.08020   0.08751   0.09571
 Alpha virt. eigenvalues --    0.09725   0.11240   0.12143   0.12490   0.12878

 Mulliken charges:
               1
     1  C    0.073618
     2  C    0.787178
     3  C   -0.535506
     4  N    1.127168
     5  C   -3.126104
     6  C    1.605635
     7  H   -0.196619
     8  H   -0.197213
     9  H   -0.306850
    10  H   -0.180555
    11  B   -0.694994
    12  N    1.174099
    13  H    0.143753
    14  H    0.358382
    15  H   -0.031994
 Sum of Mulliken charges =  -0.00000

 Dipole moment (field-independent basis, Debye):
    X=              1.2986    Y=              1.4798    Z=             -0.0000  Tot=              1.9688

 Test job not archived.
 1\1\GINC-SE084\SP\RHF\Aug-CC-pVDZ\C5H7B1N2\OHZDE\09-Apr-2025\0\\#t hf
 aug-cc-pvdz iop(5/13=1,5/36=2,99/5=2) pseudo=read geom=check guess=(re
 ad,tcheck) scf=(maxcycle=1)\\title\\0,1\C,0,-1.378784,1.294131,0.\C,0,
 -2.214467,0.176327,-0.000002\C,0,-1.616405,-1.077479,-0.000004\N,0,-0.
 293337,-1.264589,-0.000003\C,0,0.496089,-0.1886,-0.000001\C,0,-0.00376
 9,1.121585,0.000001\H,0,-3.292721,0.274822,-0.000003\H,0,-2.220191,-1.
 980496,-0.000006\H,0,0.668064,1.96865,0.000002\H,0,-1.796974,2.294538,
 0.000001\B,0,2.991391,0.359675,0.000012\N,0,1.872882,-0.480818,0.00000

 Normal termination of Gaussian 16 at Wed Apr  9 00:38:09 2025.
