 Gaussian 16, Revision C.01,

 ----------------------------------------------------------------------
 #t hf aug-cc-pvdz symm=none int=(grid=ultrafine) guess=(read,tcheck) s
 table=(opt,rrhf)
 ----------------------------------------------------------------------
 -----
 title
 -----
 Symbolic Z-matrix:
 Charge =  0 Multiplicity = 1

 SCF Done:  E(RHF) =  -615.054107307     A.U. after   13 cycles

 1\1\GINC-SE334\Stability\RHF\Aug-CC-pVDZ\C4H7Cl1\OHZDE\08-Apr-2025\0\\
 #t hf aug-cc-pvdz symm=none int=(grid=ultrafine) guess=(read,tcheck) s
 table=(opt,rrhf)\\title\\0,1\C,0,-0.323255,-0.495251,0.727146\C,0,0.97
 8622,-0.103543,0.096456\C,0,1.811911,-1.04675,-0.345047\Cl,0,-1.768583
 ,0.053015,-0.267609\H,0,-0.425228,-1.573318,0.820383\H,0,-0.466258,-0.
 023072,1.699063\C,0,1.288996,1.367669,0.029275\H,0,1.560307,-2.100339,
 -0.29181\H,0,2.775192,-0.794755,-0.774454\H,0,0.533936,1.897118,-0.558
 872\H,0,2.265873,1.546132,-0.421994\H,0,1.284437,1.814235,1.030051\\Ve

 Normal termination of Gaussian 16 at Tue Apr  8 22:47:34 2025.
 Gaussian 16:  ES64L-G16RevC.01  3-Jul-2019

 ----------------------------------------------------------------------
 #t hf aug-cc-pvdz iop(5/13=1,5/36=2,99/5=2) pseudo=read geom=check gue
 ss=(read,tcheck) scf=(maxcycle=1)
 ----------------------------------------------------------------------
 -----
 title
 -----
 Structure from the checkpoint file:  "BDE49_expt_1643_mol1.chk"
 Charge =  0 Multiplicity = 1

                         Standard orientation:
 ---------------------------------------------------------------------
 Center     Atomic      Atomic             Coordinates (Angstroms)
 Number     Number       Type             X           Y           Z
 ---------------------------------------------------------------------
      1          6           0       -0.323255   -0.495251    0.727146
      2          6           0        0.978622   -0.103543    0.096456
      3          6           0        1.811911   -1.046750   -0.345047
      4         17           0       -1.768583    0.053015   -0.267609
      5          1           0       -0.425228   -1.573318    0.820383
      6          1           0       -0.466258   -0.023072    1.699063
      7          6           0        1.288996    1.367669    0.029275
      8          1           0        1.560307   -2.100339   -0.291810
      9          1           0        2.775192   -0.794755   -0.774454
     10          1           0        0.533936    1.897118   -0.558872
     11          1           0        2.265873    1.546132   -0.421994
     12          1           0        1.284437    1.814235    1.030051
 ---------------------------------------------------------------------

 SCF Done:  E(RHF) =  -615.300330361     A.U. after    2 cycles

 The electronic state is 1-A.
 Alpha  occ. eigenvalues -- -105.55218 -11.31109 -11.26364 -11.24339 -11.23946
 Alpha  occ. eigenvalues --  -10.59993  -7.76924  -7.76565  -7.76554  -1.13356
 Alpha  occ. eigenvalues --   -1.04942  -0.95251  -0.90820  -0.74837  -0.66163
 Alpha  occ. eigenvalues --   -0.65335  -0.60257  -0.57359  -0.54659  -0.53883
 Alpha  occ. eigenvalues --   -0.52357  -0.44360  -0.44141  -0.37656
 Alpha virt. eigenvalues --    0.03509   0.03973   0.04130   0.05491   0.06220
 Alpha virt. eigenvalues --    0.06786   0.08585   0.09390   0.10108   0.11372
 Alpha virt. eigenvalues --    0.14445   0.14856   0.15088   0.15858   0.16160

 Mulliken charges:
               1
     1  C   -0.594788
     2  C    0.635406
     3  C    0.117170
     4  Cl  -0.102950
     5  H    0.124083
     6  H    0.196994
     7  C   -0.697102
     8  H   -0.140548
     9  H   -0.121374
    10  H    0.257688
    11  H    0.092114
    12  H    0.233306
 Sum of Mulliken charges =  -0.00000

 Dipole moment (field-independent basis, Debye):
    X=              1.9683    Y=             -0.3248    Z=              1.1258  Tot=              2.2906

 Test job not archived.
 1\1\GINC-SE334\SP\RHF\Aug-CC-pVDZ\C4H7Cl1\OHZDE\08-Apr-2025\0\\#t hf a
 ug-cc-pvdz iop(5/13=1,5/36=2,99/5=2) pseudo=read geom=check guess=(rea
 d,tcheck) scf=(maxcycle=1)\\title\\0,1\C,0,-0.323255,-0.495251,0.72714
 6\C,0,0.978622,-0.103543,0.096456\C,0,1.811911,-1.04675,-0.345047\Cl,0
 ,-1.768583,0.053015,-0.267609\H,0,-0.425228,-1.573318,0.820383\H,0,-0.
 466258,-0.023072,1.699063\C,0,1.288996,1.367669,0.029275\H,0,1.560307,
 -2.100339,-0.29181\H,0,2.775192,-0.794755,-0.774454\H,0,0.533936,1.897
 118,-0.558872\H,0,2.265873,1.546132,-0.421994\H,0,1.284437,1.814235,1.

 Normal termination of Gaussian 16 at Tue Apr  8 22:47:37 2025.
