 Gaussian 16, Revision C.01,

 ----------------------------------------------------------------------
 #t hf aug-cc-pvdz symm=none int=(grid=ultrafine) guess=(read,tcheck) s
 table=(opt,rrhf)
 ----------------------------------------------------------------------
 -----
 title
 -----
 Symbolic Z-matrix:
 Charge =  0 Multiplicity = 1

 SCF Done:  E(RHF) =  -368.633660538     A.U. after   14 cycles
 Normal termination of Gaussian 16 at Tue Apr  8 23:13:19 2025.
 Gaussian 16:  ES64L-G16RevC.01  3-Jul-2019

 ----------------------------------------------------------------------
 #t hf aug-cc-pvdz iop(5/13=1,5/36=2,99/5=2) pseudo=read geom=check gue
 ss=(read,tcheck) scf=(maxcycle=1)
 ----------------------------------------------------------------------
 -----
 title
 -----
 Structure from the checkpoint file:  "BDE49_expt_81_mol1.chk"
 Charge =  0 Multiplicity = 1

                         Standard orientation:
 ---------------------------------------------------------------------
 Center     Atomic      Atomic             Coordinates (Angstroms)
 Number     Number       Type             X           Y           Z
 ---------------------------------------------------------------------
      1          6           0        1.200870   -0.376049   -0.000000
      2          6           0        1.353176    1.003088   -0.000000
      3          6           0        0.202724    1.785642   -0.000000
      4          6           0       -1.059403    1.192844   -0.000000
      5          6           0       -1.198498   -0.197975   -0.000000
      6          6           0       -0.041828   -0.986312   -0.000000
      7          1           0       -1.945795    1.817525   -0.000001
      8          1           0        2.345778    1.435302   -0.000000
      9          1           0        0.291547    2.866009   -0.000000
     10          1           0       -0.096913   -2.069066   -0.000000
     11          6           0       -2.559536   -0.850718   -0.000000
     12          1           0       -3.356729   -0.105389   -0.000009
     13          1           0       -2.693325   -1.485823    0.880960
     14          1           0       -2.693318   -1.485840   -0.880948
     15          9           0        2.307081   -1.155094   -0.000000
 ---------------------------------------------------------------------

 SCF Done:  E(RHF) =  -369.005555327     A.U. after    2 cycles

 The electronic state is 1-A.
 Alpha  occ. eigenvalues --  -26.47261 -11.33504 -11.26304 -11.25652 -11.24700
 Alpha  occ. eigenvalues --  -11.24551 -11.24304 -11.24234  -1.60099  -1.16710
 Alpha  occ. eigenvalues --   -1.05828  -1.02186  -0.95179  -0.85111  -0.82878
 Alpha  occ. eigenvalues --   -0.73026  -0.70110  -0.68806  -0.66878  -0.62550
 Alpha  occ. eigenvalues --   -0.60200  -0.59594  -0.58995  -0.55252  -0.53072
 Alpha  occ. eigenvalues --   -0.50931  -0.50185  -0.35242  -0.34251
 Alpha virt. eigenvalues --    0.03389   0.03467   0.04145   0.05114   0.05211
 Alpha virt. eigenvalues --    0.05751   0.08344   0.09713   0.10239   0.10962
 Alpha virt. eigenvalues --    0.11081   0.12301   0.13506   0.14187   0.14321

 Mulliken charges:
               1
     1  C    1.021029
     2  C   -0.177009
     3  C    0.243362
     4  C    0.458104
     5  C    0.643513
     6  C   -0.016785
     7  H   -0.269473
     8  H   -0.179212
     9  H   -0.216556
    10  H   -0.236450
    11  C   -0.786153
    12  H    0.045184
    13  H    0.238779
    14  H    0.238774
    15  F   -1.007108
 Sum of Mulliken charges =  -0.00000

 Dipole moment (field-independent basis, Debye):
    X=             -1.7729    Y=              0.7366    Z=              0.0000  Tot=              1.9198

 Test job not archived.
 1\1\GINC-SE364\SP\RHF\Aug-CC-pVDZ\C7H7F1\OHZDE\08-Apr-2025\0\\#t hf au
 g-cc-pvdz iop(5/13=1,5/36=2,99/5=2) pseudo=read geom=check guess=(read
 ,tcheck) scf=(maxcycle=1)\\title\\0,1\C,0,1.20087,-0.376049,0.\C,0,1.3
 53176,1.003088,0.\C,0,0.202724,1.785642,0.\C,0,-1.059403,1.192844,0.\C
 ,0,-1.198498,-0.197975,0.\C,0,-0.041828,-0.986312,0.\H,0,-1.945795,1.8
 17525,-0.000001\H,0,2.345778,1.435302,0.\H,0,0.291547,2.866009,0.\H,0,
 -0.096913,-2.069066,0.\C,0,-2.559536,-0.850718,0.\H,0,-3.356729,-0.105
 389,-0.000009\H,0,-2.693325,-1.485823,0.88096\H,0,-2.693318,-1.48584,-

 Normal termination of Gaussian 16 at Tue Apr  8 23:13:25 2025.
