 Gaussian 16, Revision C.01,

 ----------------------------------------------------------------------
 #t hf aug-cc-pvdz symm=none int=(grid=ultrafine) guess=(read,tcheck) s
 table=(opt,rrhf)
 ----------------------------------------------------------------------
 -----
 title
 -----
 Symbolic Z-matrix:
 Charge =  0 Multiplicity = 1

 SCF Done:  E(RHF) =  -621.855966576     A.U. after   12 cycles
 Normal termination of Gaussian 16 at Wed Apr  9 00:30:11 2025.
 Gaussian 16:  ES64L-G16RevC.01  3-Jul-2019

 ----------------------------------------------------------------------
 #t hf aug-cc-pvdz iop(5/13=1,5/36=2,99/5=2) pseudo=read geom=check gue
 ss=(read,tcheck) scf=(maxcycle=1)
 ----------------------------------------------------------------------
 -----
 title
 -----
 Structure from the checkpoint file:  "BDE49_nonexpt_348_mol1.chk"
 Charge =  0 Multiplicity = 1

                         Standard orientation:
 ---------------------------------------------------------------------
 Center     Atomic      Atomic             Coordinates (Angstroms)
 Number     Number       Type             X           Y           Z
 ---------------------------------------------------------------------
      1          9           0       -1.120044    1.153987    0.000000
      2          9           0       -1.171151   -1.120445    0.000003
      3         16           0        1.339586   -0.096283   -0.000001
      4          5           0       -0.468607    0.000922   -0.000004
      5          1           0        1.530415    1.234031    0.000003
 ---------------------------------------------------------------------

 SCF Done:  E(RHF) =  -622.118582848     A.U. after    2 cycles

 The electronic state is 1-A.
 Alpha  occ. eigenvalues --  -93.97714 -26.49548 -26.49313  -8.26061  -7.76079
 Alpha  occ. eigenvalues --   -6.23878  -6.23751  -6.23565  -1.64646  -1.60786
 Alpha  occ. eigenvalues --   -1.05115  -0.81783  -0.76203  -0.71980  -0.71006
 Alpha  occ. eigenvalues --   -0.64896  -0.64406  -0.58369  -0.50567  -0.42405
 Alpha virt. eigenvalues --    0.03840   0.05324   0.05477   0.05894   0.08966
 Alpha virt. eigenvalues --    0.10484   0.12693   0.13515   0.16229   0.17864
 Alpha virt. eigenvalues --    0.21707   0.23557   0.24963   0.25780   0.26370

 Mulliken charges:
               1
     1  F   -0.562907
     2  F   -0.624000
     3  S   -0.644744
     4  B    1.577957
     5  H    0.253693
 Sum of Mulliken charges =  -0.00000

 Dipole moment (field-independent basis, Debye):
    X=              0.8443    Y=              0.9419    Z=             -0.0000  Tot=              1.2649

 Test job not archived.
 1\1\GINC-SE150\SP\RHF\Aug-CC-pVDZ\B1F2H1S1\OHZDE\09-Apr-2025\0\\#t hf
 aug-cc-pvdz iop(5/13=1,5/36=2,99/5=2) pseudo=read geom=check guess=(re
 ad,tcheck) scf=(maxcycle=1)\\title\\0,1\F,0,1.120044,1.153987,0.\F,0,1
 .17115,-1.120445,-0.000003\S,0,-1.339586,-0.096282,0.000001\B,0,0.4686
 07,0.000922,0.000004\H,0,-1.530415,1.234032,-0.000003\\Version=ES64L-G
 16RevC.01\State=1-A\HF=-622.1185828\RMSD=4.585e-03\Dipole=-0.3321859,0
 .3705746,0.0000049\Quadrupole=-0.4391734,0.1460845,0.2930889,-1.486108
 5,0.0000231,-0.0000114\PG=C01 [X(B1F2H1S1)]\\@

 Normal termination of Gaussian 16 at Wed Apr  9 00:30:13 2025.
