 Gaussian 16, Revision C.01,

 ----------------------------------------------------------------------
 #t hf aug-cc-pvdz symm=none int=(grid=ultrafine) guess=(read,tcheck) s
 table=(opt,rrhf)
 ----------------------------------------------------------------------
 -----
 title
 -----
 Symbolic Z-matrix:
 Charge =  0 Multiplicity = 1

 SCF Done:  E(RHF) =  -912.477898525     A.U. after   17 cycles
 Normal termination of Gaussian 16 at Wed Apr  9 00:47:25 2025.
 Gaussian 16:  ES64L-G16RevC.01  3-Jul-2019

 ----------------------------------------------------------------------
 #t hf aug-cc-pvdz iop(5/13=1,5/36=2,99/5=2) pseudo=read geom=check gue
 ss=(read,tcheck) scf=(maxcycle=1)
 ----------------------------------------------------------------------
 -----
 title
 -----
 Structure from the checkpoint file:  "BDE49_nonexpt_798_mol1.chk"
 Charge =  0 Multiplicity = 1

                         Standard orientation:
 ---------------------------------------------------------------------
 Center     Atomic      Atomic             Coordinates (Angstroms)
 Number     Number       Type             X           Y           Z
 ---------------------------------------------------------------------
      1         14           0        0.086241   -0.161681    0.500305
      2          7           0        1.033334   -1.176497   -0.756295
      3          5           0       -1.896392   -0.230994    0.045105
      4          7           0        0.692370    1.559130    0.002184
      5          6           0        0.784233   -0.494934    2.177281
      6          8           0       -0.144986    2.367354   -0.422411
      7          8           0       -2.522220    0.826300   -0.505843
      8          8           0        1.730633   -2.107402   -0.374306
      9          8           0       -2.530919   -1.391818    0.337339
     10          8           0        0.855005   -0.858144   -1.929781
     11          8           0        1.875888    1.816672    0.144616
     12          1           0        0.576857   -1.530959    2.456157
     13          1           0        0.327315    0.163327    2.921263
     14          1           0        1.864259   -0.338144    2.175747
     15          1           0       -1.922474    1.578802   -0.649784
     16          1           0       -3.463894   -1.387052    0.085005
 ---------------------------------------------------------------------

 SCF Done:  E(RHF) =  -913.107443800     A.U. after    2 cycles

 The electronic state is 1-A.
 Alpha  occ. eigenvalues --  -69.64356 -20.62400 -20.61650 -20.61223 -20.60863
 Alpha  occ. eigenvalues --  -20.59978 -20.58925 -15.78383 -15.77633 -11.27450
 Alpha  occ. eigenvalues --   -7.69422  -6.31130  -4.06435  -4.06356  -4.06192
 Alpha  occ. eigenvalues --   -1.68333  -1.67391  -1.52568  -1.51762  -1.51695
 Alpha  occ. eigenvalues --   -1.47946  -1.06061  -0.99623  -0.99216  -0.85147
 Alpha  occ. eigenvalues --   -0.82303  -0.80910  -0.77278  -0.76513  -0.75754
 Alpha  occ. eigenvalues --   -0.75194  -0.73777  -0.67668  -0.62297  -0.61708
 Alpha  occ. eigenvalues --   -0.61243  -0.60609  -0.60175  -0.52684  -0.52327
 Alpha  occ. eigenvalues --   -0.51700  -0.49479  -0.48625  -0.47522  -0.47266
 Alpha  occ. eigenvalues --   -0.46137
 Alpha virt. eigenvalues --    0.01758   0.02395   0.02965   0.03217   0.04202
 Alpha virt. eigenvalues --    0.04757   0.06067   0.06723   0.06925   0.07996
 Alpha virt. eigenvalues --    0.09057   0.09139   0.09448   0.10130   0.10894

 Mulliken charges:
               1
     1  Si   1.134928
     2  N    2.044400
     3  B    1.620064
     4  N    1.967961
     5  C   -0.604373
     6  O   -1.254338
     7  O   -1.463548
     8  O   -1.217877
     9  O   -1.188037
    10  O   -1.316491
    11  O   -1.290192
    12  H    0.128029
    13  H   -0.005000
    14  H    0.140126
    15  H    0.725672
    16  H    0.578677
 Sum of Mulliken charges =  -0.00000

 Dipole moment (field-independent basis, Debye):
    X=             -3.3250    Y=             -0.6944    Z=              4.0800  Tot=              5.3089

 Test job not archived.
 1\1\GINC-SE097\SP\RHF\Aug-CC-pVDZ\C1H5B1N2O6Si1\OHZDE\09-Apr-2025\0\\#
 t hf aug-cc-pvdz iop(5/13=1,5/36=2,99/5=2) pseudo=read geom=check gues
 s=(read,tcheck) scf=(maxcycle=1)\\title\\0,1\Si,0,0.086241,-0.161681,0
 .500305\N,0,1.033334,-1.176497,-0.756295\B,0,-1.896392,-0.230994,0.045
 105\N,0,0.69237,1.55913,0.002184\C,0,0.784233,-0.494934,2.177281\O,0,-
 0.144986,2.367354,-0.422411\O,0,-2.52222,0.8263,-0.505843\O,0,1.730633
 ,-2.107402,-0.374306\O,0,-2.530919,-1.391818,0.337339\O,0,0.855005,-0.
 858144,-1.929781\O,0,1.875888,1.816672,0.144616\H,0,0.576857,-1.530959

 Normal termination of Gaussian 16 at Wed Apr  9 00:47:35 2025.
