 Gaussian 16, Revision C.01,

 ----------------------------------------------------------------------
 #t hf aug-cc-pvdz symm=none int=(grid=ultrafine) guess=(read,tcheck) s
 table=(opt,rrhf)
 ----------------------------------------------------------------------
 -----
 title
 -----
 Symbolic Z-matrix:
 Charge =  0 Multiplicity = 1

 SCF Done:  E(RHF) =  -595.723779296     A.U. after   14 cycles
 Normal termination of Gaussian 16 at Wed Apr  9 00:08:04 2025.
 Gaussian 16:  ES64L-G16RevC.01  3-Jul-2019

 ----------------------------------------------------------------------
 #t hf aug-cc-pvdz iop(5/13=1,5/36=2,99/5=2) pseudo=read geom=check gue
 ss=(read,tcheck) scf=(maxcycle=1)
 ----------------------------------------------------------------------
 -----
 title
 -----
 Structure from the checkpoint file:  "BDE49_nonexpt_2262_mol1.chk"
 Charge =  0 Multiplicity = 1

                         Standard orientation:
 ---------------------------------------------------------------------
 Center     Atomic      Atomic             Coordinates (Angstroms)
 Number     Number       Type             X           Y           Z
 ---------------------------------------------------------------------
      1          6           0        2.699427    0.000016    0.277236
      2          6           0        2.016017    1.204247    0.119254
      3          6           0        0.658114    1.210180   -0.190078
      4          6           0        2.016041   -1.204229    0.119268
      5          6           0        0.658138   -1.210193   -0.190064
      6          6           0       -0.018746   -0.000014   -0.342058
      7          1           0        3.756447    0.000028    0.515982
      8          1           0        2.540619    2.146090    0.234680
      9          1           0        0.117803    2.139532   -0.325852
     10          1           0        2.540661   -2.146061    0.234706
     11          1           0        0.117843   -2.139556   -0.325826
     12          8           0       -1.351792   -0.000031   -0.688950
     13         14           0       -2.662508    0.000008    0.327966
     14          1           0       -3.842155   -0.000018   -0.555812
     15          1           0       -2.657851    1.204322    1.190383
     16          1           0       -2.657858   -1.204247    1.190465
 ---------------------------------------------------------------------

 SCF Done:  E(RHF) =  -596.069315458     A.U. after    2 cycles

 The electronic state is 1-A.
 Alpha  occ. eigenvalues --  -69.56698 -20.55774 -11.31145 -11.25014 -11.24999
 Alpha  occ. eigenvalues --  -11.24244 -11.24231 -11.24073  -6.23274  -3.98782
 Alpha  occ. eigenvalues --   -3.98626  -3.98601  -1.47252  -1.15347  -1.02359
 Alpha  occ. eigenvalues --   -1.01200  -0.84856  -0.84459  -0.76897  -0.70859
 Alpha  occ. eigenvalues --   -0.66832  -0.65954  -0.61940  -0.60549  -0.60214
 Alpha  occ. eigenvalues --   -0.55101  -0.53185  -0.51057  -0.50554  -0.48011
 Alpha  occ. eigenvalues --   -0.45171  -0.35235  -0.33375
 Alpha virt. eigenvalues --    0.03463   0.03725   0.03755   0.04778   0.05265
 Alpha virt. eigenvalues --    0.05550   0.06817   0.08274   0.08344   0.09088
 Alpha virt. eigenvalues --    0.09724   0.10216   0.11351   0.11867   0.13664

 Mulliken charges:
               1
     1  C    0.008646
     2  C    0.648709
     3  C   -0.200902
     4  C    0.648732
     5  C   -0.200902
     6  C    1.726692
     7  H   -0.217142
     8  H   -0.207656
     9  H   -0.271392
    10  H   -0.207655
    11  H   -0.271392
    12  O   -2.163451
    13  Si   1.171890
    14  H   -0.136833
    15  H   -0.163676
    16  H   -0.163669
 Sum of Mulliken charges =  -0.00000

 Dipole moment (field-independent basis, Debye):
    X=              0.1857    Y=              0.0000    Z=              0.7659  Tot=              0.7881

 Test job not archived.
 1\1\GINC-SE396\SP\RHF\Aug-CC-pVDZ\C6H8O1Si1\OHZDE\09-Apr-2025\0\\#t hf
  aug-cc-pvdz iop(5/13=1,5/36=2,99/5=2) pseudo=read geom=check guess=(r
 ead,tcheck) scf=(maxcycle=1)\\title\\0,1\C,0,2.699427,0.000016,0.27723
 6\C,0,2.016017,1.204247,0.119254\C,0,0.658114,1.21018,-0.190078\C,0,2.
 016041,-1.204229,0.119268\C,0,0.658138,-1.210193,-0.190064\C,0,-0.0187
 46,-0.000014,-0.342058\H,0,3.756447,0.000028,0.515982\H,0,2.540619,2.1
 4609,0.23468\H,0,0.117803,2.139532,-0.325852\H,0,2.540661,-2.146061,0.
 234706\H,0,0.117843,-2.139556,-0.325826\O,0,-1.351792,-0.000031,-0.688

 Normal termination of Gaussian 16 at Wed Apr  9 00:08:10 2025.
