 Gaussian 16, Revision C.01,

 ----------------------------------------------------------------------
 #t hf aug-cc-pvdz symm=none int=(grid=ultrafine) guess=(read,tcheck) s
 table=(opt,rrhf)
 ----------------------------------------------------------------------
 -----
 title
 -----
 Symbolic Z-matrix:
 Charge =  0 Multiplicity = 1

 SCF Done:  E(RHF) =  -2004.34786218     A.U. after   12 cycles
 Normal termination of Gaussian 16 at Tue Apr  8 23:47:18 2025.
 Gaussian 16:  ES64L-G16RevC.01  3-Jul-2019

 ----------------------------------------------------------------------
 #t hf aug-cc-pvdz iop(5/13=1,5/36=2,99/5=2) pseudo=read geom=check gue
 ss=(read,tcheck) scf=(maxcycle=1)
 ----------------------------------------------------------------------
 -----
 title
 -----
 Structure from the checkpoint file:  "BDE49_nonexpt_1801_mol1.chk"
 Charge =  0 Multiplicity = 1

                         Standard orientation:
 ---------------------------------------------------------------------
 Center     Atomic      Atomic             Coordinates (Angstroms)
 Number     Number       Type             X           Y           Z
 ---------------------------------------------------------------------
      1         14           0        0.001212    0.000000    0.000000
      2         16           0        1.303474    1.514995   -0.749177
      3         17           0       -1.251717    0.800096    1.441733
      4         17           0       -1.251536   -0.800378   -1.441733
      5          1           0        0.410551    2.507716   -0.580283
      6         16           0        1.303817   -1.514700    0.749177
      7          1           0        0.411119   -2.507623    0.580282
 ---------------------------------------------------------------------

 SCF Done:  E(RHF) =  -2004.65667614     A.U. after    2 cycles

 The electronic state is 1-A.
 Alpha  occ. eigenvalues -- -105.58254-105.58254 -93.97787 -93.97784 -69.68208
 Alpha  occ. eigenvalues --  -10.63267 -10.63253  -8.26093  -8.26087  -7.80154
 Alpha  occ. eigenvalues --   -7.80148  -7.79824  -7.79822  -7.79817  -7.79813
 Alpha  occ. eigenvalues --   -6.33897  -6.23891  -6.23890  -6.23794  -6.23791
 Alpha  occ. eigenvalues --   -6.23554  -6.23554  -4.09209  -4.09199  -4.09162
 Alpha  occ. eigenvalues --   -1.11203  -1.05991  -1.03824  -1.02444  -0.71831
 Alpha  occ. eigenvalues --   -0.61982  -0.59042  -0.55824  -0.55103  -0.53713
 Alpha  occ. eigenvalues --   -0.50179  -0.48368  -0.48082  -0.45931  -0.41618
 Alpha  occ. eigenvalues --   -0.41191
 Alpha virt. eigenvalues --    0.03717   0.04794   0.05868   0.06162   0.07391
 Alpha virt. eigenvalues --    0.08500   0.09357   0.09942   0.11873   0.12071
 Alpha virt. eigenvalues --    0.12420   0.13737   0.14356   0.15529   0.15721

 Mulliken charges:
               1
     1  Si   1.991937
     2  S   -0.830466
     3  Cl  -0.506110
     4  Cl  -0.506110
     5  H    0.340607
     6  S   -0.830466
     7  H    0.340607
 Sum of Mulliken charges =  -0.00000

 Dipole moment (field-independent basis, Debye):
    X=             -0.1622    Y=             -0.0000    Z=             -0.0000  Tot=              0.1622

 Test job not archived.
 1\1\GINC-SE460\SP\RHF\Aug-CC-pVDZ\Cl2H2S2Si1\OHZDE\08-Apr-2025\0\\#t h
 f aug-cc-pvdz iop(5/13=1,5/36=2,99/5=2) pseudo=read geom=check guess=(
 read,tcheck) scf=(maxcycle=1)\\title\\0,1\Si,0,-0.001212,0.,0.\S,0,-1.
 303639,1.514853,0.749177\Cl,0,1.25163,0.800232,-1.441733\Cl,0,1.251623
 ,-0.800242,1.441733\H,0,-0.410824,2.507671,0.580283\S,0,-1.303652,-1.5
 14842,-0.749177\H,0,-0.410846,-2.507668,-0.580282\\Version=ES64L-G16Re
 vC.01\State=1-A\HF=-2004.6566761\RMSD=3.201e-03\Dipole=0.0637951,-0.00
 00009,0.0000007\Quadrupole=-2.5104202,5.4142495,-2.9038294,0.0000342,0

 Normal termination of Gaussian 16 at Tue Apr  8 23:47:20 2025.
