 Gaussian 16, Revision C.01,

 ----------------------------------------------------------------------
 #t hf aug-cc-pvdz symm=none int=(grid=ultrafine) guess=(read,tcheck) s
 table=(opt,rrhf)
 ----------------------------------------------------------------------
 -----
 title
 -----
 Symbolic Z-matrix:
 Charge =  0 Multiplicity = 1

 SCF Done:  E(RHF) =  -718.166947405     A.U. after   15 cycles
 Normal termination of Gaussian 16 at Tue Apr  8 23:16:00 2025.
 Gaussian 16:  ES64L-G16RevC.01  3-Jul-2019

 ----------------------------------------------------------------------
 #t hf aug-cc-pvdz iop(5/13=1,5/36=2,99/5=2) pseudo=read geom=check gue
 ss=(read,tcheck) scf=(maxcycle=1)
 ----------------------------------------------------------------------
 -----
 title
 -----
 Structure from the checkpoint file:  "BDE49_nonexpt_1005_mol1.chk"
 Charge =  0 Multiplicity = 1

                         Standard orientation:
 ---------------------------------------------------------------------
 Center     Atomic      Atomic             Coordinates (Angstroms)
 Number     Number       Type             X           Y           Z
 ---------------------------------------------------------------------
      1          6           0        1.214228   -0.891867    0.000099
      2          6           0        0.785622    0.560347   -0.000050
      3         16           0       -1.009205    0.939176   -0.000125
      4          8           0        1.527702    1.500926   -0.000193
      5          7           0       -1.733912   -0.824458   -0.000062
      6          8           0       -2.901724   -0.865038    0.000280
      7          6           0        2.733975   -1.052141    0.000125
      8          1           0        0.758967   -1.377688   -0.868485
      9          1           0        0.758957   -1.377526    0.868768
     10          1           0        3.179871   -0.586692   -0.880375
     11          1           0        2.996233   -2.112317    0.000227
     12          1           0        3.179856   -0.586528    0.880546
 ---------------------------------------------------------------------

 SCF Done:  E(RHF) =  -718.536708234     A.U. after    2 cycles

 The electronic state is 1-A.
 Alpha  occ. eigenvalues --  -94.00254 -20.67484 -20.57029 -15.71900 -11.39477
 Alpha  occ. eigenvalues --  -11.27335 -11.24554  -8.28267  -6.25989  -6.25839
 Alpha  occ. eigenvalues --   -6.25617  -1.67926  -1.51336  -1.11669  -1.06808
 Alpha  occ. eigenvalues --   -0.95910  -0.90371  -0.78533  -0.74485  -0.73127
 Alpha  occ. eigenvalues --   -0.68346  -0.66559  -0.65895  -0.62578  -0.56561
 Alpha  occ. eigenvalues --   -0.55803  -0.53962  -0.51789  -0.42709  -0.41409
 Alpha  occ. eigenvalues --   -0.41159
 Alpha virt. eigenvalues --    0.03324   0.03336   0.04373   0.04486   0.05427
 Alpha virt. eigenvalues --    0.06656   0.07632   0.08227   0.10702   0.11317
 Alpha virt. eigenvalues --    0.11360   0.12193   0.12570   0.13718   0.15315

 Mulliken charges:
               1
     1  C   -0.574643
     2  C    0.736611
     3  S    0.558078
     4  O   -1.206832
     5  N    0.732322
     6  O   -0.959398
     7  C   -0.397446
     8  H    0.301521
     9  H    0.301522
    10  H    0.174673
    11  H    0.158921
    12  H    0.174673
 Sum of Mulliken charges =  -0.00000

 Dipole moment (field-independent basis, Debye):
    X=              0.2578    Y=             -2.1724    Z=              0.0004  Tot=              2.1876

 Test job not archived.
 1\1\GINC-SE094\SP\RHF\Aug-CC-pVDZ\C3H5N1O2S1\OHZDE\08-Apr-2025\0\\#t h
 f aug-cc-pvdz iop(5/13=1,5/36=2,99/5=2) pseudo=read geom=check guess=(
 read,tcheck) scf=(maxcycle=1)\\title\\0,1\C,0,1.214228,-0.891867,0.000
 099\C,0,0.785622,0.560347,-0.00005\S,0,-1.009205,0.939176,-0.000125\O,
 0,1.527702,1.500926,-0.000193\N,0,-1.733912,-0.824458,-0.000062\O,0,-2
 .901724,-0.865039,0.00028\C,0,2.733975,-1.05214,0.000125\H,0,0.758967,
 -1.377688,-0.868485\H,0,0.758957,-1.377526,0.868768\H,0,3.179871,-0.58
 6691,-0.880375\H,0,2.996233,-2.112316,0.000227\H,0,3.179856,-0.586527,

 Normal termination of Gaussian 16 at Tue Apr  8 23:16:05 2025.
