 Gaussian 16, Revision C.01,

 ----------------------------------------------------------------------
 #t hf aug-cc-pvdz symm=none int=(grid=ultrafine) guess=(read,tcheck) s
 table=(opt,rrhf)
 ----------------------------------------------------------------------
 -----
 title
 -----
 Symbolic Z-matrix:
 Charge =  0 Multiplicity = 1

 SCF Done:  E(RHF) =  -899.561949468     A.U. after   12 cycles
 Normal termination of Gaussian 16 at Tue Apr  8 23:43:03 2025.
 Gaussian 16:  ES64L-G16RevC.01  3-Jul-2019

 ----------------------------------------------------------------------
 #t hf aug-cc-pvdz iop(5/13=1,5/36=2,99/5=2) pseudo=read geom=check gue
 ss=(read,tcheck) scf=(maxcycle=1)
 ----------------------------------------------------------------------
 -----
 title
 -----
 Structure from the checkpoint file:  "BDE49_nonexpt_1677_mol1.chk"
 Charge =  0 Multiplicity = 1

                         Standard orientation:
 ---------------------------------------------------------------------
 Center     Atomic      Atomic             Coordinates (Angstroms)
 Number     Number       Type             X           Y           Z
 ---------------------------------------------------------------------
      1         14           0       -0.930980    0.000000   -0.045508
      2         15           0        1.255419   -0.000000   -0.650560
      3          6           0        1.904633   -1.443430    0.340587
      4          1           0        1.733356   -1.338311    1.414852
      5          1           0        2.978387   -1.545418    0.166214
      6          1           0        1.420579   -2.360099   -0.002783
      7          8           0       -1.597715    1.384089   -0.666769
      8          6           0       -1.364402   -0.000002    1.760823
      9          1           0       -0.973027   -0.887800    2.262781
     10          1           0       -2.452646   -0.000003    1.871815
     11          1           0       -0.973030    0.887798    2.262782
     12          6           0        1.904633    1.443430    0.340587
     13          1           0        1.420580    2.360099   -0.002783
     14          1           0        2.978387    1.545417    0.166213
     15          1           0        1.733356    1.338312    1.414852
     16          1           0       -1.384623    1.626739   -1.571050
     17          8           0       -1.597716   -1.384088   -0.666772
     18          1           0       -1.384619   -1.626739   -1.571052
 ---------------------------------------------------------------------

 SCF Done:  E(RHF) =  -899.925630583     A.U. after    2 cycles

 The electronic state is 1-A.
 Alpha  occ. eigenvalues --  -84.25167 -69.57216 -20.54452 -20.54449 -11.23995
 Alpha  occ. eigenvalues --  -11.23992 -11.21426  -6.72429  -6.23517  -4.24867
 Alpha  occ. eigenvalues --   -4.24780  -4.24215  -3.98983  -3.98851  -3.98775
 Alpha  occ. eigenvalues --   -1.44152  -1.42044  -1.00944  -0.95357  -0.94155
 Alpha  occ. eigenvalues --   -0.77586  -0.73198  -0.69750  -0.61131  -0.59294
 Alpha  occ. eigenvalues --   -0.58309  -0.56859  -0.56505  -0.56001  -0.55422
 Alpha  occ. eigenvalues --   -0.53717  -0.53633  -0.49223  -0.48458  -0.45416
 Alpha  occ. eigenvalues --   -0.39858  -0.30593
 Alpha virt. eigenvalues --    0.03443   0.03806   0.04092   0.04552   0.06225
 Alpha virt. eigenvalues --    0.06271   0.06478   0.06484   0.07176   0.09045
 Alpha virt. eigenvalues --    0.09579   0.09650   0.10102   0.10578   0.11013

 Mulliken charges:
               1
     1  Si   3.935305
     2  P    0.163577
     3  C   -0.750827
     4  H    0.113427
     5  H    0.071009
     6  H    0.037755
     7  O   -1.620866
     8  C   -0.644277
     9  H    0.031225
    10  H    0.001442
    11  H    0.031229
    12  C   -0.750829
    13  H    0.037756
    14  H    0.071009
    15  H    0.113426
    16  H    0.390251
    17  O   -1.620865
    18  H    0.390252
 Sum of Mulliken charges =  -0.00000

 Dipole moment (field-independent basis, Debye):
    X=              1.5377    Y=              0.0000    Z=             -0.4264  Tot=              1.5957

 Test job not archived.
 1\1\GINC-SE393\SP\RHF\Aug-CC-pVDZ\C3H11O2P1Si1\OHZDE\08-Apr-2025\0\\#t
  hf aug-cc-pvdz iop(5/13=1,5/36=2,99/5=2) pseudo=read geom=check guess
 =(read,tcheck) scf=(maxcycle=1)\\title\\0,1\Si,0,-0.93098,0.,-0.045508
 \P,0,1.255419,0.,-0.65056\C,0,1.904633,-1.44343,0.340587\H,0,1.733356,
 -1.338311,1.414852\H,0,2.978387,-1.545417,0.166214\H,0,1.42058,-2.3600
 99,-0.002783\O,0,-1.597715,1.384089,-0.666769\C,0,-1.364402,-0.000002,
 1.760823\H,0,-0.973027,-0.8878,2.262781\H,0,-2.452646,-0.000004,1.8718
 15\H,0,-0.97303,0.887798,2.262782\C,0,1.904633,1.44343,0.340587\H,0,1.

 Normal termination of Gaussian 16 at Tue Apr  8 23:43:11 2025.
