 Gaussian 16, Revision C.01,

 ----------------------------------------------------------------------
 #t hf aug-cc-pvdz symm=none int=(grid=ultrafine) guess=(read,tcheck) s
 table=(opt,rrhf)
 ----------------------------------------------------------------------
 -----
 title
 -----
 Symbolic Z-matrix:
 Charge =  0 Multiplicity = 1

 SCF Done:  E(RHF) =  -314.572103181     A.U. after   12 cycles
 Normal termination of Gaussian 16 at Wed Apr  9 00:39:13 2025.
 Gaussian 16:  ES64L-G16RevC.01  3-Jul-2019

 ----------------------------------------------------------------------
 #t hf aug-cc-pvdz iop(5/13=1,5/36=2,99/5=2) pseudo=read geom=check gue
 ss=(read,tcheck) scf=(maxcycle=1)
 ----------------------------------------------------------------------
 -----
 title
 -----
 Structure from the checkpoint file:  "BDE49_nonexpt_577_mol1.chk"
 Charge =  0 Multiplicity = 1

                         Standard orientation:
 ---------------------------------------------------------------------
 Center     Atomic      Atomic             Coordinates (Angstroms)
 Number     Number       Type             X           Y           Z
 ---------------------------------------------------------------------
      1          6           0        0.684424   -0.000000    0.173482
      2          6           0       -0.079095    1.266250   -0.251585
      3          6           0       -1.524212    1.266625    0.267945
      4          6           0       -2.279165   -0.000000   -0.157879
      5          6           0       -1.524212   -1.266625    0.267945
      6          6           0       -0.079095   -1.266250   -0.251585
      7          5           0        3.236613   -0.000001    0.369216
      8          1           0       -0.086197    1.320840   -1.349218
      9          1           0        0.461445    2.148821    0.103175
     10          1           0       -2.047125    2.160243   -0.086748
     11          1           0       -1.513215    1.329188    1.363676
     12          1           0       -2.399069   -0.000000   -1.249082
     13          1           0       -3.288250   -0.000000    0.266126
     14          1           0       -2.047125   -2.160242   -0.086747
     15          1           0       -1.513215   -1.329187    1.363676
     16          1           0        0.461445   -2.148821    0.103175
     17          1           0       -0.086197   -1.320840   -1.349218
     18          7           0        2.050413    0.000000   -0.350781
     19          1           0        0.776968   -0.000000    1.264689
     20          1           0        4.272222    0.000002   -0.223635
     21          1           0        3.193535    0.000002    1.562590
     22          1           0        2.086949    0.000001   -1.363002
 ---------------------------------------------------------------------

 SCF Done:  E(RHF) =  -314.915465936     A.U. after    2 cycles

 The electronic state is 1-A.
 Alpha  occ. eigenvalues --  -15.49158 -11.26444 -11.22917 -11.22906 -11.22811
 Alpha  occ. eigenvalues --  -11.22807 -11.22766  -7.57049  -1.20157  -1.10370
 Alpha  occ. eigenvalues --   -1.00818  -0.98831  -0.84177  -0.83913  -0.77864
 Alpha  occ. eigenvalues --   -0.74529  -0.68068  -0.63415  -0.61317  -0.60675
 Alpha  occ. eigenvalues --   -0.58706  -0.56308  -0.55015  -0.53886  -0.49591
 Alpha  occ. eigenvalues --   -0.49552  -0.47298  -0.46711  -0.46641  -0.44951
 Alpha  occ. eigenvalues --   -0.41328
 Alpha virt. eigenvalues --    0.03040   0.03455   0.03584   0.03998   0.05004
 Alpha virt. eigenvalues --    0.05202   0.05310   0.05564   0.06058   0.07816
 Alpha virt. eigenvalues --    0.08353   0.08436   0.09098   0.09461   0.10778

 Mulliken charges:
               1
     1  C   -1.582450
     2  C    0.021521
     3  C   -0.215839
     4  C   -0.236457
     5  C   -0.215836
     6  C    0.021520
     7  B   -0.661062
     8  H    0.180577
     9  H    0.129231
    10  H    0.099741
    11  H    0.158950
    12  H    0.149956
    13  H    0.108999
    14  H    0.099739
    15  H    0.158950
    16  H    0.129231
    17  H    0.180578
    18  N    0.761445
    19  H    0.002695
    20  H    0.326598
    21  H    0.185900
    22  H    0.196011
 Sum of Mulliken charges =  -0.00000

 Dipole moment (field-independent basis, Debye):
    X=             -1.7545    Y=             -0.0000    Z=             -0.6652  Tot=              1.8763

 Test job not archived.
 1\1\GINC-SE074\SP\RHF\Aug-CC-pVDZ\C6H14B1N1\OHZDE\09-Apr-2025\0\\#t hf
  aug-cc-pvdz iop(5/13=1,5/36=2,99/5=2) pseudo=read geom=check guess=(r
 ead,tcheck) scf=(maxcycle=1)\\title\\0,1\C,0,-0.684424,0.,0.173482\C,0
 ,0.079095,-1.26625,-0.251585\C,0,1.524212,-1.266625,0.267945\C,0,2.279
 165,0.,-0.157879\C,0,1.524212,1.266625,0.267945\C,0,0.079095,1.26625,-
 0.251585\B,0,-3.236613,0.000001,0.369216\H,0,0.086197,-1.32084,-1.3492
 18\H,0,-0.461445,-2.148821,0.103175\H,0,2.047125,-2.160243,-0.086748\H
 ,0,1.513215,-1.329188,1.363676\H,0,2.399069,0.,-1.249082\H,0,3.28825,0

 Normal termination of Gaussian 16 at Wed Apr  9 00:39:24 2025.
