 Gaussian 16, Revision C.01,

 ----------------------------------------------------------------------
 #t hf aug-cc-pvdz symm=none int=(grid=ultrafine) guess=(read,tcheck) s
 table=(opt,rrhf)
 ----------------------------------------------------------------------
 -----
 title
 -----
 Symbolic Z-matrix:
 Charge =  0 Multiplicity = 1

 SCF Done:  E(RHF) =  -1351.41208010     A.U. after   16 cycles
 Normal termination of Gaussian 16 at Wed Apr  9 00:25:25 2025.
 Gaussian 16:  ES64L-G16RevC.01  3-Jul-2019

 ----------------------------------------------------------------------
 #t hf aug-cc-pvdz iop(5/13=1,5/36=2,99/5=2) pseudo=read geom=check gue
 ss=(read,tcheck) scf=(maxcycle=1)
 ----------------------------------------------------------------------
 -----
 title
 -----
 Structure from the checkpoint file:  "BDE49_nonexpt_2517_mol1.chk"
 Charge =  0 Multiplicity = 1

                         Standard orientation:
 ---------------------------------------------------------------------
 Center     Atomic      Atomic             Coordinates (Angstroms)
 Number     Number       Type             X           Y           Z
 ---------------------------------------------------------------------
      1          6           0       -2.005520   -0.532958    1.215777
      2          6           0       -0.752323   -1.132179    1.210633
      3          6           0       -2.612690   -0.238550   -0.000030
      4          6           0       -2.005495   -0.532880   -1.215844
      5          6           0       -0.752299   -1.132101   -1.210713
      6          6           0       -0.113976   -1.429145   -0.000044
      7          1           0       -0.263544   -1.373757    2.145344
      8          1           0       -2.516368   -0.293055    2.137733
      9          7           0       -3.943590    0.404354   -0.000023
     10          1           0       -2.516325   -0.292917   -2.137794
     11          1           0       -0.263501   -1.373619   -2.145431
     12         16           0        1.477792   -2.258011   -0.000054
     13         14           0        2.879545   -0.573921    0.000007
     14          6           0        2.734051    0.476068    1.510768
     15          6           0        2.734076    0.476159   -1.510693
     16          6           0        2.069229    1.647217   -1.650016
     17          6           0        2.069201    1.647118    1.650151
     18          6           0        1.343838    2.439517    0.679676
     19          6           0        1.343850    2.439557   -0.679506
     20          1           0        3.217515    0.094786    2.409408
     21          1           0        2.051327    2.085176    2.647712
     22          1           0        3.217554    0.094931   -2.409347
     23          1           0        2.051371    2.085336   -2.647551
     24          1           0        0.732367    3.215851    1.132112
     25          1           0        0.732385    3.215919   -1.131905
     26          8           0       -4.453710    0.652310    1.084619
     27          8           0       -4.453689    0.652381   -1.084658
     28          1           0        4.151600   -1.330531   -0.000005
 ---------------------------------------------------------------------

 SCF Done:  E(RHF) =  -1352.16333047     A.U. after    2 cycles

 The electronic state is 1-A.
 Alpha  occ. eigenvalues --  -93.95123 -69.56361 -20.59007 -20.59002 -15.79319
 Alpha  occ. eigenvalues --  -11.31563 -11.30668 -11.28191 -11.28185 -11.27659
 Alpha  occ. eigenvalues --  -11.27646 -11.27233 -11.27227 -11.26945 -11.26842
 Alpha  occ. eigenvalues --  -11.24815 -11.24809  -8.23355  -6.23226  -6.21160
 Alpha  occ. eigenvalues --   -6.21004  -6.20830  -3.98585  -3.98556  -3.98521
 Alpha  occ. eigenvalues --   -1.66958  -1.50637  -1.20844  -1.13265  -1.12307
 Alpha  occ. eigenvalues --   -1.06665  -1.05452  -1.03552  -1.00775  -0.94114
 Alpha  occ. eigenvalues --   -0.88999  -0.87811  -0.84311  -0.82688  -0.80121
 Alpha  occ. eigenvalues --   -0.74995  -0.74541  -0.72190  -0.71054  -0.70463
 Alpha  occ. eigenvalues --   -0.68041  -0.67121  -0.65441  -0.64951  -0.63576
 Alpha  occ. eigenvalues --   -0.60394  -0.58232  -0.55976  -0.54489  -0.54237
 Alpha  occ. eigenvalues --   -0.52549  -0.50317  -0.49876  -0.48787  -0.48486
 Alpha  occ. eigenvalues --   -0.47938  -0.46250  -0.45152  -0.41251  -0.38214
 Alpha  occ. eigenvalues --   -0.37494  -0.37230  -0.32870
 Alpha virt. eigenvalues --    0.01875   0.02501   0.02536   0.03162   0.03347
 Alpha virt. eigenvalues --    0.03861   0.04436   0.04760   0.04917   0.05413
 Alpha virt. eigenvalues --    0.06871   0.07239   0.07450   0.07612   0.08085

 Mulliken charges:
               1
     1  C   -0.006201
     2  C    0.470482
     3  C   -0.393255
     4  C   -0.006202
     5  C    0.470496
     6  C    0.178381
     7  H   -0.313642
     8  H   -0.243157
     9  N    3.091681
    10  H   -0.243158
    11  H   -0.313639
    12  S   -0.497263
    13  Si   1.993908
    14  C   -0.510852
    15  C   -0.510845
    16  C    0.498147
    17  C    0.498150
    18  C    0.484410
    19  C    0.484414
    20  H   -0.343736
    21  H   -0.276184
    22  H   -0.343740
    23  H   -0.276182
    24  H   -0.316962
    25  H   -0.316958
    26  O   -1.500203
    27  O   -1.500204
    28  H   -0.257685
 Sum of Mulliken charges =  -0.00000

 Dipole moment (field-independent basis, Debye):
    X=              4.1580    Y=              1.0253    Z=              0.0001  Tot=              4.2826

 Test job not archived.
 1\1\GINC-SE339\SP\RHF\Aug-CC-pVDZ\C12H11N1O2S1Si1\OHZDE\09-Apr-2025\0\
 \#t hf aug-cc-pvdz iop(5/13=1,5/36=2,99/5=2) pseudo=read geom=check gu
 ess=(read,tcheck) scf=(maxcycle=1)\\title\\0,1\C,0,-2.00552,-0.532958,
 1.215777\C,0,-0.752323,-1.132179,1.210633\C,0,-2.61269,-0.23855,-0.000
 03\C,0,-2.005495,-0.53288,-1.215844\C,0,-0.752299,-1.132101,-1.210713\
 C,0,-0.113976,-1.429145,-0.000044\H,0,-0.263544,-1.373757,2.145344\H,0
 ,-2.516368,-0.293055,2.137733\N,0,-3.94359,0.404354,-0.000023\H,0,-2.5
 16325,-0.292917,-2.137794\H,0,-0.263501,-1.373619,-2.145431\S,0,1.4777

 Normal termination of Gaussian 16 at Wed Apr  9 00:26:04 2025.
