 Gaussian 16, Revision C.01,

 ----------------------------------------------------------------------
 #t hf aug-cc-pvdz symm=none int=(grid=ultrafine) guess=(read,tcheck) s
 table=(opt,rrhf)
 ----------------------------------------------------------------------
 -----
 title
 -----
 Symbolic Z-matrix:
 Charge =  0 Multiplicity = 1

 SCF Done:  E(RHF) =  -617.666639927     A.U. after   14 cycles
 Normal termination of Gaussian 16 at Tue Apr  8 23:30:08 2025.
 Gaussian 16:  ES64L-G16RevC.01  3-Jul-2019

 ----------------------------------------------------------------------
 #t hf aug-cc-pvdz iop(5/13=1,5/36=2,99/5=2) pseudo=read geom=check gue
 ss=(read,tcheck) scf=(maxcycle=1)
 ----------------------------------------------------------------------
 -----
 title
 -----
 Structure from the checkpoint file:  "BDE49_nonexpt_136_mol1.chk"
 Charge =  0 Multiplicity = 1

                         Standard orientation:
 ---------------------------------------------------------------------
 Center     Atomic      Atomic             Coordinates (Angstroms)
 Number     Number       Type             X           Y           Z
 ---------------------------------------------------------------------
      1          5           0       -2.692037   -0.012386   -0.077087
      2          5           0       -1.315293   -0.829285   -0.367772
      3         15           0        0.382507   -0.074889    0.100968
      4          8           0        1.348055   -0.078057   -1.202568
      5          8           0        0.076741    1.499843    0.212520
      6          1           0        1.909634   -0.863307   -1.218504
      7          1           0        0.857231    2.034165    0.411549
      8          8           0        0.976618   -0.738896    1.276267
      9          1           0       -1.244365   -1.926372   -0.826295
     10          1           0       -3.244181   -0.039170    0.981111
     11          1           0       -3.190593    0.663254   -0.927846
 ---------------------------------------------------------------------

 SCF Done:  E(RHF) =  -617.985643822     A.U. after    2 cycles

 The electronic state is 1-A.
 Alpha  occ. eigenvalues --  -84.41831 -20.59496 -20.59355 -20.50265  -7.61850
 Alpha  occ. eigenvalues --   -7.60371  -6.87261  -4.41334  -4.40622  -4.39750
 Alpha  occ. eigenvalues --   -1.53132  -1.47153  -1.38426  -0.88309  -0.77810
 Alpha  occ. eigenvalues --   -0.73629  -0.68750  -0.65684  -0.61894  -0.58411
 Alpha  occ. eigenvalues --   -0.55514  -0.54790  -0.51410  -0.50148  -0.47983
 Alpha  occ. eigenvalues --   -0.45279  -0.41856
 Alpha virt. eigenvalues --    0.02929   0.03302   0.03706   0.03763   0.05144
 Alpha virt. eigenvalues --    0.05221   0.05727   0.07863   0.08525   0.09397
 Alpha virt. eigenvalues --    0.09463   0.10903   0.11470   0.12585   0.13446

 Mulliken charges:
               1
     1  B   -0.404177
     2  B   -0.249229
     3  P    3.278346
     4  O   -1.359827
     5  O   -1.276501
     6  H    0.350064
     7  H    0.343097
     8  O   -1.473710
     9  H    0.227151
    10  H    0.292691
    11  H    0.272095
 Sum of Mulliken charges =  -0.00000

 Dipole moment (field-independent basis, Debye):
    X=             -0.4114    Y=              0.4661    Z=             -2.4179  Tot=              2.4966

 Test job not archived.
 1\1\GINC-SE109\SP\RHF\Aug-CC-pVDZ\B2H5O3P1\OHZDE\08-Apr-2025\0\\#t hf
 aug-cc-pvdz iop(5/13=1,5/36=2,99/5=2) pseudo=read geom=check guess=(re
 ad,tcheck) scf=(maxcycle=1)\\title\\0,1\B,0,-2.692037,-0.012386,-0.077
 087\B,0,-1.315293,-0.829285,-0.367772\P,0,0.382507,-0.074889,0.100968\
 O,0,1.348055,-0.078057,-1.202568\O,0,0.076741,1.499843,0.21252\H,0,1.9
 09634,-0.863307,-1.218504\H,0,0.857231,2.034165,0.411549\O,0,0.976618,
 -0.738896,1.276267\H,0,-1.244365,-1.926372,-0.826295\H,0,-3.244181,-0.
 03917,0.981111\H,0,-3.190593,0.663254,-0.927846\\Version=ES64L-G16RevC

 Normal termination of Gaussian 16 at Tue Apr  8 23:30:12 2025.
