 Gaussian 16, Revision C.01,

 ----------------------------------------------------------------------
 #t hf aug-cc-pvdz symm=none int=(grid=ultrafine) guess=(read,tcheck) s
 table=(opt,rrhf)
 ----------------------------------------------------------------------
 -----
 title
 -----
 Symbolic Z-matrix:
 Charge =  0 Multiplicity = 1

 SCF Done:  E(RHF) =  -1087.17994610     A.U. after   15 cycles
 Normal termination of Gaussian 16 at Tue Apr  8 23:15:25 2025.
 Gaussian 16:  ES64L-G16RevC.01  3-Jul-2019

 ----------------------------------------------------------------------
 #t hf aug-cc-pvdz iop(5/13=1,5/36=2,99/5=2) pseudo=read geom=check gue
 ss=(read,tcheck) scf=(maxcycle=1)
 ----------------------------------------------------------------------
 -----
 title
 -----
 Structure from the checkpoint file:  "BDE49_expt_852_mol1.chk"
 Charge =  0 Multiplicity = 1

                         Standard orientation:
 ---------------------------------------------------------------------
 Center     Atomic      Atomic             Coordinates (Angstroms)
 Number     Number       Type             X           Y           Z
 ---------------------------------------------------------------------
      1          6           0       -1.241660    1.389084    0.000000
      2          6           0       -1.204920   -0.000463    0.000000
      3          6           0       -0.006249   -0.704689    0.000000
      4          6           0       -0.032633    2.081090    0.000000
      5          6           0        1.180932    1.403054    0.000000
      6          6           0        1.198021    0.003974    0.000000
      7          1           0       -2.188976    1.910943    0.000001
      8         17           0       -2.712794   -0.901702    0.000000
      9          1           0       -0.021754   -1.786545    0.000000
     10          1           0       -0.039022    3.164920    0.000001
     11          1           0        2.112001    1.957447    0.000000
     12         16           0        2.785520   -0.805245    0.000000
     13          1           0        2.325983   -2.066228   -0.000002
 ---------------------------------------------------------------------

 SCF Done:  E(RHF) =  -1087.54869254     A.U. after    2 cycles

 The electronic state is 1-A.
 Alpha  occ. eigenvalues -- -105.57822 -93.97482 -11.32235 -11.30172 -11.26786
 Alpha  occ. eigenvalues --  -11.26744 -11.26140 -11.26128 -10.62615  -8.25589
 Alpha  occ. eigenvalues --   -7.79581  -7.79182  -7.79165  -6.23447  -6.23294
 Alpha  occ. eigenvalues --   -6.23057  -1.19913  -1.11822  -1.07515  -1.00775
 Alpha  occ. eigenvalues --   -0.98243  -0.85925  -0.82287  -0.72482  -0.68822
 Alpha  occ. eigenvalues --   -0.65359  -0.61292  -0.60799  -0.56722  -0.55102
 Alpha  occ. eigenvalues --   -0.53421  -0.49836  -0.49785  -0.46859  -0.43057
 Alpha  occ. eigenvalues --   -0.36109  -0.32925
 Alpha virt. eigenvalues --    0.03301   0.03724   0.04225   0.05738   0.06047
 Alpha virt. eigenvalues --    0.07805   0.08299   0.08957   0.09967   0.10818
 Alpha virt. eigenvalues --    0.10904   0.12570   0.13070   0.13439   0.13850

 Mulliken charges:
               1
     1  C   -0.040294
     2  C    0.193070
     3  C    0.494157
     4  C    0.351654
     5  C   -0.483251
     6  C    0.436796
     7  H   -0.168140
     8  Cl  -0.323741
     9  H   -0.212982
    10  H   -0.205440
    11  H   -0.221885
    12  S   -0.132622
    13  H    0.312678
 Sum of Mulliken charges =  -0.00000

 Dipole moment (field-independent basis, Debye):
    X=              0.5287    Y=              0.6913    Z=              0.0000  Tot=              0.8702

 Test job not archived.
 1\1\GINC-SE166\SP\RHF\Aug-CC-pVDZ\C6H5Cl1S1\OHZDE\08-Apr-2025\0\\#t hf
  aug-cc-pvdz iop(5/13=1,5/36=2,99/5=2) pseudo=read geom=check guess=(r
 ead,tcheck) scf=(maxcycle=1)\\title\\0,1\C,0,-1.24166,1.389084,0.\C,0,
 -1.20492,-0.000463,0.\C,0,-0.006249,-0.704689,0.\C,0,-0.032633,2.08109
 ,0.\C,0,1.180932,1.403054,0.\C,0,1.198021,0.003974,0.\H,0,-2.188976,1.
 910943,0.000001\Cl,0,-2.712794,-0.901702,0.\H,0,-0.021754,-1.786545,0.
 \H,0,-0.039022,3.16492,0.000001\H,0,2.112001,1.957447,0.\S,0,2.78552,-
 0.805245,0.\H,0,2.325983,-2.066228,-0.000002\\Version=ES64L-G16RevC.01

 Normal termination of Gaussian 16 at Tue Apr  8 23:15:31 2025.
