 Gaussian 16, Revision C.01,

 ----------------------------------------------------------------------
 #t hf aug-cc-pvdz symm=none int=(grid=ultrafine) guess=(read,tcheck) s
 table=(opt,rrhf)
 ----------------------------------------------------------------------
 -----
 title
 -----
 Symbolic Z-matrix:
 Charge =  0 Multiplicity = 1

 SCF Done:  E(RHF) =  -932.219399231     A.U. after   12 cycles
 Normal termination of Gaussian 16 at Tue Apr  8 23:57:28 2025.
 Gaussian 16:  ES64L-G16RevC.01  3-Jul-2019

 ----------------------------------------------------------------------
 #t hf aug-cc-pvdz iop(5/13=1,5/36=2,99/5=2) pseudo=read geom=check gue
 ss=(read,tcheck) scf=(maxcycle=1)
 ----------------------------------------------------------------------
 -----
 title
 -----
 Structure from the checkpoint file:  "BDE49_nonexpt_2040_mol1.chk"
 Charge =  0 Multiplicity = 1

                         Standard orientation:
 ---------------------------------------------------------------------
 Center     Atomic      Atomic             Coordinates (Angstroms)
 Number     Number       Type             X           Y           Z
 ---------------------------------------------------------------------
      1         14           0       -2.230034   -0.013183   -0.018411
      2         15           0        0.751853   -0.032930    0.101441
      3          8           0        0.790311   -0.532012    1.478014
      4          8           0        1.693615   -0.827575   -0.918250
      5          1           0        1.858425   -1.726023   -0.609005
      6          8           0        1.188970    1.481293   -0.134989
      7          1           0        1.966551    1.716938    0.384614
      8          8           0       -0.657879   -0.033125   -0.599301
      9          1           0       -3.072035    0.248849   -1.198278
     10          1           0       -2.380268    1.057183    0.985235
     11          1           0       -2.550141   -1.327077    0.569783
 ---------------------------------------------------------------------

 SCF Done:  E(RHF) =  -932.593456533     A.U. after    2 cycles

 The electronic state is 1-A.
 Alpha  occ. eigenvalues --  -84.46706 -69.58261 -20.60022 -20.59877 -20.58081
 Alpha  occ. eigenvalues --  -20.51127  -6.91498  -6.24797  -4.45681  -4.45044
 Alpha  occ. eigenvalues --   -4.44919  -4.00326  -4.00132  -4.00118  -1.56532
 Alpha  occ. eigenvalues --   -1.48408  -1.47525  -1.39472  -0.89143  -0.77480
 Alpha  occ. eigenvalues --   -0.75001  -0.69752  -0.66443  -0.63751  -0.60777
 Alpha  occ. eigenvalues --   -0.59229  -0.57706  -0.54751  -0.53484  -0.49683
 Alpha  occ. eigenvalues --   -0.48366  -0.46547  -0.46152
 Alpha virt. eigenvalues --    0.03407   0.03994   0.04610   0.06008   0.06516
 Alpha virt. eigenvalues --    0.07443   0.09309   0.09336   0.10379   0.11336
 Alpha virt. eigenvalues --    0.12813   0.13995   0.14718   0.17009   0.18916

 Mulliken charges:
               1
     1  Si   1.358787
     2  P    4.205180
     3  O   -1.353396
     4  O   -1.177840
     5  H    0.323359
     6  O   -1.164707
     7  H    0.321847
     8  O   -2.032768
     9  H   -0.153125
    10  H   -0.166268
    11  H   -0.161068
 Sum of Mulliken charges =   0.00000

 Dipole moment (field-independent basis, Debye):
    X=              0.0010    Y=             -0.0040    Z=             -1.0250  Tot=              1.0251

 Test job not archived.
 1\1\GINC-SE334\SP\RHF\Aug-CC-pVDZ\H5O4P1Si1\OHZDE\08-Apr-2025\0\\#t hf
  aug-cc-pvdz iop(5/13=1,5/36=2,99/5=2) pseudo=read geom=check guess=(r
 ead,tcheck) scf=(maxcycle=1)\\title\\0,1\Si,0,-2.230034,-0.013183,-0.0
 18411\P,0,0.751853,-0.03293,0.101441\O,0,0.790311,-0.532012,1.478014\O
 ,0,1.693615,-0.827575,-0.91825\H,0,1.858425,-1.726023,-0.609005\O,0,1.
 18897,1.481293,-0.134989\H,0,1.966551,1.716938,0.384614\O,0,-0.657879,
 -0.033125,-0.599301\H,0,-3.072035,0.248849,-1.198278\H,0,-2.380268,1.0
 57183,0.985235\H,0,-2.550141,-1.327077,0.569783\\Version=ES64L-G16RevC

 Normal termination of Gaussian 16 at Tue Apr  8 23:57:32 2025.
