 Gaussian 16, Revision C.01,

 ----------------------------------------------------------------------
 #t hf aug-cc-pvdz symm=none int=(grid=ultrafine) guess=(read,tcheck) s
 table=(opt,rrhf)
 ----------------------------------------------------------------------
 -----
 title
 -----
 Symbolic Z-matrix:
 Charge =  0 Multiplicity = 1

 SCF Done:  E(RHF) =  -397.518009724     A.U. after   11 cycles
 Normal termination of Gaussian 16 at Tue Apr  8 23:33:47 2025.
 Gaussian 16:  ES64L-G16RevC.01  3-Jul-2019

 ----------------------------------------------------------------------
 #t hf aug-cc-pvdz iop(5/13=1,5/36=2,99/5=2) pseudo=read geom=check gue
 ss=(read,tcheck) scf=(maxcycle=1)
 ----------------------------------------------------------------------
 -----
 title
 -----
 Structure from the checkpoint file:  "BDE49_nonexpt_1457_mol1.chk"
 Charge =  0 Multiplicity = 1

                         Standard orientation:
 ---------------------------------------------------------------------
 Center     Atomic      Atomic             Coordinates (Angstroms)
 Number     Number       Type             X           Y           Z
 ---------------------------------------------------------------------
      1         15           0       -0.598081   -0.123633   -0.025893
      2          7           0        1.106225    0.042419   -0.073581
      3          1           0        1.608832   -0.806050    0.141263
      4          1           0        1.548318    0.849178    0.344717
      5          1           0       -0.954343    1.018646   -0.787982
      6          1           0       -0.975162    0.495783    1.205456
 ---------------------------------------------------------------------

 SCF Done:  E(RHF) =  -397.624794609     A.U. after    2 cycles

 The electronic state is 1-A.
 Alpha  occ. eigenvalues --  -84.29158 -15.49824  -6.75883  -4.28630  -4.27911
 Alpha  occ. eigenvalues --   -4.27454  -1.16598  -0.84440  -0.70650  -0.59719
 Alpha  occ. eigenvalues --   -0.53511  -0.43444  -0.34851
 Alpha virt. eigenvalues --    0.03266   0.05285   0.06181   0.07141   0.08684
 Alpha virt. eigenvalues --    0.10656   0.11258   0.16400   0.17614   0.18800
 Alpha virt. eigenvalues --    0.21629   0.22023   0.22657   0.23966   0.27258

 Mulliken charges:
               1
     1  P   -0.318893
     2  N   -0.227894
     3  H    0.024285
     4  H    0.022769
     5  H    0.245320
     6  H    0.254413
 Sum of Mulliken charges =   0.00000

 Dipole moment (field-independent basis, Debye):
    X=              0.7232    Y=              0.4122    Z=              1.0766  Tot=              1.3609

 Test job not archived.
 1\1\GINC-SE044\SP\RHF\Aug-CC-pVDZ\H4N1P1\OHZDE\08-Apr-2025\0\\#t hf au
 g-cc-pvdz iop(5/13=1,5/36=2,99/5=2) pseudo=read geom=check guess=(read
 ,tcheck) scf=(maxcycle=1)\\title\\0,1\P,0,-0.598081,-0.123633,-0.02589
 3\N,0,1.106225,0.042419,-0.073581\H,0,1.608832,-0.80605,0.141263\H,0,1
 .548318,0.849178,0.344717\H,0,-0.954343,1.018646,-0.787982\H,0,-0.9751
 62,0.495783,1.205456\\Version=ES64L-G16RevC.01\State=1-A\HF=-397.62479
 46\RMSD=2.615e-02\Dipole=0.2845244,0.1621916,0.4235554\Quadrupole=0.96
 33794,-0.0499756,-0.9134038,-1.0075659,1.2294487,-0.1338061\PG=C01 [X(

 Normal termination of Gaussian 16 at Tue Apr  8 23:33:49 2025.
