 Gaussian 16, Revision C.01,

 ----------------------------------------------------------------------
 #t hf aug-cc-pvdz symm=none int=(grid=ultrafine) guess=(read,tcheck) s
 table=(opt,rrhf)
 ----------------------------------------------------------------------
 -----
 title
 -----
 Symbolic Z-matrix:
 Charge =  0 Multiplicity = 1

 SCF Done:  E(RHF) =  -217.148914947     A.U. after   12 cycles
 Normal termination of Gaussian 16 at Tue Apr  8 22:30:21 2025.
 Gaussian 16:  ES64L-G16RevC.01  3-Jul-2019

 ----------------------------------------------------------------------
 #t hf aug-cc-pvdz iop(5/13=1,5/36=2,99/5=2) pseudo=read geom=check gue
 ss=(read,tcheck) scf=(maxcycle=1)
 ----------------------------------------------------------------------
 -----
 title
 -----
 Structure from the checkpoint file:  "BDE49_expt_1025_mol1.chk"
 Charge =  0 Multiplicity = 1

                         Standard orientation:
 ---------------------------------------------------------------------
 Center     Atomic      Atomic             Coordinates (Angstroms)
 Number     Number       Type             X           Y           Z
 ---------------------------------------------------------------------
      1          6           0       -0.283082   -0.583114    1.275519
      2          1           0        0.576130   -1.258735    1.292090
      3          1           0       -1.196444   -1.179938    1.349402
      4          1           0       -0.225820    0.070479    2.148333
      5          6           0       -0.283082    0.239404   -0.000000
      6          6           0       -0.283082   -0.583114   -1.275519
      7          9           0        0.879402    1.039925   -0.000000
      8          1           0       -0.225820    0.070479   -2.148333
      9          1           0        0.576130   -1.258735   -1.292090
     10          1           0       -1.126871    0.938012   -0.000000
     11          1           0       -1.196444   -1.179938   -1.349402
 ---------------------------------------------------------------------

 SCF Done:  E(RHF) =  -217.374316107     A.U. after    2 cycles

 The electronic state is 1-A'.
 Alpha  occ. eigenvalues --  -26.43089 -11.31943 -11.23468 -11.23451  -1.54932
 Alpha  occ. eigenvalues --   -1.06341  -0.95363  -0.81933  -0.69437  -0.65234
 Alpha  occ. eigenvalues --   -0.64718  -0.58028  -0.56065  -0.55079  -0.54043
 Alpha  occ. eigenvalues --   -0.49275  -0.48578
 Alpha virt. eigenvalues --    0.03647   0.04196   0.04242   0.05235   0.07253
 Alpha virt. eigenvalues --    0.07367   0.07853   0.11078   0.12829   0.14950
 Alpha virt. eigenvalues --    0.15056   0.15676   0.16610   0.17026   0.17397

 Mulliken charges:
               1
     1  C   -0.439422
     2  H    0.196287
     3  H    0.182131
     4  H    0.153687
     5  C    0.567201
     6  C   -0.439422
     7  F   -0.828339
     8  H    0.153687
     9  H    0.196287
    10  H    0.075769
    11  H    0.182131
 Sum of Mulliken charges =  -0.00000

 Dipole moment (field-independent basis, Debye):
    X=             -1.6238    Y=             -1.2592    Z=              0.0000  Tot=              2.0548

 Test job not archived.
 1\1\GINC-SE249\SP\RHF\Aug-CC-pVDZ\C3H7F1\OHZDE\08-Apr-2025\0\\#t hf au
 g-cc-pvdz iop(5/13=1,5/36=2,99/5=2) pseudo=read geom=check guess=(read
 ,tcheck) scf=(maxcycle=1)\\title\\0,1\C,0,-0.283082,-0.583114,1.275519
 \H,0,0.57613,-1.258735,1.29209\H,0,-1.196444,-1.179938,1.349402\H,0,-0
 .22582,0.070479,2.148333\C,0,-0.283082,0.239404,0.\C,0,-0.283082,-0.58
 3114,-1.275519\F,0,0.879402,1.039925,0.\H,0,-0.22582,0.070479,-2.14833
 3\H,0,0.57613,-1.258735,-1.29209\H,0,-1.126871,0.938012,0.\H,0,-1.1964
 44,-1.179938,-1.349402\\Version=ES64L-G16RevC.01\State=1-A'\HF=-217.37

 Normal termination of Gaussian 16 at Tue Apr  8 22:30:24 2025.
