 Gaussian 16, Revision C.01,

 ----------------------------------------------------------------------
 #t hf aug-cc-pvdz symm=none int=(grid=ultrafine) guess=(read,tcheck) s
 table=(opt,rrhf)
 ----------------------------------------------------------------------
 -----
 title
 -----
 Symbolic Z-matrix:
 Charge =  0 Multiplicity = 1

 SCF Done:  E(RHF) =  -597.293362841     A.U. after   16 cycles
 Normal termination of Gaussian 16 at Wed Apr  9 00:43:11 2025.
 Gaussian 16:  ES64L-G16RevC.01  3-Jul-2019

 ----------------------------------------------------------------------
 #t hf aug-cc-pvdz iop(5/13=1,5/36=2,99/5=2) pseudo=read geom=check gue
 ss=(read,tcheck) scf=(maxcycle=1)
 ----------------------------------------------------------------------
 -----
 title
 -----
 Structure from the checkpoint file:  "BDE49_nonexpt_711_mol1.chk"
 Charge =  0 Multiplicity = 1

                         Standard orientation:
 ---------------------------------------------------------------------
 Center     Atomic      Atomic             Coordinates (Angstroms)
 Number     Number       Type             X           Y           Z
 ---------------------------------------------------------------------
      1          6           0       -1.803756    1.293005   -0.093073
      2          6           0       -0.430927    1.134488   -0.255320
      3          6           0        0.154123   -0.134099   -0.149522
      4          6           0       -2.614897    0.187277    0.156735
      5          6           0       -2.042266   -1.079180    0.246735
      6          6           0       -0.667080   -1.241130    0.096119
      7          1           0       -2.241212    2.282130   -0.169894
      8          1           0        0.187218    2.001252   -0.462933
      9          1           0       -0.233695   -2.231798    0.178714
     10          1           0       -3.684917    0.311813    0.276582
     11          1           0       -2.664940   -1.945527    0.440319
     12          5           0        2.984070    0.646504    0.770248
     13         15           0        1.950609   -0.326758   -0.405540
     14          1           0        2.620697    1.717502    1.135738
     15          1           0        4.089459    0.263445    0.984547
     16          1           0        2.176734   -1.692127   -0.161260
 ---------------------------------------------------------------------

 SCF Done:  E(RHF) =  -597.603406852     A.U. after    2 cycles

 The electronic state is 1-A.
 Alpha  occ. eigenvalues --  -84.26352 -11.26302 -11.25158 -11.25084 -11.25035
 Alpha  occ. eigenvalues --  -11.24985 -11.24778  -7.60825  -6.73931  -4.27004
 Alpha  occ. eigenvalues --   -4.26700  -4.25703  -1.16221  -1.03422  -1.02412
 Alpha  occ. eigenvalues --   -0.89347  -0.84234  -0.81225  -0.71936  -0.67906
 Alpha  occ. eigenvalues --   -0.65056  -0.63884  -0.60682  -0.57267  -0.52725
 Alpha  occ. eigenvalues --   -0.51943  -0.51355  -0.47968  -0.45711  -0.38445
 Alpha  occ. eigenvalues --   -0.35350  -0.29723
 Alpha virt. eigenvalues --    0.03235   0.03480   0.03818   0.04195   0.04680
 Alpha virt. eigenvalues --    0.04925   0.06390   0.06938   0.08079   0.08777
 Alpha virt. eigenvalues --    0.09186   0.09807   0.10341   0.11345   0.11670

 Mulliken charges:
               1
     1  C    0.504857
     2  C   -0.182199
     3  C   -0.023168
     4  C    0.086406
     5  C    0.569013
     6  C   -0.025291
     7  H   -0.216817
     8  H   -0.276912
     9  H   -0.273652
    10  H   -0.210875
    11  H   -0.216207
    12  B   -0.385003
    13  P   -0.148615
    14  H    0.337931
    15  H    0.294560
    16  H    0.165973
 Sum of Mulliken charges =  -0.00000

 Dipole moment (field-independent basis, Debye):
    X=             -1.0793    Y=             -0.4585    Z=              0.2897  Tot=              1.2078

 Test job not archived.
 1\1\GINC-SE227\SP\RHF\Aug-CC-pVDZ\C6H8B1P1\OHZDE\09-Apr-2025\0\\#t hf
 aug-cc-pvdz iop(5/13=1,5/36=2,99/5=2) pseudo=read geom=check guess=(re
 ad,tcheck) scf=(maxcycle=1)\\title\\0,1\C,0,-1.803756,1.293005,-0.0930
 73\C,0,-0.430927,1.134488,-0.25532\C,0,0.154123,-0.134099,-0.149522\C,
 0,-2.614897,0.187277,0.156735\C,0,-2.042266,-1.07918,0.246735\C,0,-0.6
 6708,-1.24113,0.096119\H,0,-2.241212,2.28213,-0.169894\H,0,0.187218,2.
 001252,-0.462933\H,0,-0.233695,-2.231798,0.178714\H,0,-3.684917,0.3118
 13,0.276582\H,0,-2.66494,-1.945527,0.440319\B,0,2.98407,0.646504,0.770

 Normal termination of Gaussian 16 at Wed Apr  9 00:43:18 2025.
