 Gaussian 16, Revision C.01,

 ----------------------------------------------------------------------
 #t hf aug-cc-pvdz symm=none int=(grid=ultrafine) guess=(read,tcheck) s
 table=(opt,rrhf)
 ----------------------------------------------------------------------
 -----
 title
 -----
 Symbolic Z-matrix:
 Charge =  0 Multiplicity = 1

 SCF Done:  E(RHF) =  -524.439852892     A.U. after   13 cycles
 Normal termination of Gaussian 16 at Tue Apr  8 22:36:27 2025.
 Gaussian 16:  ES64L-G16RevC.01  3-Jul-2019

 ----------------------------------------------------------------------
 #t hf aug-cc-pvdz iop(5/13=1,5/36=2,99/5=2) pseudo=read geom=check gue
 ss=(read,tcheck) scf=(maxcycle=1)
 ----------------------------------------------------------------------
 -----
 title
 -----
 Structure from the checkpoint file:  "BDE49_expt_1108_mol1.chk"
 Charge =  0 Multiplicity = 1

                         Standard orientation:
 ---------------------------------------------------------------------
 Center     Atomic      Atomic             Coordinates (Angstroms)
 Number     Number       Type             X           Y           Z
 ---------------------------------------------------------------------
      1          6           0        0.578598   -0.012509   -0.000039
      2          6           0       -0.970410   -0.156707   -0.000878
      3          8           0       -1.478047   -1.233200    0.000008
      4          8           0       -1.647812    0.997774   -0.000012
      5          1           0       -1.036353    1.747763    0.000080
      6          9           0        0.951516    1.297994    0.000301
      7          9           0        1.102233   -0.584917   -1.085229
      8          9           0        1.101151   -0.585195    1.085534
 ---------------------------------------------------------------------

 SCF Done:  E(RHF) =  -524.926270000     A.U. after    2 cycles

 The electronic state is 1-A.
 Alpha  occ. eigenvalues --  -26.55071 -26.54261 -26.54258 -20.64715 -20.58639
 Alpha  occ. eigenvalues --  -11.56597 -11.45011  -1.75394  -1.65427  -1.65223
 Alpha  occ. eigenvalues --   -1.59203  -1.50958  -1.04531  -0.91236  -0.87233
 Alpha  occ. eigenvalues --   -0.84790  -0.84633  -0.73318  -0.72600  -0.71212
 Alpha  occ. eigenvalues --   -0.69089  -0.68232  -0.67661  -0.65780  -0.65594
 Alpha  occ. eigenvalues --   -0.61104  -0.51589  -0.49246
 Alpha virt. eigenvalues --    0.03358   0.07487   0.08380   0.09054   0.11140
 Alpha virt. eigenvalues --    0.11335   0.11934   0.12627   0.12993   0.18754
 Alpha virt. eigenvalues --    0.19712   0.20180   0.23656   0.24539   0.25898

 Mulliken charges:
               1
     1  C    2.330356
     2  C    1.604192
     3  O   -1.073606
     4  O   -1.166972
     5  H    0.441715
     6  F   -0.783257
     7  F   -0.676214
     8  F   -0.676214
 Sum of Mulliken charges =  -0.00000

 Dipole moment (field-independent basis, Debye):
    X=              1.0282    Y=              2.7766    Z=             -0.0019  Tot=              2.9608

 Test job not archived.
 1\1\GINC-SE029\SP\RHF\Aug-CC-pVDZ\C2H1F3O2\OHZDE\08-Apr-2025\0\\#t hf
 aug-cc-pvdz iop(5/13=1,5/36=2,99/5=2) pseudo=read geom=check guess=(re
 ad,tcheck) scf=(maxcycle=1)\\title\\0,1\C,0,0.578598,-0.012509,-0.0000
 39\C,0,-0.97041,-0.156707,-0.000878\O,0,-1.478047,-1.2332,0.000008\O,0
 ,-1.647812,0.997774,-0.000012\H,0,-1.036353,1.747763,0.00008\F,0,0.951
 516,1.297994,0.000301\F,0,1.102233,-0.584917,-1.085229\F,0,1.101151,-0
 .585195,1.085534\\Version=ES64L-G16RevC.01\State=1-A\HF=-524.92627\RMS
 D=8.300e-03\Dipole=0.4045226,1.0923914,-0.0007515\Quadrupole=-2.876877

 Normal termination of Gaussian 16 at Tue Apr  8 22:36:29 2025.
