 Gaussian 16, Revision C.01,

 ----------------------------------------------------------------------
 #t hf aug-cc-pvdz symm=none int=(grid=ultrafine) guess=(read,tcheck) s
 table=(opt,rrhf)
 ----------------------------------------------------------------------
 -----
 title
 -----
 Symbolic Z-matrix:
 Charge =  0 Multiplicity = 1

 SCF Done:  E(RHF) =  -743.387891176     A.U. after   15 cycles
 Normal termination of Gaussian 16 at Wed Apr  9 00:22:34 2025.
 Gaussian 16:  ES64L-G16RevC.01  3-Jul-2019

 ----------------------------------------------------------------------
 #t hf aug-cc-pvdz iop(5/13=1,5/36=2,99/5=2) pseudo=read geom=check gue
 ss=(read,tcheck) scf=(maxcycle=1)
 ----------------------------------------------------------------------
 -----
 title
 -----
 Structure from the checkpoint file:  "BDE49_nonexpt_2658_mol1.chk"
 Charge =  0 Multiplicity = 1

                         Standard orientation:
 ---------------------------------------------------------------------
 Center     Atomic      Atomic             Coordinates (Angstroms)
 Number     Number       Type             X           Y           Z
 ---------------------------------------------------------------------
      1          9           0        2.542945   -0.384047    0.005287
      2         16           0        1.325785    0.728098    0.014325
      3          6           0       -0.050905   -0.493007   -0.026520
      4          8           0        0.190621   -1.671926   -0.007743
      5          7           0       -1.279728    0.090491   -0.073983
      6          6           0       -2.466010   -0.751401    0.038694
      7          1           0       -2.159659   -1.791370   -0.043416
      8          1           0       -3.169748   -0.514717   -0.764331
      9          1           0       -2.963481   -0.598770    1.002982
     10          6           0       -1.457772    1.529597    0.003883
     11          1           0       -0.597831    2.046094   -0.433453
     12          1           0       -1.597932    1.878435    1.033289
     13          1           0       -2.329167    1.818023   -0.588363
 ---------------------------------------------------------------------

 SCF Done:  E(RHF) =  -743.787631309     A.U. after    2 cycles

 The electronic state is 1-A.
 Alpha  occ. eigenvalues --  -94.05080 -26.47663 -20.53629 -15.55421 -11.40593
 Alpha  occ. eigenvalues --  -11.30426 -11.28605  -8.32398  -6.30186  -6.29874
 Alpha  occ. eigenvalues --   -6.29604  -1.58149  -1.49127  -1.28569  -1.04953
 Alpha  occ. eigenvalues --   -1.00848  -0.96301  -0.78723  -0.73252  -0.70185
 Alpha  occ. eigenvalues --   -0.69941  -0.65939  -0.65032  -0.63771  -0.60381
 Alpha  occ. eigenvalues --   -0.59595  -0.57265  -0.57048  -0.55000  -0.43197
 Alpha  occ. eigenvalues --   -0.42487  -0.40112
 Alpha virt. eigenvalues --    0.02700   0.04032   0.04135   0.05142   0.06194
 Alpha virt. eigenvalues --    0.07142   0.07820   0.08227   0.10460   0.11721
 Alpha virt. eigenvalues --    0.12792   0.13272   0.13756   0.14540   0.15290

 Mulliken charges:
               1
     1  F   -0.686909
     2  S    0.969364
     3  C   -0.040990
     4  O   -1.077929
     5  N    0.742356
     6  C   -0.350884
     7  H    0.019931
     8  H    0.155525
     9  H    0.213148
    10  C   -0.413846
    11  H    0.146864
    12  H    0.184721
    13  H    0.138648
 Sum of Mulliken charges =  -0.00000

 Dipole moment (field-independent basis, Debye):
    X=             -4.0253    Y=              3.2270    Z=              0.0938  Tot=              5.1600

 Test job not archived.
 1\1\GINC-SE179\SP\RHF\Aug-CC-pVDZ\C3H6F1N1O1S1\OHZDE\09-Apr-2025\0\\#t
  hf aug-cc-pvdz iop(5/13=1,5/36=2,99/5=2) pseudo=read geom=check guess
 =(read,tcheck) scf=(maxcycle=1)\\title\\0,1\F,0,2.542945,-0.384047,0.0
 05287\S,0,1.325785,0.728098,0.014325\C,0,-0.050905,-0.493007,-0.02652\
 O,0,0.190621,-1.671926,-0.007743\N,0,-1.279728,0.090491,-0.073983\C,0,
 -2.46601,-0.751401,0.038694\H,0,-2.159659,-1.79137,-0.043416\H,0,-3.16
 9748,-0.514717,-0.764331\H,0,-2.963481,-0.59877,1.002982\C,0,-1.457772
 ,1.529597,0.003883\H,0,-0.597831,2.046094,-0.433453\H,0,-1.597932,1.87

 Normal termination of Gaussian 16 at Wed Apr  9 00:22:38 2025.
