 Gaussian 16, Revision C.01,

 ----------------------------------------------------------------------
 #t hf aug-cc-pvdz symm=none int=(grid=ultrafine) guess=(read,tcheck) s
 table=(opt,rrhf)
 ----------------------------------------------------------------------
 -----
 title
 -----
 Symbolic Z-matrix:
 Charge =  0 Multiplicity = 1

 SCF Done:  E(RHF) =  -931.384923246     A.U. after   15 cycles
 Normal termination of Gaussian 16 at Wed Apr  9 00:06:29 2025.
 Gaussian 16:  ES64L-G16RevC.01  3-Jul-2019

 ----------------------------------------------------------------------
 #t hf aug-cc-pvdz iop(5/13=1,5/36=2,99/5=2) pseudo=read geom=check gue
 ss=(read,tcheck) scf=(maxcycle=1)
 ----------------------------------------------------------------------
 -----
 title
 -----
 Structure from the checkpoint file:  "BDE49_nonexpt_2209_mol1.chk"
 Charge =  0 Multiplicity = 1

                         Standard orientation:
 ---------------------------------------------------------------------
 Center     Atomic      Atomic             Coordinates (Angstroms)
 Number     Number       Type             X           Y           Z
 ---------------------------------------------------------------------
      1          6           0       -1.209817    0.041626   -0.035645
      2          6           0       -0.666193    1.328984   -0.022392
      3          6           0        0.708218    1.507511   -0.008639
      4          6           0       -0.363340   -1.064286   -0.033361
      5          6           0        1.016926   -0.892086   -0.019946
      6          6           0        1.557385    0.396289   -0.005802
      7          1           0       -0.780404   -2.063011   -0.050441
      8          1           0        1.665914   -1.760342   -0.023188
      9          8           0        2.897553    0.636354    0.007001
     10         14           0        4.200429   -0.402545    0.012597
     11          1           0       -1.321855    2.190783   -0.032374
     12          1           0        1.147528    2.496937   -0.002968
     13          6           0       -2.698462   -0.139586    0.002381
     14          9           0       -3.343477    0.812338   -0.709818
     15          9           0       -3.187135   -0.068245    1.265136
     16          9           0       -3.081052   -1.338019   -0.491527
     17          1           0        5.380530    0.477033    0.028660
     18          1           0        4.190242   -1.253605   -1.198068
     19          1           0        4.168289   -1.268382    1.212317
 ---------------------------------------------------------------------

 SCF Done:  E(RHF) =  -932.031671234     A.U. after    2 cycles

 The electronic state is 1-A.
 Alpha  occ. eigenvalues --  -69.58099 -26.50095 -26.49935 -26.49470 -20.57822
 Alpha  occ. eigenvalues --  -11.51814 -11.33772 -11.27616 -11.27434 -11.26855
 Alpha  occ. eigenvalues --  -11.26189 -11.25706  -6.24693  -4.00198  -4.00042
 Alpha  occ. eigenvalues --   -4.00020  -1.70461  -1.60619  -1.60020  -1.49584
 Alpha  occ. eigenvalues --   -1.18265  -1.06593  -1.04773  -0.95381  -0.88433
 Alpha  occ. eigenvalues --   -0.86856  -0.80319  -0.79901  -0.79643  -0.78458
 Alpha  occ. eigenvalues --   -0.70672  -0.69020  -0.68007  -0.66952  -0.65941
 Alpha  occ. eigenvalues --   -0.63569  -0.62720  -0.62216  -0.62131  -0.61710
 Alpha  occ. eigenvalues --   -0.61116  -0.57065  -0.54850  -0.52818  -0.52692
 Alpha  occ. eigenvalues --   -0.48646  -0.48605  -0.37384  -0.35004
 Alpha virt. eigenvalues --    0.02844   0.03541   0.03988   0.04945   0.05104
 Alpha virt. eigenvalues --    0.06066   0.06779   0.08191   0.08659   0.08827
 Alpha virt. eigenvalues --    0.09070   0.09084   0.10159   0.11219   0.11674

 Mulliken charges:
               1
     1  C    0.662371
     2  C    0.125452
     3  C    0.348704
     4  C   -0.080634
     5  C    0.553410
     6  C    0.747533
     7  H   -0.257148
     8  H   -0.320234
     9  O   -2.228745
    10  Si   1.293110
    11  H   -0.275833
    12  H   -0.270454
    13  C    2.559061
    14  F   -0.822377
    15  F   -0.755826
    16  F   -0.840959
    17  H   -0.171418
    18  H   -0.133964
    19  H   -0.132049
 Sum of Mulliken charges =  -0.00000

 Dipole moment (field-independent basis, Debye):
    X=              3.3629    Y=             -0.3537    Z=             -0.0738  Tot=              3.3822

 Test job not archived.
 1\1\GINC-SE073\SP\RHF\Aug-CC-pVDZ\C7H7F3O1Si1\OHZDE\09-Apr-2025\0\\#t
 hf aug-cc-pvdz iop(5/13=1,5/36=2,99/5=2) pseudo=read geom=check guess=
 (read,tcheck) scf=(maxcycle=1)\\title\\0,1\C,0,-1.209817,0.041626,-0.0
 35645\C,0,-0.666193,1.328984,-0.022392\C,0,0.708218,1.507511,-0.008639
 \C,0,-0.36334,-1.064286,-0.033361\C,0,1.016926,-0.892086,-0.019946\C,0
 ,1.557385,0.396289,-0.005802\H,0,-0.780404,-2.063011,-0.050441\H,0,1.6
 65914,-1.760342,-0.023188\O,0,2.897553,0.636354,0.007001\Si,0,4.200429
 ,-0.402545,0.012597\H,0,-1.321855,2.190783,-0.032374\H,0,1.147528,2.49

 Normal termination of Gaussian 16 at Wed Apr  9 00:06:42 2025.
