 Gaussian 16, Revision C.01,

 ----------------------------------------------------------------------
 #t hf aug-cc-pvdz symm=none int=(grid=ultrafine) guess=(read,tcheck) s
 table=opt
 ----------------------------------------------------------------------
 -----
 title
 -----
 Symbolic Z-matrix:
 Charge =  0 Multiplicity = 2

 SCF Done:  E(UHF) =  -380.914935495     A.U. after   15 cycles
 Normal termination of Gaussian 16 at Tue Apr  8 23:12:45 2025.
 Gaussian 16:  ES64L-G16RevC.01  3-Jul-2019

 ----------------------------------------------------------------------
 #t hf aug-cc-pvdz iop(5/13=1,5/36=2,99/5=2) pseudo=read geom=check gue
 ss=(read,tcheck) scf=(maxcycle=1)
 ----------------------------------------------------------------------
 -----
 title
 -----
 Structure from the checkpoint file:  "BDE49_expt_817_mol2.chk"
 Charge =  0 Multiplicity = 2

                         Standard orientation:
 ---------------------------------------------------------------------
 Center     Atomic      Atomic             Coordinates (Angstroms)
 Number     Number       Type             X           Y           Z
 ---------------------------------------------------------------------
      1         15           0       -0.705109   -0.098768   -0.000001
      2          6           0        1.150432    0.012650    0.000001
      3          1           0       -0.930282    1.308734    0.000003
      4          1           0        1.575866   -0.992435   -0.000002
      5          1           0        1.514233    0.544659    0.884252
      6          1           0        1.514234    0.544663   -0.884247
 ---------------------------------------------------------------------

 SCF Done:  E(UHF) =  -381.001355213     A.U. after    2 cycles

 The electronic state is 2-A.
 Alpha  occ. eigenvalues --  -84.27695 -11.24358  -6.74885  -4.27318  -4.26756
 Alpha  occ. eigenvalues --   -4.26214  -0.99137  -0.79426  -0.58707  -0.58468
 Alpha  occ. eigenvalues --   -0.47708  -0.38285  -0.32069
 Alpha virt. eigenvalues --    0.03673   0.05034   0.05627   0.06061   0.09454
 Alpha virt. eigenvalues --    0.11224   0.11982   0.13403   0.15684   0.16146
 Alpha virt. eigenvalues --    0.17034   0.20239   0.22297   0.24445   0.25745

  Beta  occ. eigenvalues --  -84.27015 -11.24497  -6.74023  -4.26225  -4.25822
  Beta  occ. eigenvalues --   -4.23983  -0.97853  -0.73764  -0.58403  -0.57014
  Beta  occ. eigenvalues --   -0.47387  -0.36074
  Beta virt. eigenvalues --    0.03744   0.04138   0.05090   0.06170   0.06512
  Beta virt. eigenvalues --    0.09543   0.11306   0.13751   0.14440   0.16424
  Beta virt. eigenvalues --    0.17156   0.17373   0.20814   0.23796   0.25879

 Mulliken charges and spin densities:
               1          2
     1  P    0.316170   1.261680
     2  C   -0.820856  -0.107898
     3  H    0.202906  -0.165946
     4  H    0.087718  -0.000417
     5  H    0.107031   0.006291
     6  H    0.107031   0.006291
 Sum of Mulliken charges =  -0.00000   1.00000

 Dipole moment (field-independent basis, Debye):
    X=              0.9645    Y=              0.3786    Z=              0.0000  Tot=              1.0361
                          Isotropic Fermi Contact Couplings
        Atom                 a.u.       MegaHertz       Gauss      10(-4) cm-1
     1  P(31)              0.20316     367.94875     131.29327     122.73449
     2  C(13)             -0.02689     -30.22857     -10.78631     -10.08317
     3  H(1)              -0.01378     -61.57607     -21.97187     -20.53956
     4  H(1)               0.00027       1.22481       0.43704       0.40855
     5  H(1)               0.01115      49.84877      17.78728      16.62776
     6  H(1)               0.01115      49.84885      17.78731      16.62779
 --------------------------------------------------------
       Center         ----  Spin Dipole Couplings  ----

 Normal termination of Gaussian 16 at Tue Apr  8 23:12:47 2025.
