 Gaussian 16, Revision C.01,

 ----------------------------------------------------------------------
 #t hf aug-cc-pvdz symm=none int=(grid=ultrafine) guess=(read,tcheck) s
 table=(opt,rrhf)
 ----------------------------------------------------------------------
 -----
 title
 -----
 Symbolic Z-matrix:
 Charge =  0 Multiplicity = 1

 SCF Done:  E(RHF) =  -156.125911390     A.U. after   11 cycles
 Normal termination of Gaussian 16 at Tue Apr  8 23:05:44 2025.
 Gaussian 16:  ES64L-G16RevC.01  3-Jul-2019

 ----------------------------------------------------------------------
 #t hf aug-cc-pvdz iop(5/13=1,5/36=2,99/5=2) pseudo=read geom=check gue
 ss=(read,tcheck) scf=(maxcycle=1)
 ----------------------------------------------------------------------
 -----
 title
 -----
 Structure from the checkpoint file:  "BDE49_expt_39_mol1.chk"
 Charge =  0 Multiplicity = 1

                         Standard orientation:
 ---------------------------------------------------------------------
 Center     Atomic      Atomic             Coordinates (Angstroms)
 Number     Number       Type             X           Y           Z
 ---------------------------------------------------------------------
      1          6           0       -0.000000    0.663468    0.667202
      2          6           0       -0.000000    0.663468   -0.667202
      3          6           0        0.000000   -0.521741    1.589833
      4          1           0       -0.000000    1.631382    1.165003
      5          1           0       -0.878133   -0.503254    2.245325
      6          1           0        0.878135   -0.503256    2.245323
      7          1           0       -0.000002   -1.475235    1.059771
      8          6           0        0.000000   -0.521741   -1.589833
      9          1           0       -0.878133   -0.503254   -2.245325
     10          1           0       -0.000002   -1.475235   -1.059771
     11          1           0        0.878135   -0.503256   -2.245323
     12          1           0       -0.000000    1.631382   -1.165003
 ---------------------------------------------------------------------

 SCF Done:  E(RHF) =  -156.301051861     A.U. after    2 cycles

 The electronic state is 1-A'.
 Alpha  occ. eigenvalues --  -11.23192 -11.23073 -11.22905 -11.22886  -1.07772
 Alpha  occ. eigenvalues --   -0.97929  -0.89786  -0.72510  -0.66122  -0.58172
 Alpha  occ. eigenvalues --   -0.57712  -0.55831  -0.54276  -0.52052  -0.48029
 Alpha  occ. eigenvalues --   -0.35041
 Alpha virt. eigenvalues --    0.03872   0.04185   0.04324   0.05184   0.06182
 Alpha virt. eigenvalues --    0.06634   0.06922   0.09836   0.11859   0.13520
 Alpha virt. eigenvalues --    0.13916   0.15011   0.15057   0.15575   0.16263

 Mulliken charges:
               1
     1  C    0.248154
     2  C    0.248154
     3  C   -0.669854
     4  H   -0.174657
     5  H    0.248429
     6  H    0.248430
     7  H    0.099499
     8  C   -0.669854
     9  H    0.248429
    10  H    0.099499
    11  H    0.248430
    12  H   -0.174657
 Sum of Mulliken charges =  -0.00000

 Dipole moment (field-independent basis, Debye):
    X=             -0.0000    Y=             -0.2492    Z=              0.0000  Tot=              0.2492

 Test job not archived.
 1\1\GINC-SE368\SP\RHF\Aug-CC-pVDZ\C4H8\OHZDE\08-Apr-2025\0\\#t hf aug-
 cc-pvdz iop(5/13=1,5/36=2,99/5=2) pseudo=read geom=check guess=(read,t
 check) scf=(maxcycle=1)\\title\\0,1\C,0,0.,0.663468,0.667202\C,0,0.,0.
 663468,-0.667202\C,0,0.,-0.521741,1.589833\H,0,0.,1.631382,1.165003\H,
 0,-0.878133,-0.503254,2.245325\H,0,0.878135,-0.503256,2.245323\H,0,-0.
 000002,-1.475235,1.059771\C,0,0.,-0.521741,-1.589833\H,0,-0.878133,-0.
 503254,-2.245325\H,0,-0.000002,-1.475235,-1.059771\H,0,0.878135,-0.503
 256,-2.245323\H,0,0.,1.631382,-1.165003\\Version=ES64L-G16RevC.01\Stat

 Normal termination of Gaussian 16 at Tue Apr  8 23:05:46 2025.
