 Gaussian 16, Revision C.01,

 ----------------------------------------------------------------------
 #t hf aug-cc-pvdz symm=none int=(grid=ultrafine) guess=(read,tcheck) s
 table=(opt,rrhf)
 ----------------------------------------------------------------------
 -----
 title
 -----
 Symbolic Z-matrix:
 Charge =  0 Multiplicity = 1

 SCF Done:  E(RHF) =  -528.175565147     A.U. after   11 cycles
 Normal termination of Gaussian 16 at Tue Apr  8 23:49:16 2025.
 Gaussian 16:  ES64L-G16RevC.01  3-Jul-2019

 ----------------------------------------------------------------------
 #t hf aug-cc-pvdz iop(5/13=1,5/36=2,99/5=2) pseudo=read geom=check gue
 ss=(read,tcheck) scf=(maxcycle=1)
 ----------------------------------------------------------------------
 -----
 title
 -----
 Structure from the checkpoint file:  "BDE49_nonexpt_1841_mol1.chk"
 Charge =  0 Multiplicity = 1

                         Standard orientation:
 ---------------------------------------------------------------------
 Center     Atomic      Atomic             Coordinates (Angstroms)
 Number     Number       Type             X           Y           Z
 ---------------------------------------------------------------------
      1          6           0        1.689965    0.000000   -0.166074
      2         14           0       -0.085720    0.000000    0.341787
      3          9           0       -0.822821   -1.284805   -0.265058
      4          9           0       -0.822821    1.284805   -0.265058
      5          1           0       -0.316549    0.000000    1.793742
      6          1           0        1.785354   -0.000002   -1.255383
      7          1           0        2.201132   -0.885705    0.222053
      8          1           0        2.201131    0.885707    0.222050
 ---------------------------------------------------------------------

 SCF Done:  E(RHF) =  -528.435820059     A.U. after    2 cycles

 The electronic state is 1-A.
 Alpha  occ. eigenvalues --  -69.62157 -26.45894 -26.45893 -11.23931  -6.28391
 Alpha  occ. eigenvalues --   -4.03809  -4.03652  -4.03466  -1.58410  -1.56152
 Alpha  occ. eigenvalues --   -0.98055  -0.78105  -0.69538  -0.67892  -0.66555
 Alpha  occ. eigenvalues --   -0.63321  -0.61440  -0.59036  -0.57823  -0.56172
 Alpha  occ. eigenvalues --   -0.48220
 Alpha virt. eigenvalues --    0.03395   0.04764   0.04913   0.05397   0.08046
 Alpha virt. eigenvalues --    0.08189   0.08847   0.13449   0.14870   0.15354
 Alpha virt. eigenvalues --    0.15675   0.17479   0.17820   0.20771   0.22698

 Mulliken charges:
               1
     1  C   -0.588288
     2  Si   2.388668
     3  F   -0.846730
     4  F   -0.846730
     5  H   -0.247769
     6  H    0.079211
     7  H    0.030819
     8  H    0.030819
 Sum of Mulliken charges =   0.00000

 Dipole moment (field-independent basis, Debye):
    X=              2.1361    Y=             -0.0000    Z=              0.7956  Tot=              2.2794

 Test job not archived.
 1\1\GINC-SE342\SP\RHF\Aug-CC-pVDZ\C1H4F2Si1\OHZDE\08-Apr-2025\0\\#t hf
  aug-cc-pvdz iop(5/13=1,5/36=2,99/5=2) pseudo=read geom=check guess=(r
 ead,tcheck) scf=(maxcycle=1)\\title\\0,1\C,0,1.689965,0.,-0.166074\Si,
 0,-0.08572,0.,0.341787\F,0,-0.822821,-1.284805,-0.265058\F,0,-0.822821
 ,1.284805,-0.265058\H,0,-0.316549,0.,1.793742\H,0,1.785354,-0.000002,-
 1.255383\H,0,2.201132,-0.885705,0.222053\H,0,2.201131,0.885707,0.22205
 \\Version=ES64L-G16RevC.01\State=1-A\HF=-528.4358201\RMSD=4.673e-03\Di
 pole=0.8403937,0.,0.3130096\Quadrupole=0.7171277,-1.6717192,0.9545915,

 Normal termination of Gaussian 16 at Tue Apr  8 23:49:20 2025.
