 Gaussian 16, Revision C.01,

 ----------------------------------------------------------------------
 #t hf aug-cc-pvdz symm=none int=(grid=ultrafine) guess=(read,tcheck) s
 table=(opt,rrhf)
 ----------------------------------------------------------------------
 -----
 title
 -----
 Symbolic Z-matrix:
 Charge =  0 Multiplicity = 1

 SCF Done:  E(RHF) =  -255.986454320     A.U. after   14 cycles
 Normal termination of Gaussian 16 at Wed Apr  9 00:28:03 2025.
 Gaussian 16:  ES64L-G16RevC.01  3-Jul-2019

 ----------------------------------------------------------------------
 #t hf aug-cc-pvdz iop(5/13=1,5/36=2,99/5=2) pseudo=read geom=check gue
 ss=(read,tcheck) scf=(maxcycle=1)
 ----------------------------------------------------------------------
 -----
 title
 -----
 Structure from the checkpoint file:  "BDE49_nonexpt_295_mol1.chk"
 Charge =  0 Multiplicity = 1

                         Standard orientation:
 ---------------------------------------------------------------------
 Center     Atomic      Atomic             Coordinates (Angstroms)
 Number     Number       Type             X           Y           Z
 ---------------------------------------------------------------------
      1          6           0        0.000007   -1.104975    1.210799
      2          6           0        0.000007    0.284823    1.206948
      3          6           0        0.000009    1.016554   -0.000000
      4          6           0        0.000006   -1.798982    0.000000
      5          6           0        0.000007   -1.104975   -1.210799
      6          6           0        0.000007    0.284823   -1.206948
      7          1           0        0.000007   -1.650478    2.147866
      8          1           0        0.000008    0.825360    2.147640
      9          1           0        0.000008    0.825360   -2.147640
     10          1           0        0.000006   -2.883783    0.000000
     11          1           0        0.000007   -1.650478   -2.147866
     12          5           0        0.000018    2.551871   -0.000000
     13          1           0       -0.000190    3.155526    1.029762
     14          1           0       -0.000190    3.155526   -1.029762
 ---------------------------------------------------------------------

 SCF Done:  E(RHF) =  -256.252913598     A.U. after    2 cycles

 The electronic state is 1-A'.
 Alpha  occ. eigenvalues --  -11.25973 -11.25488 -11.25484 -11.24647 -11.24628
 Alpha  occ. eigenvalues --  -11.22162  -7.59119  -1.15675  -1.02275  -1.02146
 Alpha  occ. eigenvalues --   -0.84419  -0.83695  -0.74078  -0.68081  -0.64731
 Alpha  occ. eigenvalues --   -0.63644  -0.60540  -0.56220  -0.51488  -0.51154
 Alpha  occ. eigenvalues --   -0.47946  -0.47649  -0.35616  -0.35141
 Alpha virt. eigenvalues --    0.03299   0.03453   0.03583   0.03930   0.05101
 Alpha virt. eigenvalues --    0.05258   0.06100   0.07242   0.08370   0.09133
 Alpha virt. eigenvalues --    0.10047   0.12185   0.12549   0.13146   0.13828

 Mulliken charges:
               1
     1  C    0.162723
     2  C    0.440158
     3  C   -0.022301
     4  C    0.352192
     5  C    0.162723
     6  C    0.440158
     7  H   -0.208364
     8  H   -0.267062
     9  H   -0.267062
    10  H   -0.207014
    11  H   -0.208364
    12  B   -0.793578
    13  H    0.207894
    14  H    0.207894
 Sum of Mulliken charges =   0.00000

 Dipole moment (field-independent basis, Debye):
    X=              0.0003    Y=             -1.4291    Z=             -0.0000  Tot=              1.4291

 Test job not archived.
 1\1\GINC-SE462\SP\RHF\Aug-CC-pVDZ\C6H7B1\OHZDE\09-Apr-2025\0\\#t hf au
 g-cc-pvdz iop(5/13=1,5/36=2,99/5=2) pseudo=read geom=check guess=(read
 ,tcheck) scf=(maxcycle=1)\\title\\0,1\C,0,-0.000007,1.104975,1.210799\
 C,0,-0.000007,-0.284823,1.206948\C,0,-0.000009,-1.016554,0.\C,0,-0.000
 006,1.798982,0.\C,0,-0.000007,1.104975,-1.210799\C,0,-0.000007,-0.2848
 23,-1.206948\H,0,-0.000007,1.650478,2.147866\H,0,-0.000008,-0.82536,2.
 14764\H,0,-0.000008,-0.82536,-2.14764\H,0,-0.000006,2.883783,0.\H,0,-0
 .000007,1.650478,-2.147866\B,0,-0.000018,-2.551871,0.\H,0,0.00019,-3.1

 Normal termination of Gaussian 16 at Wed Apr  9 00:28:06 2025.
