 Gaussian 16, Revision C.01,

 ----------------------------------------------------------------------
 #t hf aug-cc-pvdz symm=none int=(grid=ultrafine) guess=(read,tcheck) s
 table=(opt,rrhf)
 ----------------------------------------------------------------------
 -----
 title
 -----
 Symbolic Z-matrix:
 Charge =  0 Multiplicity = 1

 SCF Done:  E(RHF) =  -611.366078149     A.U. after   15 cycles
 Normal termination of Gaussian 16 at Tue Apr  8 23:35:55 2025.
 Gaussian 16:  ES64L-G16RevC.01  3-Jul-2019

 ----------------------------------------------------------------------
 #t hf aug-cc-pvdz iop(5/13=1,5/36=2,99/5=2) pseudo=read geom=check gue
 ss=(read,tcheck) scf=(maxcycle=1)
 ----------------------------------------------------------------------
 -----
 title
 -----
 Structure from the checkpoint file:  "BDE49_nonexpt_1489_mol1.chk"
 Charge =  0 Multiplicity = 1

                         Standard orientation:
 ---------------------------------------------------------------------
 Center     Atomic      Atomic             Coordinates (Angstroms)
 Number     Number       Type             X           Y           Z
 ---------------------------------------------------------------------
      1         15           0       -2.076825   -0.371628    0.092646
      2          6           0       -0.445688    0.605736   -0.071332
      3          6           0        0.897325   -0.160229   -0.012271
      4          6           0        0.812494   -1.543228   -0.678419
      5          1           0        0.542756   -1.466581   -1.735118
      6          1           0        0.087706   -2.196524   -0.184914
      7          6           0        1.982473    0.692684   -0.689944
      8          1           0        1.784164    0.805049   -1.759369
      9          1           0        2.959397    0.215499   -0.573458
     10          6           0        1.222174   -0.326466    1.492417
     11          1           0        1.303573    0.646602    1.981942
     12          1           0        0.455661   -0.908940    2.010602
     13          8           0       -0.490465    1.810682   -0.068855
     14          1           0        2.023043    1.689859   -0.251744
     15          1           0        1.785560   -2.038245   -0.618856
     16          1           0        2.176153   -0.849473    1.605422
     17          1           0       -1.989254   -1.093928   -1.121287
     18          1           0       -2.865331    0.674664   -0.434787
 ---------------------------------------------------------------------

 SCF Done:  E(RHF) =  -611.695236274     A.U. after    2 cycles

 The electronic state is 1-A.
 Alpha  occ. eigenvalues --  -84.28436 -20.54748 -11.34774 -11.26411 -11.24133
 Alpha  occ. eigenvalues --  -11.23926 -11.22845  -6.75605  -4.28180  -4.28100
 Alpha  occ. eigenvalues --   -4.27350  -1.48327  -1.11623  -0.95329  -0.94682
 Alpha  occ. eigenvalues --   -0.91626  -0.83426  -0.70949  -0.66605  -0.63407
 Alpha  occ. eigenvalues --   -0.62416  -0.59243  -0.57154  -0.55152  -0.54397
 Alpha  occ. eigenvalues --   -0.53407  -0.52631  -0.50365  -0.48869  -0.48374
 Alpha  occ. eigenvalues --   -0.40435  -0.34345
 Alpha virt. eigenvalues --    0.03451   0.03737   0.04202   0.04433   0.06059
 Alpha virt. eigenvalues --    0.06361   0.06572   0.07050   0.07339   0.09107
 Alpha virt. eigenvalues --    0.09682   0.10009   0.10666   0.11811   0.12803

 Mulliken charges:
               1
     1  P   -0.570713
     2  C    0.949974
     3  C   -1.948188
     4  C    0.139489
     5  H    0.194873
     6  H    0.206390
     7  C    0.189651
     8  H    0.169244
     9  H    0.204237
    10  C   -0.049813
    11  H    0.180562
    12  H    0.196031
    13  O   -1.343737
    14  H    0.222262
    15  H    0.175190
    16  H    0.185833
    17  H    0.464285
    18  H    0.434428
 Sum of Mulliken charges =  -0.00000

 Dipole moment (field-independent basis, Debye):
    X=              0.7141    Y=             -2.4572    Z=             -0.2690  Tot=              2.5730

 Test job not archived.
 1\1\GINC-SE044\SP\RHF\Aug-CC-pVDZ\C5H11O1P1\OHZDE\08-Apr-2025\0\\#t hf
  aug-cc-pvdz iop(5/13=1,5/36=2,99/5=2) pseudo=read geom=check guess=(r
 ead,tcheck) scf=(maxcycle=1)\\title\\0,1\P,0,-2.076825,-0.371628,0.092
 646\C,0,-0.445688,0.605736,-0.071332\C,0,0.897325,-0.160229,-0.012271\
 C,0,0.812494,-1.543228,-0.678419\H,0,0.542756,-1.466581,-1.735118\H,0,
 0.087706,-2.196524,-0.184914\C,0,1.982473,0.692684,-0.689944\H,0,1.784
 164,0.805049,-1.759369\H,0,2.959397,0.215499,-0.573458\C,0,1.222174,-0
 .326466,1.492417\H,0,1.303573,0.646602,1.981942\H,0,0.455661,-0.90894,

 Normal termination of Gaussian 16 at Tue Apr  8 23:36:03 2025.
