 Gaussian 16, Revision C.01,

 ----------------------------------------------------------------------
 #t hf aug-cc-pvdz symm=none int=(grid=ultrafine) guess=(read,tcheck) s
 table=(opt,rrhf)
 ----------------------------------------------------------------------
 -----
 title
 -----
 Symbolic Z-matrix:
 Charge =  0 Multiplicity = 1

 SCF Done:  E(RHF) =  -1678.03636909     A.U. after   13 cycles
 Normal termination of Gaussian 16 at Wed Apr  9 00:47:57 2025.
 Gaussian 16:  ES64L-G16RevC.01  3-Jul-2019

 ----------------------------------------------------------------------
 #t hf aug-cc-pvdz iop(5/13=1,5/36=2,99/5=2) pseudo=read geom=check gue
 ss=(read,tcheck) scf=(maxcycle=1)
 ----------------------------------------------------------------------
 -----
 title
 -----
 Structure from the checkpoint file:  "BDE49_nonexpt_868_mol1.chk"
 Charge =  0 Multiplicity = 1

                         Standard orientation:
 ---------------------------------------------------------------------
 Center     Atomic      Atomic             Coordinates (Angstroms)
 Number     Number       Type             X           Y           Z
 ---------------------------------------------------------------------
      1         17           0        2.429891   -0.032453   -0.000253
      2         16           0        0.667309   -1.143234    0.000318
      3          5           0       -0.693955    0.058106    0.000536
      4         16           0       -0.599317    1.857005   -0.000012
      5         16           0       -2.355969   -0.694753   -0.000191
      6          1           0       -1.974380   -1.986144   -0.000197
      7          1           0        0.743647    1.943022   -0.000028
 ---------------------------------------------------------------------

 SCF Done:  E(RHF) =  -1678.31701859     A.U. after    2 cycles

 The electronic state is 1-A.
 Alpha  occ. eigenvalues -- -105.60482 -94.02488 -93.97678 -93.97283 -10.65153
 Alpha  occ. eigenvalues --   -8.30390  -8.25947  -8.25611  -7.82095  -7.81655
 Alpha  occ. eigenvalues --   -7.81613  -7.69951  -6.28209  -6.27913  -6.27719
 Alpha  occ. eigenvalues --   -6.23776  -6.23645  -6.23453  -6.23440  -6.23310
 Alpha  occ. eigenvalues --   -6.23133  -1.14086  -1.06905  -1.02663  -0.95748
 Alpha  occ. eigenvalues --   -0.68997  -0.63273  -0.57196  -0.55702  -0.54374
 Alpha  occ. eigenvalues --   -0.49587  -0.49014  -0.46965  -0.45824  -0.39673
 Alpha  occ. eigenvalues --   -0.38914
 Alpha virt. eigenvalues --    0.02682   0.04148   0.05297   0.05577   0.06088
 Alpha virt. eigenvalues --    0.07811   0.08430   0.09164   0.10699   0.11029
 Alpha virt. eigenvalues --    0.11611   0.12675   0.13526   0.14180   0.15531

 Mulliken charges:
               1
     1  Cl  -0.357047
     2  S   -0.194801
     3  B    1.259028
     4  S   -0.582008
     5  S   -0.676989
     6  H    0.258992
     7  H    0.292824
 Sum of Mulliken charges =  -0.00000

 Dipole moment (field-independent basis, Debye):
    X=              0.1410    Y=             -0.6687    Z=              0.0003  Tot=              0.6834

 Test job not archived.
 1\1\GINC-SE457\SP\RHF\Aug-CC-pVDZ\B1Cl1H2S3\OHZDE\09-Apr-2025\0\\#t hf
  aug-cc-pvdz iop(5/13=1,5/36=2,99/5=2) pseudo=read geom=check guess=(r
 ead,tcheck) scf=(maxcycle=1)\\title\\0,1\Cl,0,2.429891,-0.032453,-0.00
 0253\S,0,0.667309,-1.143234,0.000318\B,0,-0.693955,0.058106,0.000536\S
 ,0,-0.599317,1.857005,-0.000012\S,0,-2.355969,-0.694753,-0.000191\H,0,
 -1.97438,-1.986144,-0.000197\H,0,0.743647,1.943022,-0.000028\\Version=
 ES64L-G16RevC.01\State=1-A\HF=-1678.3170186\RMSD=5.003e-03\Dipole=0.05
 54823,-0.2630962,0.0001363\Quadrupole=-0.8493676,3.1188262,-2.2694586,

 Normal termination of Gaussian 16 at Wed Apr  9 00:48:00 2025.
