 Gaussian 16, Revision C.01,

 ----------------------------------------------------------------------
 #t hf aug-cc-pvdz symm=none int=(grid=ultrafine) guess=(read,tcheck) s
 table=(opt,rrhf)
 ----------------------------------------------------------------------
 -----
 title
 -----
 Symbolic Z-matrix:
 Charge =  0 Multiplicity = 1

 SCF Done:  E(RHF) =  -967.943569696     A.U. after   17 cycles
 Normal termination of Gaussian 16 at Tue Apr  8 23:20:06 2025.
 Gaussian 16:  ES64L-G16RevC.01  3-Jul-2019

 ----------------------------------------------------------------------
 #t hf aug-cc-pvdz iop(5/13=1,5/36=2,99/5=2) pseudo=read geom=check gue
 ss=(read,tcheck) scf=(maxcycle=1)
 ----------------------------------------------------------------------
 -----
 title
 -----
 Structure from the checkpoint file:  "BDE49_nonexpt_1089_mol1.chk"
 Charge =  0 Multiplicity = 1

                         Standard orientation:
 ---------------------------------------------------------------------
 Center     Atomic      Atomic             Coordinates (Angstroms)
 Number     Number       Type             X           Y           Z
 ---------------------------------------------------------------------
      1         17           0        2.969044   -1.167711    0.000013
      2          8           0        2.435856    0.476010   -0.000034
      3          6           0        1.070568    0.680862    0.000012
      4          6           0        0.099764   -0.308195    0.000090
      5          6           0       -1.232770    0.095280    0.000130
      6          6           0       -1.621780    1.425271    0.000088
      7          6           0        0.719119    2.036336   -0.000028
      8          1           0        1.503966    2.781998   -0.000089
      9          6           0       -0.621724    2.396299    0.000010
     10          1           0       -0.889417    3.445816   -0.000021
     11          1           0       -2.671831    1.677887    0.000120
     12          7           0       -2.276711   -0.958357    0.000216
     13          8           0       -1.904460   -2.123268   -0.000213
     14          8           0       -3.443929   -0.595462   -0.000214
     15          1           0        0.341709   -1.359482    0.000123
 ---------------------------------------------------------------------

 SCF Done:  E(RHF) =  -968.512602168     A.U. after    2 cycles

 The electronic state is 1-A.
 Alpha  occ. eigenvalues -- -105.65158 -20.66524 -20.59726 -20.59714 -15.80019
 Alpha  occ. eigenvalues --  -11.35323 -11.32989 -11.28803 -11.28750 -11.28636
 Alpha  occ. eigenvalues --  -11.28511 -10.69319  -7.86316  -7.85760  -7.85722
 Alpha  occ. eigenvalues --   -1.67751  -1.53461  -1.51453  -1.21468  -1.12307
 Alpha  occ. eigenvalues --   -1.07810  -1.04572  -0.98993  -0.87845  -0.86027
 Alpha  occ. eigenvalues --   -0.81079  -0.75975  -0.75287  -0.73413  -0.71162
 Alpha  occ. eigenvalues --   -0.70210  -0.66645  -0.65870  -0.60544  -0.58617
 Alpha  occ. eigenvalues --   -0.56207  -0.55120  -0.50649  -0.50073  -0.49267
 Alpha  occ. eigenvalues --   -0.48619  -0.45756  -0.39710  -0.36790
 Alpha virt. eigenvalues --    0.01494   0.02765   0.03619   0.04263   0.04846
 Alpha virt. eigenvalues --    0.06727   0.08357   0.08445   0.10069   0.10262
 Alpha virt. eigenvalues --    0.11184   0.12309   0.12412   0.12813   0.13040

 Mulliken charges:
               1
     1  Cl   0.344090
     2  O   -1.644605
     3  C    1.316764
     4  C    0.067440
     5  C   -0.116335
     6  C    0.066538
     7  C   -0.090511
     8  H   -0.217954
     9  C    0.784546
    10  H   -0.217174
    11  H   -0.183604
    12  N    3.100171
    13  O   -1.472992
    14  O   -1.543103
    15  H   -0.193272
 Sum of Mulliken charges =   0.00000

 Dipole moment (field-independent basis, Debye):
    X=              2.2148    Y=              3.3765    Z=              0.0006  Tot=              4.0381

 Test job not archived.
 1\1\GINC-SE341\SP\RHF\Aug-CC-pVDZ\C6H4Cl1N1O3\OHZDE\08-Apr-2025\0\\#t
 hf aug-cc-pvdz iop(5/13=1,5/36=2,99/5=2) pseudo=read geom=check guess=
 (read,tcheck) scf=(maxcycle=1)\\title\\0,1\Cl,0,2.969044,-1.167711,0.0
 00013\O,0,2.435856,0.47601,-0.000034\C,0,1.070568,0.680862,0.000012\C,
 0,0.099764,-0.308195,0.00009\C,0,-1.23277,0.09528,0.00013\C,0,-1.62178
 ,1.425271,0.000088\C,0,0.719119,2.036336,-0.000028\H,0,1.503966,2.7819
 98,-0.000089\C,0,-0.621724,2.396299,0.00001\H,0,-0.889417,3.445816,-0.
 000021\H,0,-2.671831,1.677887,0.00012\N,0,-2.276711,-0.958357,0.000216

 Normal termination of Gaussian 16 at Tue Apr  8 23:20:14 2025.
