 Gaussian 16, Revision C.01,

 ----------------------------------------------------------------------
 #t hf aug-cc-pvdz symm=none int=(grid=ultrafine) guess=(read,tcheck) s
 table=(opt,rrhf)
 ----------------------------------------------------------------------
 -----
 title
 -----
 Symbolic Z-matrix:
 Charge =  0 Multiplicity = 1

 SCF Done:  E(RHF) =  -1697.17294900     A.U. after   12 cycles
 Normal termination of Gaussian 16 at Wed Apr  9 00:09:34 2025.
 Gaussian 16:  ES64L-G16RevC.01  3-Jul-2019

 ----------------------------------------------------------------------
 #t hf aug-cc-pvdz iop(5/13=1,5/36=2,99/5=2) pseudo=read geom=check gue
 ss=(read,tcheck) scf=(maxcycle=1)
 ----------------------------------------------------------------------
 -----
 title
 -----
 Structure from the checkpoint file:  "BDE49_nonexpt_2324_mol1.chk"
 Charge =  0 Multiplicity = 1

                         Standard orientation:
 ---------------------------------------------------------------------
 Center     Atomic      Atomic             Coordinates (Angstroms)
 Number     Number       Type             X           Y           Z
 ---------------------------------------------------------------------
      1         14           0        1.538210    0.000000   -0.363795
      2         14           0       -0.645288    0.000000    0.523875
      3         17           0       -1.617535   -1.694251   -0.168658
      4         17           0       -1.617535    1.694251   -0.168658
      5          1           0       -0.730968    0.000000    1.993367
      6          9           0        2.311852    1.289009    0.185148
      7          1           0        1.612900   -0.000001   -1.832785
      8          9           0        2.311852   -1.289009    0.185149
 ---------------------------------------------------------------------

 SCF Done:  E(RHF) =  -1697.57211422     A.U. after    2 cycles

 The electronic state is 1-A.
 Alpha  occ. eigenvalues -- -105.58498-105.58498 -69.65061 -69.64136 -26.48117
 Alpha  occ. eigenvalues --  -26.48117 -10.63507 -10.63495  -7.80391  -7.80384
 Alpha  occ. eigenvalues --   -7.80066  -7.80063  -7.80061  -7.80061  -6.31227
 Alpha  occ. eigenvalues --   -6.30477  -4.06625  -4.06461  -4.06287  -4.05868
 Alpha  occ. eigenvalues --   -4.05757  -4.05627  -1.60558  -1.58275  -1.09811
 Alpha  occ. eigenvalues --   -1.06288  -0.82126  -0.74824  -0.71398  -0.69708
 Alpha  occ. eigenvalues --   -0.68232  -0.65264  -0.63373  -0.59790  -0.57744
 Alpha  occ. eigenvalues --   -0.57733  -0.53593  -0.50192  -0.49476  -0.48504
 Alpha  occ. eigenvalues --   -0.43796
 Alpha virt. eigenvalues --    0.04032   0.04480   0.04667   0.04745   0.07260
 Alpha virt. eigenvalues --    0.07665   0.07669   0.08834   0.10526   0.10602
 Alpha virt. eigenvalues --    0.11319   0.12548   0.12629   0.15313   0.16739

 Mulliken charges:
               1
     1  Si   1.960866
     2  Si   0.896384
     3  Cl  -0.526014
     4  Cl  -0.526014
     5  H   -0.064445
     6  F   -0.794901
     7  H   -0.150976
     8  F   -0.794901
 Sum of Mulliken charges =  -0.00000

 Dipole moment (field-independent basis, Debye):
    X=             -0.0659    Y=              0.0000    Z=              0.0141  Tot=              0.0674

 Test job not archived.
 1\1\GINC-SE094\SP\RHF\Aug-CC-pVDZ\Cl2F2H2Si2\OHZDE\09-Apr-2025\0\\#t h
 f aug-cc-pvdz iop(5/13=1,5/36=2,99/5=2) pseudo=read geom=check guess=(
 read,tcheck) scf=(maxcycle=1)\\title\\0,1\Si,0,-1.53821,0.,-0.363795\S
 i,0,0.645288,0.,0.523875\Cl,0,1.617535,1.694251,-0.168658\Cl,0,1.61753
 5,-1.694251,-0.168658\H,0,0.730968,0.,1.993367\F,0,-2.311852,-1.289009
 ,0.185148\H,0,-1.6129,0.000001,-1.832785\F,0,-2.311852,1.289009,0.1851
 49\\Version=ES64L-G16RevC.01\State=1-A\HF=-1697.5721142\RMSD=3.033e-03
 \Dipole=0.0259321,-0.0000006,0.0055445\Quadrupole=-2.3360603,-1.498123

 Normal termination of Gaussian 16 at Wed Apr  9 00:09:37 2025.
