 Gaussian 16, Revision C.01,

 ----------------------------------------------------------------------
 #t hf aug-cc-pvdz symm=none int=(grid=ultrafine) guess=(read,tcheck) s
 table=(opt,rrhf)
 ----------------------------------------------------------------------
 -----
 title
 -----
 Symbolic Z-matrix:
 Charge =  0 Multiplicity = 1

 SCF Done:  E(RHF) =  -650.115702252     A.U. after   15 cycles

 1\1\GINC-SE249\Stability\RHF\Aug-CC-pVDZ\C8H11P1\OHZDE\08-Apr-2025\0\\
 #t hf aug-cc-pvdz symm=none int=(grid=ultrafine) guess=(read,tcheck) s
 table=(opt,rrhf)\\title\\0,1\C,0,0.170271,-0.034685,0.296621\C,0,1.026
 027,-1.062894,0.707844\C,0,2.387409,-1.025957,0.417116\C,0,2.921472,0.
 044893,-0.295228\C,0,2.081823,1.07464,-0.713963\C,0,0.720773,1.033941,
 -0.422414\P,0,-2.24368,-0.702401,-0.924813\H,0,3.030456,-1.833378,0.74
 9552\H,0,3.981125,0.077275,-0.521708\H,0,2.486569,1.913115,-1.270021\H
 ,0,0.084282,1.844778,-0.759001\H,0,0.61963,-1.901917,1.263699\C,0,-1.3

 Normal termination of Gaussian 16 at Tue Apr  8 23:30:27 2025.
 Gaussian 16:  ES64L-G16RevC.01  3-Jul-2019

 ----------------------------------------------------------------------
 #t hf aug-cc-pvdz iop(5/13=1,5/36=2,99/5=2) pseudo=read geom=check gue
 ss=(read,tcheck) scf=(maxcycle=1)
 ----------------------------------------------------------------------
 -----
 title
 -----
 Structure from the checkpoint file:  "BDE49_nonexpt_1349_mol1.chk"
 Charge =  0 Multiplicity = 1

                         Standard orientation:
 ---------------------------------------------------------------------
 Center     Atomic      Atomic             Coordinates (Angstroms)
 Number     Number       Type             X           Y           Z
 ---------------------------------------------------------------------
      1          6           0        0.170271   -0.034685    0.296621
      2          6           0        1.026027   -1.062894    0.707844
      3          6           0        2.387409   -1.025957    0.417116
      4          6           0        2.921472    0.044893   -0.295228
      5          6           0        2.081823    1.074640   -0.713963
      6          6           0        0.720773    1.033941   -0.422414
      7         15           0       -2.243680   -0.702401   -0.924813
      8          1           0        3.030456   -1.833378    0.749552
      9          1           0        3.981125    0.077275   -0.521708
     10          1           0        2.486569    1.913115   -1.270021
     11          1           0        0.084282    1.844778   -0.759001
     12          1           0        0.619630   -1.901917    1.263699
     13          6           0       -1.314504   -0.099790    0.612894
     14          6           0       -1.874532    1.190548    1.230229
     15          1           0       -1.456198   -0.912824    1.332988
     16          1           0       -1.834037    2.026989    0.528733
     17          1           0       -1.303049    1.470797    2.120921
     18          1           0       -2.918761    1.058065    1.522239
     19          1           0       -2.188717    0.518257   -1.649037
     20          1           0       -3.558522   -0.449324   -0.444770
 ---------------------------------------------------------------------

 SCF Done:  E(RHF) =  -650.486580058     A.U. after    2 cycles

 The electronic state is 1-A.
 Alpha  occ. eigenvalues --  -84.26913 -11.25707 -11.25235 -11.24450 -11.24401
 Alpha  occ. eigenvalues --  -11.24100 -11.24089 -11.24072 -11.23577  -6.73930
 Alpha  occ. eigenvalues --   -4.26557  -4.26316  -4.25766  -1.16083  -1.07609
 Alpha  occ. eigenvalues --   -1.01703  -0.99234  -0.89388  -0.84008  -0.83345
 Alpha  occ. eigenvalues --   -0.77552  -0.70757  -0.65846  -0.63793  -0.61094
 Alpha  occ. eigenvalues --   -0.59689  -0.58257  -0.56064  -0.53482  -0.52458
 Alpha  occ. eigenvalues --   -0.50261  -0.49730  -0.48039  -0.45071  -0.34792
 Alpha  occ. eigenvalues --   -0.34328  -0.32912
 Alpha virt. eigenvalues --    0.03414   0.03537   0.03704   0.04672   0.04834
 Alpha virt. eigenvalues --    0.05038   0.06669   0.07368   0.07855   0.08359
 Alpha virt. eigenvalues --    0.09595   0.09869   0.10399   0.10424   0.11166

 Mulliken charges:
               1
     1  C    1.890721
     2  C   -0.151713
     3  C    0.248465
     4  C    0.081645
     5  C    0.017791
     6  C    0.106293
     7  P   -0.447404
     8  H   -0.228409
     9  H   -0.222920
    10  H   -0.240224
    11  H   -0.334733
    12  H   -0.334862
    13  C   -1.051979
    14  C   -0.416670
    15  H    0.029439
    16  H    0.159845
    17  H    0.166792
    18  H    0.065482
    19  H    0.319345
    20  H    0.343098
 Sum of Mulliken charges =  -0.00000

 Dipole moment (field-independent basis, Debye):
    X=             -0.0064    Y=              0.5030    Z=              0.7166  Tot=              0.8755

 Test job not archived.
 1\1\GINC-SE249\SP\RHF\Aug-CC-pVDZ\C8H11P1\OHZDE\08-Apr-2025\0\\#t hf a
 ug-cc-pvdz iop(5/13=1,5/36=2,99/5=2) pseudo=read geom=check guess=(rea
 d,tcheck) scf=(maxcycle=1)\\title\\0,1\C,0,0.170271,-0.034685,0.296621
 \C,0,1.026027,-1.062894,0.707844\C,0,2.387409,-1.025957,0.417116\C,0,2
 .921472,0.044893,-0.295228\C,0,2.081823,1.07464,-0.713963\C,0,0.720773
 ,1.033941,-0.422414\P,0,-2.24368,-0.702401,-0.924813\H,0,3.030456,-1.8
 33378,0.749552\H,0,3.981125,0.077275,-0.521708\H,0,2.486569,1.913115,-
 1.270021\H,0,0.084282,1.844778,-0.759001\H,0,0.61963,-1.901917,1.26369

 Normal termination of Gaussian 16 at Tue Apr  8 23:30:38 2025.
