 Gaussian 16, Revision C.01,

 ----------------------------------------------------------------------
 #t hf aug-cc-pvdz symm=none int=(grid=ultrafine) guess=(read,tcheck) s
 table=(opt,rrhf)
 ----------------------------------------------------------------------
 -----
 title
 -----
 Symbolic Z-matrix:
 Charge =  0 Multiplicity = 1

 SCF Done:  E(RHF) =  -1466.17088403     A.U. after   13 cycles

 1\1\GINC-SE070\Stability\RHF\Aug-CC-pVDZ\Cl2O2S1\OHZDE\08-Apr-2025\0\\
 #t hf aug-cc-pvdz symm=none int=(grid=ultrafine) guess=(read,tcheck) s
 table=(opt,rrhf)\\title\\0,1\S,0,-0.000001,0.52507,0.\Cl,0,-0.000001,-
 0.809411,1.591676\Cl,0,-0.000001,-0.809411,-1.591676\O,0,-1.258337,1.1
 94936,0.\O,0,1.25834,1.194921,0.\\Version=ES64L-G16RevC.01\HF=-1466.17
 0884\RMSD=3.337e-09\Dipole=-0.0000018,-0.7876412,0.\Quadrupole=-3.0695
 785,-0.332729,3.4023074,0.0000099,0.,0.\PG=Unknown\\@
 The archive entry for this job was punched.

 Normal termination of Gaussian 16 at Tue Apr  8 22:59:38 2025.
 Gaussian 16:  ES64L-G16RevC.01  3-Jul-2019

 ----------------------------------------------------------------------
 #t hf aug-cc-pvdz iop(5/13=1,5/36=2,99/5=2) pseudo=read geom=check gue
 ss=(read,tcheck) scf=(maxcycle=1)
 ----------------------------------------------------------------------
 -----
 title
 -----
 Structure from the checkpoint file:  "BDE49_expt_1977_mol1.chk"
 Charge =  0 Multiplicity = 1

                         Standard orientation:
 ---------------------------------------------------------------------
 Center     Atomic      Atomic             Coordinates (Angstroms)
 Number     Number       Type             X           Y           Z
 ---------------------------------------------------------------------
      1         16           0       -0.000001    0.525070   -0.000000
      2         17           0       -0.000001   -0.809411    1.591676
      3         17           0       -0.000001   -0.809411   -1.591676
      4          8           0       -1.258337    1.194936   -0.000000
      5          8           0        1.258340    1.194921   -0.000000
 ---------------------------------------------------------------------

 SCF Done:  E(RHF) =  -1466.52722575     A.U. after    2 cycles

 The electronic state is 1-A'.
 Alpha  occ. eigenvalues -- -105.63847-105.63846 -94.30892 -20.61840 -20.61839
 Alpha  occ. eigenvalues --  -10.68692 -10.68665  -8.55587  -7.85615  -7.85597
 Alpha  occ. eigenvalues --   -7.85124  -7.85121  -7.85109  -7.85108  -6.53614
 Alpha  occ. eigenvalues --   -6.53441  -6.53398  -1.64205  -1.52229  -1.17103
 Alpha  occ. eigenvalues --   -1.11355  -0.90038  -0.75448  -0.74585  -0.71958
 Alpha  occ. eigenvalues --   -0.58690  -0.57553  -0.57477  -0.54882  -0.52072
 Alpha  occ. eigenvalues --   -0.50970  -0.50864  -0.50807
 Alpha virt. eigenvalues --   -0.00325   0.07115   0.07220   0.09250   0.09257
 Alpha virt. eigenvalues --    0.10575   0.13621   0.13850   0.14830   0.15040
 Alpha virt. eigenvalues --    0.16453   0.17528   0.19806   0.22859   0.23193

 Mulliken charges:
               1
     1  S    2.403767
     2  Cl  -0.071160
     3  Cl  -0.071160
     4  O   -1.130724
     5  O   -1.130723
 Sum of Mulliken charges =  -0.00000

 Dipole moment (field-independent basis, Debye):
    X=             -0.0000    Y=             -1.8097    Z=              0.0000  Tot=              1.8097

 Test job not archived.
 1\1\GINC-SE070\SP\RHF\Aug-CC-pVDZ\Cl2O2S1\OHZDE\08-Apr-2025\0\\#t hf a
 ug-cc-pvdz iop(5/13=1,5/36=2,99/5=2) pseudo=read geom=check guess=(rea
 d,tcheck) scf=(maxcycle=1)\\title\\0,1\S,0,-0.000001,0.52507,0.\Cl,0,-
 0.000001,-0.809411,1.591676\Cl,0,-0.000001,-0.809411,-1.591676\O,0,-1.
 258337,1.194936,0.\O,0,1.25834,1.194921,0.\\Version=ES64L-G16RevC.01\S
 tate=1-A'\HF=-1466.5272257\RMSD=5.679e-03\Dipole=-0.0000015,-0.7119913
 ,0.\Quadrupole=-2.9291281,-0.2992818,3.2284099,0.0000074,0.,0.\PG=CS [
 SG(O2S1),X(Cl2)]\\@

 Normal termination of Gaussian 16 at Tue Apr  8 22:59:39 2025.
