 Gaussian 16, Revision C.01,

 ----------------------------------------------------------------------
 #t hf aug-cc-pvdz symm=none int=(grid=ultrafine) guess=(read,tcheck) s
 table=(opt,rrhf)
 ----------------------------------------------------------------------
 -----
 title
 -----
 Symbolic Z-matrix:
 Charge =  0 Multiplicity = 1

 SCF Done:  E(RHF) =  -1380.96617566     A.U. after   13 cycles
 Normal termination of Gaussian 16 at Tue Apr  8 23:39:54 2025.
 Gaussian 16:  ES64L-G16RevC.01  3-Jul-2019

 ----------------------------------------------------------------------
 #t hf aug-cc-pvdz iop(5/13=1,5/36=2,99/5=2) pseudo=read geom=check gue
 ss=(read,tcheck) scf=(maxcycle=1)
 ----------------------------------------------------------------------
 -----
 title
 -----
 Structure from the checkpoint file:  "BDE49_nonexpt_161_mol1.chk"
 Charge =  0 Multiplicity = 1

                         Standard orientation:
 ---------------------------------------------------------------------
 Center     Atomic      Atomic             Coordinates (Angstroms)
 Number     Number       Type             X           Y           Z
 ---------------------------------------------------------------------
      1         17           0        0.229807    1.759163   -0.000030
      2         17           0        1.989124   -0.730220   -0.000104
      3         16           0       -1.019752   -1.116811    0.000081
      4          5           0        0.378545   -0.002665    0.000179
      5          6           0       -2.489423   -0.021476    0.000015
      6          1           0       -3.355824   -0.682121   -0.000039
      7          1           0       -2.503037    0.600634   -0.892692
      8          1           0       -2.503129    0.600612    0.892737
 ---------------------------------------------------------------------

 SCF Done:  E(RHF) =  -1381.24647483     A.U. after    2 cycles

 The electronic state is 1-A.
 Alpha  occ. eigenvalues -- -105.58261-105.57681 -93.96766 -11.28642 -10.63268
 Alpha  occ. eigenvalues --  -10.62679  -8.25112  -7.80166  -7.79870  -7.79840
 Alpha  occ. eigenvalues --   -7.79582  -7.79280  -7.79250  -7.73471  -6.22913
 Alpha  occ. eigenvalues --   -6.22739  -6.22601  -1.12523  -1.07193  -1.06138
 Alpha  occ. eigenvalues --   -0.91318  -0.69001  -0.62922  -0.61788  -0.60279
 Alpha  occ. eigenvalues --   -0.55877  -0.53534  -0.49729  -0.48196  -0.46703
 Alpha  occ. eigenvalues --   -0.45570  -0.39529
 Alpha virt. eigenvalues --    0.03235   0.04663   0.05000   0.05520   0.06995
 Alpha virt. eigenvalues --    0.07391   0.07798   0.08225   0.11796   0.12792
 Alpha virt. eigenvalues --    0.13617   0.13871   0.14326   0.16399   0.16884

 Mulliken charges:
               1
     1  Cl  -0.264194
     2  Cl  -0.308865
     3  S   -0.024347
     4  B    0.887466
     5  C   -0.764098
     6  H    0.137798
     7  H    0.168116
     8  H    0.168125
 Sum of Mulliken charges =  -0.00000

 Dipole moment (field-independent basis, Debye):
    X=             -2.3747    Y=              0.5468    Z=              0.0002  Tot=              2.4369

 Test job not archived.
 1\1\GINC-SE128\SP\RHF\Aug-CC-pVDZ\C1H3B1Cl2S1\OHZDE\08-Apr-2025\0\\#t
 hf aug-cc-pvdz iop(5/13=1,5/36=2,99/5=2) pseudo=read geom=check guess=
 (read,tcheck) scf=(maxcycle=1)\\title\\0,1\Cl,0,-0.229807,1.759163,0.0
 0003\Cl,0,-1.989124,-0.73022,0.000104\S,0,1.019752,-1.116811,-0.000081
 \B,0,-0.378545,-0.002665,-0.000179\C,0,2.489423,-0.021476,-0.000015\H,
 0,3.355824,-0.682121,0.000039\H,0,2.503037,0.600634,0.892692\H,0,2.503
 129,0.600612,-0.892737\\Version=ES64L-G16RevC.01\State=1-A\HF=-1381.24
 64748\RMSD=4.487e-03\Dipole=0.9342955,0.2151429,-0.0000896\Quadrupole=

 Normal termination of Gaussian 16 at Tue Apr  8 23:39:57 2025.
