 Gaussian 16, Revision C.01,

 ----------------------------------------------------------------------
 #t hf aug-cc-pvdz symm=none int=(grid=ultrafine) guess=(read,tcheck) s
 table=(opt,rrhf)
 ----------------------------------------------------------------------
 -----
 title
 -----
 Symbolic Z-matrix:
 Charge =  0 Multiplicity = 1

 SCF Done:  E(RHF) =  -747.517574750     A.U. after   15 cycles
 Normal termination of Gaussian 16 at Wed Apr  9 00:06:32 2025.
 Gaussian 16:  ES64L-G16RevC.01  3-Jul-2019

 ----------------------------------------------------------------------
 #t hf aug-cc-pvdz iop(5/13=1,5/36=2,99/5=2) pseudo=read geom=check gue
 ss=(read,tcheck) scf=(maxcycle=1)
 ----------------------------------------------------------------------
 -----
 title
 -----
 Structure from the checkpoint file:  "BDE49_nonexpt_2201_mol1.chk"
 Charge =  0 Multiplicity = 1

                         Standard orientation:
 ---------------------------------------------------------------------
 Center     Atomic      Atomic             Coordinates (Angstroms)
 Number     Number       Type             X           Y           Z
 ---------------------------------------------------------------------
      1          6           0       -1.539954   -0.045432   -0.000026
      2          6           0       -1.018479    1.256286   -0.000021
      3          6           0        0.351125    1.477025   -0.000011
      4          6           0       -0.644228   -1.122150   -0.000018
      5          6           0        0.726568   -0.914686   -0.000007
      6          6           0        1.230984    0.391283   -0.000004
      7          1           0       -1.052287   -2.125342   -0.000021
      8          1           0        1.402369   -1.762912   -0.000002
      9          8           0        2.564183    0.667737    0.000006
     10         14           0        3.892724   -0.338317    0.000021
     11          1           0       -1.682373    2.112158   -0.000027
     12          6           0       -3.006069   -0.342094   -0.000040
     13          8           0       -3.409212   -1.489679    0.000023
     14          6           0       -3.986450    0.818633    0.000020
     15          1           0        0.762990    2.478453   -0.000009
     16          1           0       -3.846790    1.450433   -0.882055
     17          1           0       -3.846712    1.450414    0.882096
     18          1           0       -4.998025    0.416489    0.000061
     19          1           0        5.049908    0.571860    0.000031
     20          1           0        3.896029   -1.196385   -1.205571
     21          1           0        3.896004   -1.196380    1.205617
 ---------------------------------------------------------------------

 SCF Done:  E(RHF) =  -748.012103304     A.U. after    2 cycles

 The electronic state is 1-A.
 Alpha  occ. eigenvalues --  -69.57768 -20.57462 -20.52846 -11.34126 -11.33296
 Alpha  occ. eigenvalues --  -11.26819 -11.26168 -11.25262 -11.24887 -11.24833
 Alpha  occ. eigenvalues --  -11.24460  -6.24361  -3.99866  -3.99711  -3.99688
 Alpha  occ. eigenvalues --   -1.49195  -1.46333  -1.16914  -1.05332  -1.03722
 Alpha  occ. eigenvalues --   -0.99815  -0.88617  -0.85994  -0.79092  -0.77325
 Alpha  occ. eigenvalues --   -0.70948  -0.68521  -0.66819  -0.64450  -0.61901
 Alpha  occ. eigenvalues --   -0.61647  -0.61307  -0.60794  -0.58313  -0.56065
 Alpha  occ. eigenvalues --   -0.54730  -0.52762  -0.51869  -0.49958  -0.48151
 Alpha  occ. eigenvalues --   -0.47223  -0.41326  -0.36561  -0.33621
 Alpha virt. eigenvalues --    0.03021   0.03273   0.03898   0.04487   0.04693
 Alpha virt. eigenvalues --    0.05178   0.05562   0.06889   0.07123   0.07533
 Alpha virt. eigenvalues --    0.08435   0.08624   0.09155   0.09837   0.10057

 Mulliken charges:
               1
     1  C    1.793707
     2  C    0.967183
     3  C    0.146233
     4  C   -0.516234
     5  C    0.414457
     6  C    0.812697
     7  H   -0.330736
     8  H   -0.344721
     9  O   -2.225303
    10  Si   1.301278
    11  H   -0.386508
    12  C    0.498143
    13  O   -1.492844
    14  C   -0.572752
    15  H   -0.269179
    16  H    0.303894
    17  H    0.303886
    18  H    0.032283
    19  H   -0.169528
    20  H   -0.132979
    21  H   -0.132979
 Sum of Mulliken charges =  -0.00000

 Dipole moment (field-independent basis, Debye):
    X=              2.0891    Y=              2.1136    Z=             -0.0001  Tot=              2.9718

 Test job not archived.
 1\1\GINC-SE333\SP\RHF\Aug-CC-pVDZ\C8H10O2Si1\OHZDE\09-Apr-2025\0\\#t h
 f aug-cc-pvdz iop(5/13=1,5/36=2,99/5=2) pseudo=read geom=check guess=(
 read,tcheck) scf=(maxcycle=1)\\title\\0,1\C,0,-1.539954,-0.045432,-0.0
 00026\C,0,-1.018479,1.256286,-0.000021\C,0,0.351125,1.477025,-0.000011
 \C,0,-0.644228,-1.12215,-0.000018\C,0,0.726568,-0.914686,-0.000007\C,0
 ,1.230984,0.391283,-0.000004\H,0,-1.052287,-2.125342,-0.000021\H,0,1.4
 02369,-1.762912,-0.000002\O,0,2.564183,0.667737,0.000006\Si,0,3.892724
 ,-0.338317,0.000021\H,0,-1.682373,2.112158,-0.000027\C,0,-3.006069,-0.

 Normal termination of Gaussian 16 at Wed Apr  9 00:06:46 2025.
