 Gaussian 16, Revision C.01,

 ----------------------------------------------------------------------
 #t hf aug-cc-pvdz symm=none int=(grid=ultrafine) guess=(read,tcheck) s
 table=(opt,rrhf)
 ----------------------------------------------------------------------
 -----
 title
 -----
 Symbolic Z-matrix:
 Charge =  0 Multiplicity = 1

 SCF Done:  E(RHF) =  -647.689418245     A.U. after   13 cycles
 Normal termination of Gaussian 16 at Tue Apr  8 23:37:40 2025.
 Gaussian 16:  ES64L-G16RevC.01  3-Jul-2019

 ----------------------------------------------------------------------
 #t hf aug-cc-pvdz iop(5/13=1,5/36=2,99/5=2) pseudo=read geom=check gue
 ss=(read,tcheck) scf=(maxcycle=1)
 ----------------------------------------------------------------------
 -----
 title
 -----
 Structure from the checkpoint file:  "BDE49_nonexpt_1527_mol1.chk"
 Charge =  0 Multiplicity = 1

                         Standard orientation:
 ---------------------------------------------------------------------
 Center     Atomic      Atomic             Coordinates (Angstroms)
 Number     Number       Type             X           Y           Z
 ---------------------------------------------------------------------
      1          6           0        0.991827   -0.840006    1.700420
      2          7           0        0.301845   -0.162587    0.604625
      3          1           0        1.805863   -0.224290    2.099058
      4          1           0        1.409316   -1.814709    1.413589
      5          1           0        0.274336   -1.006062    2.504291
      6         15           0       -1.413167   -0.172310    0.512147
      7          7           0        1.061983    0.255023   -0.518682
      8          6           0        1.793932   -0.829398   -1.170795
      9          1           0        1.111669   -1.652340   -1.385272
     10          1           0        2.636321   -1.217286   -0.573901
     11          1           0        2.196623   -0.460757   -2.117824
     12          6           0        1.919155    1.398946   -0.215750
     13          1           0        2.347837    1.775564   -1.148421
     14          1           0        1.317598    2.188566    0.234425
     15          1           0        2.752743    1.158957    0.465777
     16          6           0       -1.780036   -1.064746   -1.075111
     17          1           0       -1.215870   -0.650413   -1.914745
     18          1           0       -2.849443   -0.976285   -1.288268
     19          1           0       -1.547581   -2.126752   -0.966373
     20          6           0       -1.765331    1.546150   -0.078298
     21          1           0       -2.825088    1.622650   -0.337641
     22          1           0       -1.558677    2.258495    0.723254
     23          1           0       -1.162219    1.796584   -0.954539
 ---------------------------------------------------------------------

 SCF Done:  E(RHF) =  -648.070609027     A.U. after    2 cycles

 The electronic state is 1-A.
 Alpha  occ. eigenvalues --  -84.27391 -15.51710 -15.50026 -11.25436 -11.25348
 Alpha  occ. eigenvalues --  -11.25195 -11.21914 -11.21814  -6.74033  -4.27047
 Alpha  occ. eigenvalues --   -4.26328  -4.25979  -1.28130  -1.11039  -0.99983
 Alpha  occ. eigenvalues --   -0.96430  -0.93438  -0.92758  -0.83918  -0.74301
 Alpha  occ. eigenvalues --   -0.67954  -0.66294  -0.65096  -0.59538  -0.58402
 Alpha  occ. eigenvalues --   -0.58092  -0.56691  -0.55729  -0.54980  -0.54651
 Alpha  occ. eigenvalues --   -0.54311  -0.52664  -0.50751  -0.46314  -0.40353
 Alpha  occ. eigenvalues --   -0.38173  -0.31089
 Alpha virt. eigenvalues --    0.03889   0.04450   0.04591   0.04622   0.04909
 Alpha virt. eigenvalues --    0.04943   0.05259   0.05369   0.05949   0.08495
 Alpha virt. eigenvalues --    0.09215   0.09526   0.09754   0.10046   0.10459

 Mulliken charges:
               1
     1  C   -0.227335
     2  N    0.851009
     3  H    0.140661
     4  H    0.170250
     5  H    0.093310
     6  P    0.673813
     7  N   -0.754607
     8  C   -0.348918
     9  H   -0.000860
    10  H    0.210677
    11  H    0.094424
    12  C   -0.253880
    13  H    0.137662
    14  H    0.014326
    15  H    0.185575
    16  C   -0.773664
    17  H    0.180634
    18  H    0.039038
    19  H    0.060267
    20  C   -0.771956
    21  H    0.049349
    22  H    0.057045
    23  H    0.173179
 Sum of Mulliken charges =  -0.00000

 Dipole moment (field-independent basis, Debye):
    X=              1.3111    Y=             -0.0599    Z=             -0.5437  Tot=              1.4207

 Test job not archived.
 1\1\GINC-SE457\SP\RHF\Aug-CC-pVDZ\C5H15N2P1\OHZDE\08-Apr-2025\0\\#t hf
  aug-cc-pvdz iop(5/13=1,5/36=2,99/5=2) pseudo=read geom=check guess=(r
 ead,tcheck) scf=(maxcycle=1)\\title\\0,1\C,0,0.991827,-0.840006,1.7004
 2\N,0,0.301845,-0.162587,0.604625\H,0,1.805863,-0.22429,2.099058\H,0,1
 .409316,-1.814709,1.413589\H,0,0.274336,-1.006062,2.504291\P,0,-1.4131
 67,-0.17231,0.512147\N,0,1.061983,0.255023,-0.518682\C,0,1.793932,-0.8
 29398,-1.170795\H,0,1.111669,-1.65234,-1.385272\H,0,2.636321,-1.217286
 ,-0.573901\H,0,2.196623,-0.460757,-2.117824\C,0,1.919155,1.398946,-0.2

 Normal termination of Gaussian 16 at Tue Apr  8 23:37:52 2025.
