 Gaussian 16, Revision C.01,

 ----------------------------------------------------------------------
 #t hf aug-cc-pvdz symm=none int=(grid=ultrafine) guess=(read,tcheck) s
 table=opt
 ----------------------------------------------------------------------
 -----
 title
 -----
 Symbolic Z-matrix:
 Charge =  0 Multiplicity = 2

 SCF Done:  E(UHF) =  -645.085004868     A.U. after   24 cycles
 Normal termination of Gaussian 16 at Wed Apr  9 00:18:48 2025.
 Gaussian 16:  ES64L-G16RevC.01  3-Jul-2019

 ----------------------------------------------------------------------
 #t hf aug-cc-pvdz iop(5/13=1,5/36=2,99/5=2) pseudo=read geom=check gue
 ss=(read,tcheck) scf=(maxcycle=1)
 ----------------------------------------------------------------------
 -----
 title
 -----
 Structure from the checkpoint file:  "BDE49_nonexpt_2567_mol2.chk"
 Charge =  0 Multiplicity = 2

                         Standard orientation:
 ---------------------------------------------------------------------
 Center     Atomic      Atomic             Coordinates (Angstroms)
 Number     Number       Type             X           Y           Z
 ---------------------------------------------------------------------
      1         16           0        1.549988   -0.788595    0.388381
      2          6           0        0.423213    0.193174   -0.642321
      3          8           0        0.717202    1.559688   -0.715653
      4          7           0       -0.823312   -0.107999    0.038940
      5          6           0       -1.798485   -0.957365   -0.614720
      6          1           0       -1.293472   -1.656635   -1.280710
      7          1           0       -2.518271   -0.365408   -1.200689
      8          1           0       -2.352529   -1.534767    0.129244
      9          6           0       -1.295885    0.755450    1.103831
     10          1           0       -0.451988    1.216491    1.612002
     11          1           0       -1.858576    0.167504    1.832507
     12          1           0       -1.946291    1.549733    0.712132
     13          1           0        0.359544   -0.184933   -1.662831
     14          1           0        1.314277    1.756471    0.016153
 ---------------------------------------------------------------------

 SCF Done:  E(UHF) =  -645.397443237     A.U. after    2 cycles

 The electronic state is 2-A.
 Alpha  occ. eigenvalues --  -93.95939 -20.56835 -15.50787 -11.36034 -11.26919
 Alpha  occ. eigenvalues --  -11.26482  -8.24051  -6.23147  -6.21444  -6.21161
 Alpha  occ. eigenvalues --   -1.48199  -1.24474  -1.04888  -0.98108  -0.92326
 Alpha  occ. eigenvalues --   -0.82511  -0.71872  -0.69294  -0.66650  -0.64030
 Alpha  occ. eigenvalues --   -0.59994  -0.57034  -0.56414  -0.54800  -0.51805
 Alpha  occ. eigenvalues --   -0.47793  -0.44379  -0.38824  -0.37748
 Alpha virt. eigenvalues --    0.03671   0.04504   0.04896   0.05296   0.05560
 Alpha virt. eigenvalues --    0.06340   0.06830   0.07712   0.09816   0.10769
 Alpha virt. eigenvalues --    0.13061   0.14030   0.14385   0.15206   0.15692

  Beta  occ. eigenvalues --  -93.95070 -20.56845 -15.50020 -11.36137 -11.26953
  Beta  occ. eigenvalues --  -11.26515  -8.23054  -6.20951  -6.20627  -6.19296
  Beta  occ. eigenvalues --   -1.48219  -1.23033  -1.01258  -0.98007  -0.88270
  Beta  occ. eigenvalues --   -0.81644  -0.70881  -0.69043  -0.64939  -0.62993
  Beta  occ. eigenvalues --   -0.59822  -0.56807  -0.56273  -0.54729  -0.50638
  Beta  occ. eigenvalues --   -0.46977  -0.37078  -0.35870
  Beta virt. eigenvalues --    0.01124   0.03683   0.04517   0.05093   0.05319
  Beta virt. eigenvalues --    0.05578   0.06531   0.06841   0.07912   0.09859
  Beta virt. eigenvalues --    0.11507   0.13181   0.14085   0.14521   0.15704

 Mulliken charges and spin densities:
               1          2
     1  S    0.305370   1.052810
     2  C   -0.092393  -0.108047
     3  O   -1.226186   0.002089
     4  N    0.642474   0.099337
     5  C   -0.384403  -0.030068
     6  H    0.069784   0.001747
     7  H    0.192621   0.005819
     8  H    0.128023   0.001540
     9  C   -0.354450  -0.024535
    10  H    0.043849  -0.000221
    11  H    0.128078   0.001696
    12  H    0.175651   0.002877
    13  H    0.018794  -0.000458
    14  H    0.352789  -0.004587
 Sum of Mulliken charges =  -0.00000   1.00000

 Dipole moment (field-independent basis, Debye):
    X=             -1.3259    Y=              0.1298    Z=              0.1524  Tot=              1.3409
                          Isotropic Fermi Contact Couplings
        Atom                 a.u.       MegaHertz       Gauss      10(-4) cm-1
     1  S(33)              0.18552      63.71988      22.73684      21.25466
     2  C(13)             -0.01853     -20.83290      -7.43370      -6.94911
     3  O(17)             -0.00441       2.67361       0.95401       0.89182
     4  N(14)              0.16546      53.46011      19.07590      17.83237
     5  C(13)             -0.00654      -7.34936      -2.62244      -2.45148
     6  H(1)               0.00045       2.02198       0.72149       0.67446
     7  H(1)               0.00220       9.81218       3.50123       3.27299
     8  H(1)               0.00009       0.38719       0.13816       0.12915

 Normal termination of Gaussian 16 at Wed Apr  9 00:18:54 2025.
