 Gaussian 16, Revision C.01,

 ----------------------------------------------------------------------
 #t hf aug-cc-pvdz symm=none int=(grid=ultrafine) guess=(read,tcheck) s
 table=(opt,rrhf)
 ----------------------------------------------------------------------
 -----
 title
 -----
 Symbolic Z-matrix:
 Charge =  0 Multiplicity = 1

 SCF Done:  E(RHF) =  -685.164635671     A.U. after   14 cycles
 Normal termination of Gaussian 16 at Wed Apr  9 00:21:38 2025.
 Gaussian 16:  ES64L-G16RevC.01  3-Jul-2019

 ----------------------------------------------------------------------
 #t hf aug-cc-pvdz iop(5/13=1,5/36=2,99/5=2) pseudo=read geom=check gue
 ss=(read,tcheck) scf=(maxcycle=1)
 ----------------------------------------------------------------------
 -----
 title
 -----
 Structure from the checkpoint file:  "BDE49_nonexpt_2644_mol1.chk"
 Charge =  0 Multiplicity = 1

                         Standard orientation:
 ---------------------------------------------------------------------
 Center     Atomic      Atomic             Coordinates (Angstroms)
 Number     Number       Type             X           Y           Z
 ---------------------------------------------------------------------
      1          9           0        1.791010    0.559428    0.000304
      2         16           0        0.760723   -0.724583   -0.000074
      3          6           0       -0.766003    0.204833   -0.000358
      4          8           0       -0.870058    1.391873   -0.000015
      5          8           0       -1.766223   -0.699213    0.000052
      6          1           0       -2.604399   -0.211801    0.000306
 ---------------------------------------------------------------------

 SCF Done:  E(RHF) =  -685.491620893     A.U. after    2 cycles

 The electronic state is 1-A.
 Alpha  occ. eigenvalues --  -94.07473 -26.49766 -20.64262 -20.57836 -11.45409
 Alpha  occ. eigenvalues --   -8.34816  -6.32586  -6.32300  -6.32006  -1.60472
 Alpha  occ. eigenvalues --   -1.58761  -1.50058  -1.07433  -0.86892  -0.74713
 Alpha  occ. eigenvalues --   -0.74041  -0.69206  -0.66388  -0.66148  -0.64940
 Alpha  occ. eigenvalues --   -0.57594  -0.52098  -0.46931  -0.42148
 Alpha virt. eigenvalues --    0.02954   0.05806   0.06884   0.09945   0.10854
 Alpha virt. eigenvalues --    0.11497   0.11780   0.13592   0.14688   0.14884
 Alpha virt. eigenvalues --    0.19119   0.21011   0.21075   0.23677   0.24395

 Mulliken charges:
               1
     1  F   -0.657947
     2  S    1.115308
     3  C    1.033034
     4  O   -0.885002
     5  O   -0.973719
     6  H    0.368325
 Sum of Mulliken charges =  -0.00000

 Dipole moment (field-independent basis, Debye):
    X=             -1.9971    Y=             -1.8627    Z=             -0.0004  Tot=              2.7310

 Test job not archived.
 1\1\GINC-SE419\SP\RHF\Aug-CC-pVDZ\C1H1F1O2S1\OHZDE\09-Apr-2025\0\\#t h
 f aug-cc-pvdz iop(5/13=1,5/36=2,99/5=2) pseudo=read geom=check guess=(
 read,tcheck) scf=(maxcycle=1)\\title\\0,1\F,0,-1.79101,0.559428,-0.000
 304\S,0,-0.760723,-0.724583,0.000074\C,0,0.766003,0.204833,0.000358\O,
 0,0.870058,1.391873,0.000015\O,0,1.766223,-0.699213,-0.000052\H,0,2.60
 4399,-0.211801,-0.000306\\Version=ES64L-G16RevC.01\State=1-A\HF=-685.4
 916209\RMSD=6.828e-03\Dipole=0.7857224,-0.7328445,0.0001509\Quadrupole
 =4.2252144,-3.5903302,-0.6348842,0.534974,-0.0004575,0.0002177\PG=C01

 Normal termination of Gaussian 16 at Wed Apr  9 00:21:40 2025.
