 Gaussian 16, Revision C.01,

 ----------------------------------------------------------------------
 #t hf aug-cc-pvdz symm=none int=(grid=ultrafine) guess=(read,tcheck) s
 table=opt
 ----------------------------------------------------------------------
 -----
 title
 -----
 Symbolic Z-matrix:
 Charge =  0 Multiplicity = 2

 SCF Done:  E(UHF) =  -407.772720872     A.U. after   14 cycles

 1\1\GINC-SE029\Stability\UHF\Aug-CC-pVDZ\C3H9Si1\OHZDE\08-Apr-2025\0\\
 #t hf aug-cc-pvdz symm=none int=(grid=ultrafine) guess=(read,tcheck) s
 table=opt\\title\\0,2\Si,0,0.000007,0.000004,-0.426733\C,0,1.297362,1.
 235158,0.177601\H,0,2.297278,0.96723,-0.174047\H,0,1.323537,1.259676,1
 .274707\H,0,1.078494,2.247105,-0.173601\C,0,0.421002,-1.74113,0.177474
 \H,0,1.406758,-2.057582,-0.17384\H,0,-0.311056,-2.473073,-0.174129\H,0
 ,0.429263,-1.776052,1.274576\C,0,-1.718381,0.505964,0.177339\H,0,-2.48
 5279,-0.189496,-0.174059\H,0,-1.986199,1.505925,-0.174266\H,0,-1.75279

 Normal termination of Gaussian 16 at Tue Apr  8 22:45:44 2025.
 Gaussian 16:  ES64L-G16RevC.01  3-Jul-2019

 ----------------------------------------------------------------------
 #t hf aug-cc-pvdz iop(5/13=1,5/36=2,99/5=2) pseudo=read geom=check gue
 ss=(read,tcheck) scf=(maxcycle=1)
 ----------------------------------------------------------------------
 -----
 title
 -----
 Structure from the checkpoint file:  "BDE49_expt_1539_mol2.chk"
 Charge =  0 Multiplicity = 2

                         Standard orientation:
 ---------------------------------------------------------------------
 Center     Atomic      Atomic             Coordinates (Angstroms)
 Number     Number       Type             X           Y           Z
 ---------------------------------------------------------------------
      1         14           0       -0.000007   -0.000004   -0.426733
      2          6           0       -1.301555   -1.230739    0.177601
      3          1           0       -2.300554   -0.959411   -0.174047
      4          1           0       -1.327814   -1.255167    1.274707
      5          1           0       -1.086130   -2.243424   -0.173601
      6          6           0       -0.415078    1.742552    0.177474
      7          1           0       -1.399752    2.062354   -0.173840
      8          1           0        0.319465    2.472001   -0.174129
      9          1           0       -0.423220    1.777501    1.274576
     10          6           0        1.716650   -0.511806    0.177339
     11          1           0        2.485909    0.181042   -0.174059
     12          1           0        1.981066   -1.512672   -0.174266
     13          1           0        1.751027   -0.522209    1.274438
 ---------------------------------------------------------------------

 SCF Done:  E(UHF) =  -407.938824471     A.U. after    2 cycles

 The electronic state is 2-A.
 Alpha  occ. eigenvalues --  -69.51759 -11.21344 -11.21340 -11.21340  -6.18830
 Alpha  occ. eigenvalues --   -3.94742  -3.93869  -3.93869  -0.97749  -0.92887
 Alpha  occ. eigenvalues --   -0.92887  -0.65142  -0.57925  -0.56832  -0.56832
 Alpha  occ. eigenvalues --   -0.54940  -0.54939  -0.53858  -0.44427  -0.44426
 Alpha  occ. eigenvalues --   -0.30443
 Alpha virt. eigenvalues --    0.03600   0.04187   0.04187   0.04344   0.06694
 Alpha virt. eigenvalues --    0.06695   0.07222   0.07222   0.07373   0.09267
 Alpha virt. eigenvalues --    0.10357   0.10357   0.13694   0.15213   0.16783

  Beta  occ. eigenvalues --  -69.51232 -11.21270 -11.21266 -11.21266  -6.18029
  Beta  occ. eigenvalues --   -3.93519  -3.93519  -3.92677  -0.96795  -0.92551
  Beta  occ. eigenvalues --   -0.92550  -0.61531  -0.56638  -0.56637  -0.56574
  Beta  occ. eigenvalues --   -0.54381  -0.54380  -0.53762  -0.43587  -0.43586
  Beta virt. eigenvalues --    0.02921   0.04254   0.04254   0.04389   0.06622
  Beta virt. eigenvalues --    0.06708   0.06709   0.07262   0.07262   0.08726
  Beta virt. eigenvalues --    0.09269   0.10608   0.10608   0.14361   0.15891

 Mulliken charges and spin densities:
               1          2
     1  Si   1.948857   0.959106
     2  C   -0.683640   0.016191
     3  H   -0.015936  -0.007777
     4  H    0.065881   0.012975
     5  H   -0.015943  -0.007763
     6  C   -0.683643   0.016195
     7  H   -0.015935  -0.007766
     8  H   -0.015932  -0.007774
     9  H    0.065894   0.012975
    10  C   -0.683656   0.016205
    11  H   -0.015929  -0.007767
    12  H   -0.015914  -0.007776
    13  H    0.065897   0.012975
 Sum of Mulliken charges =   0.00000   1.00000

 Dipole moment (field-independent basis, Debye):
    X=              0.0002    Y=              0.0000    Z=              0.6480  Tot=              0.6480
                          Isotropic Fermi Contact Couplings
        Atom                 a.u.       MegaHertz       Gauss      10(-4) cm-1
     1  Si(29)             0.55576    -493.92284    -176.24395    -164.75492
     2  C(13)              0.01990      22.37014       7.98222       7.46188
     3  H(1)               0.00007       0.31647       0.11292       0.10556
     4  H(1)               0.00858      38.33040      13.67724      12.78565
     5  H(1)               0.00007       0.30653       0.10938       0.10225
     6  C(13)              0.01990      22.37064       7.98240       7.46204
     7  H(1)               0.00007       0.31000       0.11062       0.10341
     8  H(1)               0.00007       0.31297       0.11168       0.10440

 Normal termination of Gaussian 16 at Tue Apr  8 22:45:47 2025.
