 Gaussian 16, Revision C.01,

 ----------------------------------------------------------------------
 #t hf aug-cc-pvdz symm=none int=(grid=ultrafine) guess=(read,tcheck) s
 table=(opt,rrhf)
 ----------------------------------------------------------------------
 -----
 title
 -----
 Symbolic Z-matrix:
 Charge =  0 Multiplicity = 1

 SCF Done:  E(RHF) =  -683.496494315     A.U. after   18 cycles
 Normal termination of Gaussian 16 at Tue Apr  8 23:16:31 2025.
 Gaussian 16:  ES64L-G16RevC.01  3-Jul-2019

 ----------------------------------------------------------------------
 #t hf aug-cc-pvdz iop(5/13=1,5/36=2,99/5=2) pseudo=read geom=check gue
 ss=(read,tcheck) scf=(maxcycle=1)
 ----------------------------------------------------------------------
 -----
 title
 -----
 Structure from the checkpoint file:  "BDE49_nonexpt_1011_mol1.chk"
 Charge =  0 Multiplicity = 1

                         Standard orientation:
 ---------------------------------------------------------------------
 Center     Atomic      Atomic             Coordinates (Angstroms)
 Number     Number       Type             X           Y           Z
 ---------------------------------------------------------------------
      1         16           0       -0.682744   -0.592603   -0.911440
      2          7           0       -2.132187    0.177973   -0.038481
      3          8           0       -1.952109    0.594887    1.049874
      4          6           0        0.670282   -0.460437    0.317851
      5          6           0        1.298938   -1.837945    0.558937
      6          1           0        0.549186   -2.570779    0.861732
      7          1           0        2.048941   -1.766893    1.352932
      8          1           0        1.798009   -2.212691   -0.338798
      9          6           0        1.709307    0.604188   -0.076975
     10          6           0        1.175588    2.037188   -0.113841
     11          1           0        2.145680    0.340037   -1.046683
     12          1           0        2.525795    0.540524    0.652761
     13          1           0        0.374013    2.144464   -0.848897
     14          1           0        1.969353    2.738296   -0.383099
     15          1           0        0.780409    2.337023    0.860764
     16          1           0        0.150009   -0.131210    1.226866
 ---------------------------------------------------------------------

 SCF Done:  E(RHF) =  -683.847373704     A.U. after    2 cycles

 The electronic state is 1-A.
 Alpha  occ. eigenvalues --  -93.97749 -20.64466 -15.69224 -11.28249 -11.24573
 Alpha  occ. eigenvalues --  -11.24382 -11.22973  -8.25729  -6.23494  -6.23298
 Alpha  occ. eigenvalues --   -6.23112  -1.64355  -1.13115  -1.05597  -1.00263
 Alpha  occ. eigenvalues --   -0.91821  -0.86998  -0.78627  -0.72961  -0.71120
 Alpha  occ. eigenvalues --   -0.65695  -0.62908  -0.61147  -0.60622  -0.58236
 Alpha  occ. eigenvalues --   -0.54266  -0.51211  -0.50264  -0.49312  -0.45653
 Alpha  occ. eigenvalues --   -0.40194  -0.38164
 Alpha virt. eigenvalues --    0.03521   0.03679   0.04093   0.04834   0.05536
 Alpha virt. eigenvalues --    0.06268   0.06497   0.06882   0.07569   0.09141
 Alpha virt. eigenvalues --    0.09763   0.09995   0.12574   0.12748   0.14230

 Mulliken charges:
               1
     1  S    0.366808
     2  N    0.656395
     3  O   -0.972732
     4  C   -0.871492
     5  C   -0.240567
     6  H    0.144238
     7  H    0.175682
     8  H    0.199905
     9  C   -0.228788
    10  C   -0.303753
    11  H    0.119923
    12  H    0.168295
    13  H    0.238097
    14  H    0.094079
    15  H    0.187089
    16  H    0.266822
 Sum of Mulliken charges =   0.00000

 Dipole moment (field-independent basis, Debye):
    X=              2.6927    Y=             -0.2877    Z=              0.8342  Tot=              2.8336

 Test job not archived.
 1\1\GINC-SE393\SP\RHF\Aug-CC-pVDZ\C4H9N1O1S1\OHZDE\08-Apr-2025\0\\#t h
 f aug-cc-pvdz iop(5/13=1,5/36=2,99/5=2) pseudo=read geom=check guess=(
 read,tcheck) scf=(maxcycle=1)\\title\\0,1\S,0,-0.682744,-0.592603,-0.9
 1144\N,0,-2.132187,0.177973,-0.038481\O,0,-1.952109,0.594887,1.049874\
 C,0,0.670282,-0.460437,0.317851\C,0,1.298938,-1.837945,0.558937\H,0,0.
 549186,-2.570779,0.861732\H,0,2.048941,-1.766893,1.352932\H,0,1.798009
 ,-2.212691,-0.338798\C,0,1.709307,0.604188,-0.076975\C,0,1.175588,2.03
 7188,-0.113841\H,0,2.14568,0.340037,-1.046683\H,0,2.525795,0.540524,0.

 Normal termination of Gaussian 16 at Tue Apr  8 23:16:38 2025.
