 Gaussian 16, Revision C.01,

 ----------------------------------------------------------------------
 #t hf aug-cc-pvdz symm=none int=(grid=ultrafine) guess=(read,tcheck) s
 table=(opt,rrhf)
 ----------------------------------------------------------------------
 -----
 title
 -----
 Symbolic Z-matrix:
 Charge =  0 Multiplicity = 1

 SCF Done:  E(RHF) =  -143.518597408     A.U. after   12 cycles
 Normal termination of Gaussian 16 at Wed Apr  9 00:26:48 2025.
 Gaussian 16:  ES64L-G16RevC.01  3-Jul-2019

 ----------------------------------------------------------------------
 #t hf aug-cc-pvdz iop(5/13=1,5/36=2,99/5=2) pseudo=read geom=check gue
 ss=(read,tcheck) scf=(maxcycle=1)
 ----------------------------------------------------------------------
 -----
 title
 -----
 Structure from the checkpoint file:  "BDE49_nonexpt_278_mol1.chk"
 Charge =  0 Multiplicity = 1

                         Standard orientation:
 ---------------------------------------------------------------------
 Center     Atomic      Atomic             Coordinates (Angstroms)
 Number     Number       Type             X           Y           Z
 ---------------------------------------------------------------------
      1          5           0        0.806826    1.334750    0.101011
      2          6           0       -0.004031    0.097542   -0.397802
      3          6           0        0.818045   -1.114811    0.138621
      4          1           0        0.861925   -1.119678    1.232533
      5          1           0        0.024143    0.031307   -1.492602
      6          6           0       -1.461901    0.018435    0.079013
      7          1           0       -1.520038    0.054612    1.171549
      8          1           0       -1.941289   -0.909696   -0.251252
      9          1           0       -2.056039    0.851338   -0.308237
     10          1           0        1.842920   -1.122446   -0.242310
     11          1           0        0.339916   -2.048901   -0.172921
     12          1           0        1.756299    1.729400   -0.507631
     13          1           0        0.545358    1.853321    1.146825
 ---------------------------------------------------------------------

 SCF Done:  E(RHF) =  -143.682085307     A.U. after    2 cycles

 The electronic state is 1-A.
 Alpha  occ. eigenvalues --  -11.23389 -11.22277 -11.21273  -7.58836  -1.05904
 Alpha  occ. eigenvalues --   -0.93003  -0.81578  -0.68825  -0.61941  -0.58349
 Alpha  occ. eigenvalues --   -0.56451  -0.54334  -0.50505  -0.48421  -0.45738
 Alpha  occ. eigenvalues --   -0.43853
 Alpha virt. eigenvalues --    0.03283   0.03593   0.03886   0.04342   0.06234
 Alpha virt. eigenvalues --    0.06494   0.06728   0.07285   0.07589   0.09180
 Alpha virt. eigenvalues --    0.10895   0.11328   0.12647   0.13576   0.14739

 Mulliken charges:
               1
     1  B   -0.584689
     2  C   -0.349283
     3  C   -0.422273
     4  H    0.157885
     5  H    0.188208
     6  C   -0.313954
     7  H    0.170084
     8  H    0.161426
     9  H    0.113373
    10  H    0.096763
    11  H    0.124722
    12  H    0.316873
    13  H    0.340866
 Sum of Mulliken charges =   0.00000

 Dipole moment (field-independent basis, Debye):
    X=             -0.2052    Y=             -0.4768    Z=             -0.2559  Tot=              0.5788

 Test job not archived.
 1\1\GINC-SE458\SP\RHF\Aug-CC-pVDZ\C3H9B1\OHZDE\09-Apr-2025\0\\#t hf au
 g-cc-pvdz iop(5/13=1,5/36=2,99/5=2) pseudo=read geom=check guess=(read
 ,tcheck) scf=(maxcycle=1)\\title\\0,1\B,0,0.806826,1.33475,0.101011\C,
 0,-0.004031,0.097542,-0.397802\C,0,0.818045,-1.114811,0.138621\H,0,0.8
 61925,-1.119678,1.232533\H,0,0.024143,0.031307,-1.492602\C,0,-1.461901
 ,0.018435,0.079013\H,0,-1.520038,0.054612,1.171549\H,0,-1.941289,-0.90
 9696,-0.251252\H,0,-2.056039,0.851338,-0.308237\H,0,1.84292,-1.122445,
 -0.24231\H,0,0.339917,-2.048901,-0.172921\H,0,1.756299,1.729401,-0.507

 Normal termination of Gaussian 16 at Wed Apr  9 00:26:51 2025.
