 Gaussian 16, Revision C.01,

 ----------------------------------------------------------------------
 #t hf aug-cc-pvdz symm=none int=(grid=ultrafine) guess=(read,tcheck) s
 table=(opt,rrhf)
 ----------------------------------------------------------------------
 -----
 title
 -----
 Symbolic Z-matrix:
 Charge =  0 Multiplicity = 1

 SCF Done:  E(RHF) =  -877.166893496     A.U. after   13 cycles
 Normal termination of Gaussian 16 at Wed Apr  9 00:12:18 2025.
 Gaussian 16:  ES64L-G16RevC.01  3-Jul-2019

 ----------------------------------------------------------------------
 #t hf aug-cc-pvdz iop(5/13=1,5/36=2,99/5=2) pseudo=read geom=check gue
 ss=(read,tcheck) scf=(maxcycle=1)
 ----------------------------------------------------------------------
 -----
 title
 -----
 Structure from the checkpoint file:  "BDE49_nonexpt_2395_mol1.chk"
 Charge =  0 Multiplicity = 1

                         Standard orientation:
 ---------------------------------------------------------------------
 Center     Atomic      Atomic             Coordinates (Angstroms)
 Number     Number       Type             X           Y           Z
 ---------------------------------------------------------------------
      1         14           0       -0.441392    1.097817    0.000078
      2         14           0        0.441392   -1.097817    0.000047
      3          7           0        2.246084   -0.935547   -0.000107
      4          1           0        0.117460   -1.893709   -1.206083
      5          1           0        0.117612   -1.893687    1.206234
      6          7           0        2.609848    0.253809   -0.000198
      7          7           0       -2.246084    0.935547    0.000038
      8          1           0       -0.117516    1.893723   -1.206059
      9          1           0       -0.117557    1.893673    1.206258
     10          7           0       -2.609848   -0.253809   -0.000011
     11          6           0        4.067808    0.439908   -0.000007
     12          1           0        4.327310    1.033869    0.881109
     13          1           0        4.327546    1.033617   -0.881222
     14          1           0        4.593856   -0.518552    0.000201
     15          6           0       -4.067808   -0.439908   -0.000019
     16          1           0       -4.327429   -1.033781    0.881120
     17          1           0       -4.327427   -1.033705   -0.881211
     18          1           0       -4.593856    0.518552    0.000022
 ---------------------------------------------------------------------

 SCF Done:  E(RHF) =  -877.533159024     A.U. after    2 cycles

 The electronic state is 1-A.
 Alpha  occ. eigenvalues --  -69.54367 -69.54367 -15.57745 -15.57726 -15.53802
 Alpha  occ. eigenvalues --  -15.53792 -11.26279 -11.26278  -6.21337  -6.21334
 Alpha  occ. eigenvalues --   -3.96688  -3.96688  -3.96630  -3.96621  -3.96611
 Alpha  occ. eigenvalues --   -3.96560  -1.35255  -1.35253  -1.03971  -1.03939
 Alpha  occ. eigenvalues --   -0.86121  -0.85246  -0.76705  -0.73005  -0.67206
 Alpha  occ. eigenvalues --   -0.66908  -0.64053  -0.63213  -0.63102  -0.61684
 Alpha  occ. eigenvalues --   -0.55405  -0.54351  -0.54207  -0.52790  -0.47831
 Alpha  occ. eigenvalues --   -0.47134  -0.43628  -0.40717  -0.39727
 Alpha virt. eigenvalues --    0.03612   0.04237   0.04853   0.05032   0.05451
 Alpha virt. eigenvalues --    0.05883   0.05940   0.05958   0.06173   0.06299
 Alpha virt. eigenvalues --    0.07035   0.07096   0.07932   0.08324   0.10665

 Mulliken charges:
               1
     1  Si   0.560913
     2  Si   0.560913
     3  N   -0.396357
     4  H   -0.103734
     5  H   -0.103754
     6  N   -0.101150
     7  N   -0.396357
     8  H   -0.103726
     9  H   -0.103762
    10  N   -0.101150
    11  C   -0.283229
    12  H    0.183614
    13  H    0.183639
    14  H    0.060058
    15  C   -0.283229
    16  H    0.183625
    17  H    0.183628
    18  H    0.060058
 Sum of Mulliken charges =  -0.00000

 Dipole moment (field-independent basis, Debye):
    X=              0.0000    Y=             -0.0000    Z=              0.0004  Tot=              0.0004

 Test job not archived.
 1\1\GINC-SE341\SP\RHF\Aug-CC-pVDZ\C2H10N4Si2\OHZDE\09-Apr-2025\0\\#t h
 f aug-cc-pvdz iop(5/13=1,5/36=2,99/5=2) pseudo=read geom=check guess=(
 read,tcheck) scf=(maxcycle=1)\\title\\0,1\Si,0,0.441392,-1.097817,0.00
 0078\Si,0,-0.441392,1.097817,0.000047\N,0,-2.246084,0.935547,-0.000107
 \H,0,-0.11746,1.893709,-1.206083\H,0,-0.117612,1.893687,1.206234\N,0,-
 2.609848,-0.253809,-0.000198\N,0,2.246084,-0.935547,0.000038\H,0,0.117
 516,-1.893723,-1.206059\H,0,0.117557,-1.893673,1.206258\N,0,2.609848,0
 .253809,-0.000011\C,0,-4.067808,-0.439908,-0.000007\H,0,-4.32731,-1.03

 Normal termination of Gaussian 16 at Wed Apr  9 00:12:25 2025.
