 Gaussian 16, Revision C.01,

 ----------------------------------------------------------------------
 #t hf aug-cc-pvdz symm=none int=(grid=ultrafine) guess=(read,tcheck) s
 table=(opt,rrhf)
 ----------------------------------------------------------------------
 -----
 title
 -----
 Symbolic Z-matrix:
 Charge =  0 Multiplicity = 1

 SCF Done:  E(RHF) =  -1239.83697513     A.U. after   18 cycles
 Normal termination of Gaussian 16 at Wed Apr  9 00:23:01 2025.
 Gaussian 16:  ES64L-G16RevC.01  3-Jul-2019

 ----------------------------------------------------------------------
 #t hf aug-cc-pvdz iop(5/13=1,5/36=2,99/5=2) pseudo=read geom=check gue
 ss=(read,tcheck) scf=(maxcycle=1)
 ----------------------------------------------------------------------
 -----
 title
 -----
 Structure from the checkpoint file:  "BDE49_nonexpt_2605_mol1.chk"
 Charge =  0 Multiplicity = 1

                         Standard orientation:
 ---------------------------------------------------------------------
 Center     Atomic      Atomic             Coordinates (Angstroms)
 Number     Number       Type             X           Y           Z
 ---------------------------------------------------------------------
      1         17           0       -2.904539   -0.844847    0.898147
      2          6           0       -0.588709    0.698375   -0.342768
      3         16           0       -2.143431    0.039169   -0.868413
      4          6           0        0.579432   -0.125066   -0.207208
      5          6           0        0.572321   -1.529487   -0.388828
      6          1           0       -0.357323   -2.017931   -0.649085
      7          6           0        1.724595   -2.264433   -0.237445
      8          1           0        1.698663   -3.338687   -0.380406
      9          6           0        2.942396   -1.635775    0.102751
     10          1           0        3.841313   -2.230203    0.218853
     11          6           0        2.984449   -0.275645    0.284292
     12          1           0        3.915225    0.217242    0.544099
     13          6           0        1.814738    0.513688    0.136942
     14          6           0        1.846395    1.920644    0.319017
     15          1           0        2.791130    2.388688    0.575343
     16          6           0        0.712256    2.682406    0.179319
     17          1           0        0.749061    3.755652    0.323728
     18          6           0       -0.513333    2.065382   -0.141513
     19          1           0       -1.413247    2.660393   -0.233776
 ---------------------------------------------------------------------

 SCF Done:  E(RHF) =  -1240.36086600     A.U. after    2 cycles

 The electronic state is 1-A.
 Alpha  occ. eigenvalues -- -105.57333 -94.01174 -11.28909 -11.27379 -11.27205
 Alpha  occ. eigenvalues --  -11.27030 -11.26580 -11.25996 -11.25798 -11.25636
 Alpha  occ. eigenvalues --  -11.25493 -11.25151 -10.61976  -8.28770  -7.78911
 Alpha  occ. eigenvalues --   -7.78482  -7.78456  -6.26575  -6.26346  -6.26072
 Alpha  occ. eigenvalues --   -1.20114  -1.13874  -1.11183  -1.05762  -1.02828
 Alpha  occ. eigenvalues --   -1.00716  -0.93397  -0.87170  -0.86574  -0.81187
 Alpha  occ. eigenvalues --   -0.73450  -0.71965  -0.70874  -0.64827  -0.63279
 Alpha  occ. eigenvalues --   -0.61965  -0.60141  -0.59183  -0.57134  -0.55273
 Alpha  occ. eigenvalues --   -0.52538  -0.52156  -0.50888  -0.49888  -0.46995
 Alpha  occ. eigenvalues --   -0.44680  -0.40991  -0.37273  -0.34486  -0.31591
 Alpha virt. eigenvalues --    0.02539   0.02891   0.03068   0.03775   0.04615
 Alpha virt. eigenvalues --    0.05299   0.06301   0.07149   0.07910   0.08148
 Alpha virt. eigenvalues --    0.09172   0.09751   0.10704   0.11068   0.11514

 Mulliken charges:
               1
     1  Cl  -0.275182
     2  C    0.437343
     3  S   -0.070336
     4  C    1.925094
     5  C   -0.187426
     6  H   -0.231621
     7  C   -0.269539
     8  H   -0.226521
     9  C   -0.049679
    10  H   -0.238652
    11  C   -0.009317
    12  H   -0.310241
    13  C    1.011105
    14  C   -0.131881
    15  H   -0.295297
    16  C   -0.053328
    17  H   -0.228182
    18  C   -0.581221
    19  H   -0.215120
 Sum of Mulliken charges =  -0.00000

 Dipole moment (field-independent basis, Debye):
    X=              3.1125    Y=              1.3124    Z=             -0.2684  Tot=              3.3885

 Test job not archived.
 1\1\GINC-SE039\SP\RHF\Aug-CC-pVDZ\C10H7Cl1S1\OHZDE\09-Apr-2025\0\\#t h
 f aug-cc-pvdz iop(5/13=1,5/36=2,99/5=2) pseudo=read geom=check guess=(
 read,tcheck) scf=(maxcycle=1)\\title\\0,1\Cl,0,-2.904539,-0.844847,0.8
 98147\C,0,-0.588709,0.698375,-0.342768\S,0,-2.143431,0.039169,-0.86841
 3\C,0,0.579432,-0.125066,-0.207208\C,0,0.572321,-1.529487,-0.388828\H,
 0,-0.357323,-2.017931,-0.649085\C,0,1.724595,-2.264433,-0.237445\H,0,1
 .698663,-3.338687,-0.380406\C,0,2.942396,-1.635775,0.102751\H,0,3.8413
 13,-2.230203,0.218853\C,0,2.984449,-0.275645,0.284292\H,0,3.915225,0.2

 Normal termination of Gaussian 16 at Wed Apr  9 00:23:19 2025.
