 Gaussian 16, Revision C.01,

 ----------------------------------------------------------------------
 #t hf aug-cc-pvdz symm=none int=(grid=ultrafine) guess=(read,tcheck) s
 table=opt
 ----------------------------------------------------------------------
 -----
 title
 -----
 Symbolic Z-matrix:
 Charge =  0 Multiplicity = 2

 SCF Done:  E(UHF) =  -270.597941733     A.U. after   17 cycles

 1\1\GINC-SE398\Stability\UHF\Aug-CC-pVDZ\C5H11O1\OHZDE\08-Apr-2025\0\\
 #t hf aug-cc-pvdz symm=none int=(grid=ultrafine) guess=(read,tcheck) s
 table=opt\\title\\0,2\C,0,-0.383002,-0.006931,-0.015087\C,0,-1.544976,
 -0.794921,-0.645303\H,0,-1.535403,-1.841113,-0.323105\H,0,-1.485298,-0
 .776763,-1.737005\H,0,-2.505919,-0.36454,-0.349516\C,0,-0.429132,1.462
 157,-0.486753\H,0,-0.383945,1.520938,-1.577681\H,0,0.414036,2.026492,-
 0.083777\H,0,-1.354931,1.942061,-0.15507\C,0,-0.503158,-0.050529,1.530
 407\H,0,-1.430848,0.427975,1.861326\H,0,0.337285,0.470105,1.994645\H,0

 Normal termination of Gaussian 16 at Tue Apr  8 22:48:13 2025.
 Gaussian 16:  ES64L-G16RevC.01  3-Jul-2019

 ----------------------------------------------------------------------
 #t hf aug-cc-pvdz iop(5/13=1,5/36=2,99/5=2) pseudo=read geom=check gue
 ss=(read,tcheck) scf=(maxcycle=1)
 ----------------------------------------------------------------------
 -----
 title
 -----
 Structure from the checkpoint file:  "BDE49_expt_163_mol2.chk"
 Charge =  0 Multiplicity = 2

                         Standard orientation:
 ---------------------------------------------------------------------
 Center     Atomic      Atomic             Coordinates (Angstroms)
 Number     Number       Type             X           Y           Z
 ---------------------------------------------------------------------
      1          6           0       -0.383002   -0.006931   -0.015087
      2          6           0       -1.544976   -0.794921   -0.645303
      3          1           0       -1.535403   -1.841113   -0.323105
      4          1           0       -1.485298   -0.776763   -1.737005
      5          1           0       -2.505919   -0.364540   -0.349516
      6          6           0       -0.429132    1.462157   -0.486753
      7          1           0       -0.383945    1.520938   -1.577681
      8          1           0        0.414036    2.026492   -0.083777
      9          1           0       -1.354931    1.942061   -0.155070
     10          6           0       -0.503158   -0.050529    1.530407
     11          1           0       -1.430848    0.427975    1.861326
     12          1           0        0.337285    0.470105    1.994645
     13          1           0       -0.506272   -1.082621    1.893632
     14          6           0        0.907740   -0.643484   -0.447075
     15          8           0        2.046734    0.014370   -0.041124
     16          1           0        0.976978   -1.728654   -0.522097
     17          1           0        2.815615   -0.506592   -0.289492
 ---------------------------------------------------------------------

 SCF Done:  E(UHF) =  -270.888195111     A.U. after    2 cycles

 The electronic state is 2-A.
 Alpha  occ. eigenvalues --  -20.56891 -11.27999 -11.23912 -11.22121 -11.21770
 Alpha  occ. eigenvalues --  -11.21412  -1.48019  -1.10210  -0.93169  -0.92776
 Alpha  occ. eigenvalues --   -0.91509  -0.74071  -0.72031  -0.63602  -0.62496
 Alpha  occ. eigenvalues --   -0.58984  -0.58189  -0.55299  -0.53481  -0.52907
 Alpha  occ. eigenvalues --   -0.51503  -0.48101  -0.47195  -0.46509  -0.32431
 Alpha virt. eigenvalues --    0.03202   0.03944   0.04352   0.04384   0.06231
 Alpha virt. eigenvalues --    0.06592   0.06900   0.06935   0.07571   0.09439
 Alpha virt. eigenvalues --    0.09990   0.12773   0.13200   0.13715   0.14724

  Beta  occ. eigenvalues --  -20.56339 -11.25488 -11.24161 -11.22091 -11.21592
  Beta  occ. eigenvalues --  -11.21335  -1.46266  -1.09328  -0.92963  -0.92355
  Beta  occ. eigenvalues --   -0.86671  -0.73147  -0.70707  -0.63232  -0.59889
  Beta  occ. eigenvalues --   -0.58775  -0.54895  -0.54612  -0.53128  -0.51526
  Beta  occ. eigenvalues --   -0.50019  -0.47245  -0.46397  -0.46059
  Beta virt. eigenvalues --    0.03240   0.03965   0.04244   0.04376   0.06243
  Beta virt. eigenvalues --    0.06614   0.06892   0.06946   0.07588   0.09444
  Beta virt. eigenvalues --    0.09992   0.11701   0.13209   0.13775   0.14065

 Mulliken charges and spin densities:
               1          2
     1  C   -2.094984  -0.283634
     2  C    0.090302   0.019512
     3  H    0.160649  -0.004115
     4  H    0.212177  -0.001607
     5  H    0.183122  -0.002498
     6  C    0.038878   0.028751
     7  H    0.187013  -0.009288
     8  H    0.194475  -0.004003
     9  H    0.182879   0.000062
    10  C    0.095048   0.046887
    11  H    0.185852   0.005201
    12  H    0.186624  -0.006129
    13  H    0.183357  -0.012489
    14  C    1.270246   1.247318
    15  O   -1.359511   0.058777
    16  H   -0.117362  -0.070557
    17  H    0.401236  -0.012189
 Sum of Mulliken charges =   0.00000   1.00000

 Dipole moment (field-independent basis, Debye):
    X=              0.4201    Y=             -1.2719    Z=             -0.2280  Tot=              1.3588
                          Isotropic Fermi Contact Couplings
        Atom                 a.u.       MegaHertz       Gauss      10(-4) cm-1
     1  C(13)             -0.04144     -46.58350     -16.62215     -15.53858
     2  C(13)              0.00600       6.74400       2.40643       2.24955
     3  H(1)              -0.00051      -2.26860      -0.80949      -0.75672
     4  H(1)              -0.00052      -2.30404      -0.82214      -0.76854
     5  H(1)              -0.00091      -4.05011      -1.44518      -1.35097
     6  C(13)              0.01817      20.42982       7.28987       6.81465
     7  H(1)              -0.00060      -2.69593      -0.96197      -0.89926
     8  H(1)              -0.00062      -2.77442      -0.98998      -0.92545

 Normal termination of Gaussian 16 at Tue Apr  8 22:48:19 2025.
