 Gaussian 16, Revision C.01,

 ----------------------------------------------------------------------
 #t hf aug-cc-pvdz symm=none int=(grid=ultrafine) guess=(read,tcheck) s
 table=opt
 ----------------------------------------------------------------------
 -----
 title
 -----
 Symbolic Z-matrix:
 Charge =  0 Multiplicity = 2

 SCF Done:  E(UHF) =  -391.553537011     A.U. after   17 cycles
 Normal termination of Gaussian 16 at Wed Apr  9 00:34:25 2025.
 Gaussian 16:  ES64L-G16RevC.01  3-Jul-2019

 ----------------------------------------------------------------------
 #t hf aug-cc-pvdz iop(5/13=1,5/36=2,99/5=2) pseudo=read geom=check gue
 ss=(read,tcheck) scf=(maxcycle=1)
 ----------------------------------------------------------------------
 -----
 title
 -----
 Structure from the checkpoint file:  "BDE49_nonexpt_418_mol2.chk"
 Charge =  0 Multiplicity = 2

                         Standard orientation:
 ---------------------------------------------------------------------
 Center     Atomic      Atomic             Coordinates (Angstroms)
 Number     Number       Type             X           Y           Z
 ---------------------------------------------------------------------
      1          9           0        2.383684   -0.712347    0.014457
      2          5           0        1.444908   -0.151719   -0.706984
      3          6           0        0.037748    0.326092   -0.098592
      4          8           0       -0.732318   -0.849381   -0.349347
      5          8           0       -0.485557    1.452488   -0.779640
      6          6           0       -2.086691   -0.839847    0.107174
      7          1           0       -2.149194   -0.958465    1.194278
      8          1           0       -2.572447   -1.691060   -0.369193
      9          1           0       -2.593252    0.081909   -0.190935
     10          6           0        0.111607    0.710762    1.376172
     11          1           0        0.423314   -0.144438    1.977983
     12          1           0       -0.859318    1.068145    1.726671
     13          1           0        0.831077    1.520324    1.514760
     14          1           0       -0.390862    1.286395   -1.725388
 ---------------------------------------------------------------------

 SCF Done:  E(UHF) =  -391.939529657     A.U. after    2 cycles

 The electronic state is 2-A.
 Alpha  occ. eigenvalues --  -26.49090 -20.56214 -20.55801 -11.34161 -11.28614
 Alpha  occ. eigenvalues --  -11.23687  -7.68975  -1.62365  -1.50031  -1.43440
 Alpha  occ. eigenvalues --   -1.03071  -0.95406  -0.83441  -0.78783  -0.73693
 Alpha  occ. eigenvalues --   -0.70177  -0.68414  -0.66893  -0.65630  -0.60229
 Alpha  occ. eigenvalues --   -0.59202  -0.57140  -0.55282  -0.54177  -0.47928
 Alpha  occ. eigenvalues --   -0.47324  -0.44069  -0.35882
 Alpha virt. eigenvalues --    0.03527   0.03993   0.04173   0.04540   0.05898
 Alpha virt. eigenvalues --    0.06349   0.06500   0.06955   0.09171   0.09584
 Alpha virt. eigenvalues --    0.10448   0.11548   0.13449   0.13795   0.14604

  Beta  occ. eigenvalues --  -26.48781 -20.56250 -20.55827 -11.33809 -11.28615
  Beta  occ. eigenvalues --  -11.23668  -7.67114  -1.61508  -1.49970  -1.43484
  Beta  occ. eigenvalues --   -1.02543  -0.95253  -0.82402  -0.77744  -0.72540
  Beta  occ. eigenvalues --   -0.69439  -0.66925  -0.66316  -0.65068  -0.60165
  Beta  occ. eigenvalues --   -0.58943  -0.57027  -0.55185  -0.53551  -0.47385
  Beta  occ. eigenvalues --   -0.45847  -0.43885
  Beta virt. eigenvalues --    0.03003   0.03820   0.04092   0.04456   0.06029
  Beta virt. eigenvalues --    0.06384   0.06510   0.06975   0.08340   0.09329
  Beta virt. eigenvalues --    0.09879   0.12029   0.12767   0.13730   0.14660

 Mulliken charges and spin densities:
               1          2
     1  F   -0.467992  -0.041877
     2  B    0.358348   1.010866
     3  C    2.061559   0.054056
     4  O   -1.507486   0.008736
     5  O   -1.349165   0.003180
     6  C    0.204746  -0.001981
     7  H    0.150339   0.001362
     8  H   -0.026787  -0.001068
     9  H    0.173020  -0.000569
    10  C   -0.350828  -0.030482
    11  H    0.198259  -0.001532
    12  H    0.150031   0.001707
    13  H    0.119050  -0.000282
    14  H    0.286907  -0.002116
 Sum of Mulliken charges =  -0.00000   1.00000

 Dipole moment (field-independent basis, Debye):
    X=             -1.0556    Y=              0.1029    Z=              0.3841  Tot=              1.1280
                          Isotropic Fermi Contact Couplings
        Atom                 a.u.       MegaHertz       Gauss      10(-4) cm-1
     1  F(19)              0.06897     290.19299     103.54807      96.79796
     2  B(11)              0.32693     468.94001     167.32946     156.42155
     3  C(13)              0.06499      73.06253      26.07053      24.37104
     4  O(17)             -0.00896       5.43083       1.93786       1.81153
     5  O(17)              0.00085      -0.51579      -0.18405      -0.17205
     6  C(13)             -0.00002      -0.01695      -0.00605      -0.00566
     7  H(1)               0.00004       0.16772       0.05985       0.05594
     8  H(1)               0.00016       0.71318       0.25448       0.23789

 Normal termination of Gaussian 16 at Wed Apr  9 00:34:30 2025.
