 Gaussian 16, Revision C.01,

 ----------------------------------------------------------------------
 #t hf aug-cc-pvdz symm=none int=(grid=ultrafine) guess=(read,tcheck) s
 table=(opt,rrhf)
 ----------------------------------------------------------------------
 -----
 title
 -----
 Symbolic Z-matrix:
 Charge =  0 Multiplicity = 1

 SCF Done:  E(RHF) =  -688.815312751     A.U. after   11 cycles

 1\1\GINC-SE250\Stability\RHF\Aug-CC-pVDZ\H4S1Si1\OHZDE\08-Apr-2025\0\\
 #t hf aug-cc-pvdz symm=none int=(grid=ultrafine) guess=(read,tcheck) s
 table=(opt,rrhf)\\title\\0,1\S,0,1.118894,0.081694,0.\Si,0,-1.043845,-
 0.00515,0.\H,0,1.297018,-1.251926,0.000001\H,0,-1.475284,1.407254,-0.0
 00002\H,0,-1.555104,-0.695162,1.204292\H,0,-1.555104,-0.695165,-1.2042
 9\\Version=ES64L-G16RevC.01\HF=-688.8153128\RMSD=3.857e-09\Dipole=-0.3
 814848,-0.35132,0.0000002\Quadrupole=-0.0815541,1.3981526,-1.3165986,-
 1.2905857,0.0000014,-0.000002\PG=Unknown\\@

 Normal termination of Gaussian 16 at Tue Apr  8 23:56:17 2025.
 Gaussian 16:  ES64L-G16RevC.01  3-Jul-2019

 ----------------------------------------------------------------------
 #t hf aug-cc-pvdz iop(5/13=1,5/36=2,99/5=2) pseudo=read geom=check gue
 ss=(read,tcheck) scf=(maxcycle=1)
 ----------------------------------------------------------------------
 -----
 title
 -----
 Structure from the checkpoint file:  "BDE49_nonexpt_2007_mol1.chk"
 Charge =  0 Multiplicity = 1

                         Standard orientation:
 ---------------------------------------------------------------------
 Center     Atomic      Atomic             Coordinates (Angstroms)
 Number     Number       Type             X           Y           Z
 ---------------------------------------------------------------------
      1         16           0        1.118894    0.081694   -0.000000
      2         14           0       -1.043845   -0.005150   -0.000000
      3          1           0        1.297018   -1.251926    0.000001
      4          1           0       -1.475284    1.407254   -0.000002
      5          1           0       -1.555104   -0.695162    1.204292
      6          1           0       -1.555104   -0.695165   -1.204290
 ---------------------------------------------------------------------

 SCF Done:  E(RHF) =  -688.913866689     A.U. after    2 cycles

 The electronic state is 1-A.
 Alpha  occ. eigenvalues --  -93.95010 -69.56391  -8.23298  -6.23240  -6.21112
 Alpha  occ. eigenvalues --   -6.21006  -6.20776  -3.98661  -3.98567  -3.98537
 Alpha  occ. eigenvalues --   -1.00995  -0.74433  -0.56876  -0.51471  -0.49763
 Alpha  occ. eigenvalues --   -0.45993  -0.38510
 Alpha virt. eigenvalues --    0.03537   0.04279   0.05584   0.05967   0.07771
 Alpha virt. eigenvalues --    0.08963   0.09021   0.11867   0.13174   0.14213
 Alpha virt. eigenvalues --    0.15530   0.15903   0.18475   0.19089   0.19732

 Mulliken charges:
               1
     1  S   -0.838301
     2  Si   1.200651
     3  H    0.302138
     4  H   -0.250616
     5  H   -0.206937
     6  H   -0.206936
 Sum of Mulliken charges =  -0.00000

 Dipole moment (field-independent basis, Debye):
    X=             -0.9797    Y=             -0.9325    Z=              0.0000  Tot=              1.3526

 Test job not archived.
 1\1\GINC-SE250\SP\RHF\Aug-CC-pVDZ\H4S1Si1\OHZDE\08-Apr-2025\0\\#t hf a
 ug-cc-pvdz iop(5/13=1,5/36=2,99/5=2) pseudo=read geom=check guess=(rea
 d,tcheck) scf=(maxcycle=1)\\title\\0,1\S,0,1.118894,0.081694,0.\Si,0,-
 1.043845,-0.00515,0.\H,0,1.297018,-1.251926,0.000001\H,0,-1.475284,1.4
 07254,-0.000002\H,0,-1.555104,-0.695162,1.204292\H,0,-1.555104,-0.6951
 65,-1.20429\\Version=ES64L-G16RevC.01\State=1-A\HF=-688.9138667\RMSD=4
 .255e-03\Dipole=-0.3854491,-0.3668786,0.0000002\Quadrupole=0.0086203,1
 .3970406,-1.4056609,-1.328108,0.0000014,-0.0000021\PG=C01 [X(H4S1Si1)]

 Normal termination of Gaussian 16 at Tue Apr  8 23:56:18 2025.
