 Gaussian 16, Revision C.01,

 ----------------------------------------------------------------------
 #t hf aug-cc-pvdz symm=none int=(grid=ultrafine) guess=(read,tcheck) s
 table=(opt,rrhf)
 ----------------------------------------------------------------------
 -----
 title
 -----
 Symbolic Z-matrix:
 Charge =  0 Multiplicity = 1

 SCF Done:  E(RHF) =  -709.142740987     A.U. after   14 cycles
 Normal termination of Gaussian 16 at Wed Apr  9 00:21:37 2025.
 Gaussian 16:  ES64L-G16RevC.01  3-Jul-2019

 ----------------------------------------------------------------------
 #t hf aug-cc-pvdz iop(5/13=1,5/36=2,99/5=2) pseudo=read geom=check gue
 ss=(read,tcheck) scf=(maxcycle=1)
 ----------------------------------------------------------------------
 -----
 title
 -----
 Structure from the checkpoint file:  "BDE49_nonexpt_2648_mol1.chk"
 Charge =  0 Multiplicity = 1

                         Standard orientation:
 ---------------------------------------------------------------------
 Center     Atomic      Atomic             Coordinates (Angstroms)
 Number     Number       Type             X           Y           Z
 ---------------------------------------------------------------------
      1          9           0       -1.795867    0.543334   -0.000008
      2         16           0       -0.728649   -0.705449    0.000001
      3          6           0        0.760452    0.234069    0.000004
      4          8           0        0.927823    1.397036    0.000011
      5          9           0        1.759544   -0.687059   -0.000006
 ---------------------------------------------------------------------

 SCF Done:  E(RHF) =  -709.483777274     A.U. after    2 cycles

 The electronic state is 1-A.
 Alpha  occ. eigenvalues --  -94.10015 -26.53968 -26.51902 -20.60943 -11.49223
 Alpha  occ. eigenvalues --   -8.37340  -6.35099  -6.34824  -6.34517  -1.67958
 Alpha  occ. eigenvalues --   -1.62506  -1.55242  -1.10193  -0.87923  -0.78617
 Alpha  occ. eigenvalues --   -0.75494  -0.74604  -0.69915  -0.69239  -0.66216
 Alpha  occ. eigenvalues --   -0.60371  -0.58496  -0.50214  -0.44309
 Alpha virt. eigenvalues --    0.04353   0.06061   0.08285   0.09397   0.10388
 Alpha virt. eigenvalues --    0.11131   0.11879   0.13558   0.14156   0.20921
 Alpha virt. eigenvalues --    0.21503   0.23326   0.23458   0.25896   0.28460

 Mulliken charges:
               1
     1  F   -0.650453
     2  S    1.111646
     3  C    0.880342
     4  O   -0.789638
     5  F   -0.551897
 Sum of Mulliken charges =  -0.00000

 Dipole moment (field-independent basis, Debye):
    X=             -0.5032    Y=             -2.0313    Z=              0.0000  Tot=              2.0927

 Test job not archived.
 1\1\GINC-SE073\SP\RHF\Aug-CC-pVDZ\C1F2O1S1\OHZDE\09-Apr-2025\0\\#t hf
 aug-cc-pvdz iop(5/13=1,5/36=2,99/5=2) pseudo=read geom=check guess=(re
 ad,tcheck) scf=(maxcycle=1)\\title\\0,1\F,0,1.795867,0.543334,0.000008
 \S,0,0.728649,-0.705449,-0.000001\C,0,-0.760452,0.234069,-0.000004\O,0
 ,-0.927823,1.397036,-0.000011\F,0,-1.759544,-0.687059,0.000006\\Versio
 n=ES64L-G16RevC.01\State=1-A\HF=-709.4837773\RMSD=5.701e-03\Dipole=0.1
 979822,-0.7991788,-0.0000008\Quadrupole=-0.5152447,-0.7358425,1.251087
 2,-0.2406601,-0.0000025,0.0000251\PG=C01 [X(C1F2O1S1)]\\@

 Normal termination of Gaussian 16 at Wed Apr  9 00:21:39 2025.
