 Gaussian 16, Revision C.01,

 ----------------------------------------------------------------------
 #t hf aug-cc-pvdz symm=none int=(grid=ultrafine) guess=(read,tcheck) s
 table=opt
 ----------------------------------------------------------------------
 -----
 title
 -----
 Symbolic Z-matrix:
 Charge =  0 Multiplicity = 2

 SCF Done:  E(UHF) =  -565.897285976     A.U. after   18 cycles
 Normal termination of Gaussian 16 at Wed Apr  9 00:17:57 2025.
 Gaussian 16:  ES64L-G16RevC.01  3-Jul-2019

 ----------------------------------------------------------------------
 #t hf aug-cc-pvdz iop(5/13=1,5/36=2,99/5=2) pseudo=read geom=check gue
 ss=(read,tcheck) scf=(maxcycle=1)
 ----------------------------------------------------------------------
 -----
 title
 -----
 Structure from the checkpoint file:  "BDE49_nonexpt_2564_mol2.chk"
 Charge =  0 Multiplicity = 2

                         Standard orientation:
 ---------------------------------------------------------------------
 Center     Atomic      Atomic             Coordinates (Angstroms)
 Number     Number       Type             X           Y           Z
 ---------------------------------------------------------------------
      1         16           0       -1.304943   -0.167685   -0.000023
      2          6           0        0.431249    0.135823    0.000068
      3          8           0        0.725523    1.322063   -0.000020
      4          7           0        1.312066   -0.884288    0.000017
      5          1           0        1.003726   -1.841904    0.000013
      6          1           0        2.299216   -0.676567   -0.000010
 ---------------------------------------------------------------------

 SCF Done:  E(UHF) =  -566.115859084     A.U. after    2 cycles

 The electronic state is 2-A.
 Alpha  occ. eigenvalues --  -93.99946 -20.53371 -15.55704 -11.40639  -8.28150
 Alpha  occ. eigenvalues --   -6.27312  -6.25525  -6.25208  -1.48530  -1.25637
 Alpha  occ. eigenvalues --   -1.07073  -0.86070  -0.78532  -0.69179  -0.62653
 Alpha  occ. eigenvalues --   -0.60067  -0.49713  -0.46891  -0.43147  -0.41421
 Alpha virt. eigenvalues --    0.02385   0.05286   0.07257   0.11231   0.11317
 Alpha virt. eigenvalues --    0.11956   0.12534   0.12943   0.14210   0.15889
 Alpha virt. eigenvalues --    0.16359   0.17825   0.18430   0.20976   0.23510

  Beta  occ. eigenvalues --  -93.99033 -20.53043 -15.55717 -11.40756  -8.27100
  Beta  occ. eigenvalues --   -6.25038  -6.24646  -6.23242  -1.47771  -1.25497
  Beta  occ. eigenvalues --   -1.00065  -0.84975  -0.77835  -0.67147  -0.62574
  Beta  occ. eigenvalues --   -0.58667  -0.46596  -0.42960  -0.39240
  Beta virt. eigenvalues --   -0.01622   0.02648   0.05433   0.07479   0.11261
  Beta virt. eigenvalues --    0.11593   0.12394   0.12946   0.13458   0.14667
  Beta virt. eigenvalues --    0.15967   0.16623   0.17896   0.19078   0.21616

 Mulliken charges and spin densities:
               1          2
     1  S    0.381615   1.065494
     2  C   -0.028562  -0.099265
     3  O   -0.997255   0.046141
     4  N    0.518808  -0.015117
     5  H    0.051064   0.005961
     6  H    0.074329  -0.003213
 Sum of Mulliken charges =  -0.00000   1.00000

 Dipole moment (field-independent basis, Debye):
    X=              0.9386    Y=             -3.7502    Z=              0.0001  Tot=              3.8658
                          Isotropic Fermi Contact Couplings
        Atom                 a.u.       MegaHertz       Gauss      10(-4) cm-1
     1  S(33)              0.20694      71.07666      25.36192      23.70862
     2  C(13)             -0.02156     -24.23762      -8.64859      -8.08480
     3  O(17)              0.03655     -22.15600      -7.90581      -7.39045
     4  N(14)             -0.00573      -1.85167      -0.66072      -0.61765
     5  H(1)               0.00033       1.49324       0.53282       0.49809
     6  H(1)               0.00081       3.60187       1.28524       1.20145
 --------------------------------------------------------
       Center         ----  Spin Dipole Couplings  ----

 Normal termination of Gaussian 16 at Wed Apr  9 00:18:00 2025.
