 Gaussian 16, Revision C.01,

 ----------------------------------------------------------------------
 #t hf aug-cc-pvdz symm=none int=(grid=ultrafine) guess=(read,tcheck) s
 table=(opt,rrhf)
 ----------------------------------------------------------------------
 -----
 title
 -----
 Symbolic Z-matrix:
 Charge =  0 Multiplicity = 1

 SCF Done:  E(RHF) =  -251.832488477     A.U. after   13 cycles
 Normal termination of Gaussian 16 at Tue Apr  8 23:00:36 2025.
 Gaussian 16:  ES64L-G16RevC.01  3-Jul-2019

 ----------------------------------------------------------------------
 #t hf aug-cc-pvdz iop(5/13=1,5/36=2,99/5=2) pseudo=read geom=check gue
 ss=(read,tcheck) scf=(maxcycle=1)
 ----------------------------------------------------------------------
 -----
 title
 -----
 Structure from the checkpoint file:  "BDE49_expt_218_mol1.chk"
 Charge =  0 Multiplicity = 1

                         Standard orientation:
 ---------------------------------------------------------------------
 Center     Atomic      Atomic             Coordinates (Angstroms)
 Number     Number       Type             X           Y           Z
 ---------------------------------------------------------------------
      1          6           0       -1.368158   -0.045654   -0.000008
      2          6           0        0.125210   -0.143317   -0.000046
      3          1           0       -1.696652    0.511891    0.879943
      4          1           0       -1.804767   -1.041784   -0.000099
      5          1           0       -1.696685    0.512073   -0.879831
      6          8           0        0.816162   -1.101876   -0.000071
      7          9           0        0.680722    1.107406    0.000098
 ---------------------------------------------------------------------

 SCF Done:  E(RHF) =  -252.075747627     A.U. after    2 cycles

 The electronic state is 1-A.
 Alpha  occ. eigenvalues --  -26.49196 -20.57439 -11.43904 -11.27942  -1.63249
 Alpha  occ. eigenvalues --   -1.51253  -1.05474  -0.83726  -0.72869  -0.72101
 Alpha  occ. eigenvalues --   -0.70652  -0.61865  -0.60813  -0.58658  -0.53041
 Alpha  occ. eigenvalues --   -0.48336
 Alpha virt. eigenvalues --    0.03076   0.04944   0.05321   0.07955   0.11513
 Alpha virt. eigenvalues --    0.11629   0.12020   0.14419   0.14570   0.14914
 Alpha virt. eigenvalues --    0.15305   0.20111   0.23765   0.24652   0.26673

 Mulliken charges:
               1
     1  C   -0.465489
     2  C    1.547421
     3  H    0.238602
     4  H    0.167767
     5  H    0.238596
     6  O   -1.017201
     7  F   -0.709696
 Sum of Mulliken charges =  -0.00000

 Dipole moment (field-independent basis, Debye):
    X=             -3.0779    Y=              0.7423    Z=             -0.0000  Tot=              3.1662

 Test job not archived.
 1\1\GINC-SE435\SP\RHF\Aug-CC-pVDZ\C2H3F1O1\OHZDE\08-Apr-2025\0\\#t hf
 aug-cc-pvdz iop(5/13=1,5/36=2,99/5=2) pseudo=read geom=check guess=(re
 ad,tcheck) scf=(maxcycle=1)\\title\\0,1\C,0,-1.368158,-0.045654,-0.000
 008\C,0,0.12521,-0.143317,-0.000046\H,0,-1.696652,0.511891,0.879943\H,
 0,-1.804767,-1.041784,-0.000099\H,0,-1.696685,0.512073,-0.879831\O,0,0
 .816162,-1.101876,-0.000071\F,0,0.680722,1.107406,0.000098\\Version=ES
 64L-G16RevC.01\State=1-A\HF=-252.0757476\RMSD=8.492e-03\Dipole=-1.2109
 561,0.2920594,-0.0000147\Quadrupole=0.6641235,-2.0256394,1.3615159,0.6

 Normal termination of Gaussian 16 at Tue Apr  8 23:00:38 2025.
