 Gaussian 16, Revision C.01,

 ----------------------------------------------------------------------
 #t hf aug-cc-pvdz symm=none int=(grid=ultrafine) guess=(read,tcheck) s
 table=(opt,rrhf)
 ----------------------------------------------------------------------
 -----
 title
 -----
 Symbolic Z-matrix:
 Charge =  0 Multiplicity = 1

 SCF Done:  E(RHF) =  -549.306048172     A.U. after   15 cycles
 Normal termination of Gaussian 16 at Tue Apr  8 23:36:12 2025.
 Gaussian 16:  ES64L-G16RevC.01  3-Jul-2019

 ----------------------------------------------------------------------
 #t hf aug-cc-pvdz iop(5/13=1,5/36=2,99/5=2) pseudo=read geom=check gue
 ss=(read,tcheck) scf=(maxcycle=1)
 ----------------------------------------------------------------------
 -----
 title
 -----
 Structure from the checkpoint file:  "BDE49_nonexpt_1521_mol1.chk"
 Charge =  0 Multiplicity = 1

                         Standard orientation:
 ---------------------------------------------------------------------
 Center     Atomic      Atomic             Coordinates (Angstroms)
 Number     Number       Type             X           Y           Z
 ---------------------------------------------------------------------
      1          6           0       -2.107694   -0.485028    0.016228
      2          6           0       -0.786677    0.253451   -0.012084
      3          1           0       -2.376389   -0.754057   -1.010867
      4          1           0       -2.886479    0.160343    0.424640
      5          1           0       -2.041669   -1.412280    0.591285
      6          7           0        1.968529    0.415697    0.122833
      7          8           0       -0.710127    1.461616   -0.022468
      8         15           0        0.788493   -0.787267   -0.111899
      9          1           0        0.607672   -1.263802    1.216209
     10          1           0        1.590741    1.303294    0.445948
     11          1           0        2.546262    0.562162   -0.693686
 ---------------------------------------------------------------------

 SCF Done:  E(RHF) =  -549.565259008     A.U. after    2 cycles

 The electronic state is 1-A.
 Alpha  occ. eigenvalues --  -84.30355 -20.55153 -15.50011 -11.34911 -11.25560
 Alpha  occ. eigenvalues --   -6.77200  -4.30011  -4.29479  -4.28930  -1.48394
 Alpha  occ. eigenvalues --   -1.17415  -1.03014  -0.88016  -0.74426  -0.70874
 Alpha  occ. eigenvalues --   -0.65364  -0.63816  -0.61717  -0.56854  -0.55871
 Alpha  occ. eigenvalues --   -0.51431  -0.48522  -0.39942  -0.34839
 Alpha virt. eigenvalues --    0.03524   0.04175   0.05043   0.05590   0.06875
 Alpha virt. eigenvalues --    0.07341   0.08111   0.09713   0.10446   0.11873
 Alpha virt. eigenvalues --    0.12219   0.14624   0.14791   0.15918   0.16505

 Mulliken charges:
               1
     1  C   -0.455277
     2  C    0.527542
     3  H    0.262185
     4  H    0.155999
     5  H    0.188156
     6  N   -0.151297
     7  O   -1.236252
     8  P    0.202611
     9  H    0.407295
    10  H    0.000671
    11  H    0.098367
 Sum of Mulliken charges =   0.00000

 Dipole moment (field-independent basis, Debye):
    X=             -0.7794    Y=             -1.6072    Z=             -0.4216  Tot=              1.8353

 Test job not archived.
 1\1\GINC-SE333\SP\RHF\Aug-CC-pVDZ\C2H6N1O1P1\OHZDE\08-Apr-2025\0\\#t h
 f aug-cc-pvdz iop(5/13=1,5/36=2,99/5=2) pseudo=read geom=check guess=(
 read,tcheck) scf=(maxcycle=1)\\title\\0,1\C,0,-2.107694,-0.485028,0.01
 6228\C,0,-0.786677,0.253451,-0.012084\H,0,-2.376389,-0.754057,-1.01086
 7\H,0,-2.886479,0.160344,0.42464\H,0,-2.041669,-1.41228,0.591285\N,0,1
 .968529,0.415697,0.122833\O,0,-0.710127,1.461616,-0.022468\P,0,0.78849
 3,-0.787267,-0.111899\H,0,0.607672,-1.263802,1.216209\H,0,1.590741,1.3
 03294,0.445948\H,0,2.546262,0.562162,-0.693686\\Version=ES64L-G16RevC.

 Normal termination of Gaussian 16 at Tue Apr  8 23:36:15 2025.
