 Gaussian 16, Revision C.01,

 ----------------------------------------------------------------------
 #t hf aug-cc-pvdz symm=none int=(grid=ultrafine) guess=(read,tcheck) s
 table=(opt,rrhf)
 ----------------------------------------------------------------------
 -----
 title
 -----
 Symbolic Z-matrix:
 Charge =  0 Multiplicity = 1

 SCF Done:  E(RHF) =  -1749.25056041     A.U. after   17 cycles
 Normal termination of Gaussian 16 at Wed Apr  9 00:29:28 2025.
 Gaussian 16:  ES64L-G16RevC.01  3-Jul-2019

 ----------------------------------------------------------------------
 #t hf aug-cc-pvdz iop(5/13=1,5/36=2,99/5=2) pseudo=read geom=check gue
 ss=(read,tcheck) scf=(maxcycle=1)
 ----------------------------------------------------------------------
 -----
 title
 -----
 Structure from the checkpoint file:  "BDE49_nonexpt_2723_mol1.chk"
 Charge =  0 Multiplicity = 1

                         Standard orientation:
 ---------------------------------------------------------------------
 Center     Atomic      Atomic             Coordinates (Angstroms)
 Number     Number       Type             X           Y           Z
 ---------------------------------------------------------------------
      1          6           0        0.967785    0.199217   -0.394285
      2          8           0        0.383001    1.140516   -0.852450
      3         16           0        0.060964   -1.305161    0.195223
      4         16           0       -1.853587   -0.878421   -0.455564
      5          6           0       -2.357460    0.351069    0.793439
      6          8           0       -1.679137    0.702030    1.713094
      7          6           0        2.443257    0.140143   -0.196694
      8          6           0        3.158096    1.336904   -0.342756
      9          6           0        4.536320    1.350391   -0.174181
     10          6           0        5.213596    0.170393    0.134513
     11          6           0        4.509225   -1.024096    0.272685
     12          6           0        3.128142   -1.041936    0.107906
     13          1           0        2.593102   -1.979328    0.201355
     14          1           0        2.613891    2.240690   -0.585721
     15          1           0        5.084316    2.279047   -0.283401
     16          1           0        6.289815    0.181446    0.264598
     17          1           0        5.035440   -1.942554    0.504352
     18          6           0       -3.716393    0.999645    0.552227
     19         17           0       -4.830053    0.083669   -0.526041
     20          1           0       -3.543294    1.972068    0.090601
     21          1           0       -4.206726    1.132827    1.514092
 ---------------------------------------------------------------------

 SCF Done:  E(RHF) =  -1749.93573640     A.U. after    2 cycles

 The electronic state is 1-A.
 Alpha  occ. eigenvalues -- -105.58141 -94.00246 -93.99592 -20.57118 -20.56175
 Alpha  occ. eigenvalues --  -11.39776 -11.39020 -11.33791 -11.27502 -11.27407
 Alpha  occ. eigenvalues --  -11.27124 -11.26875 -11.26354 -11.26210 -10.62936
 Alpha  occ. eigenvalues --   -8.28214  -8.27609  -7.79883  -7.79503  -7.79478
 Alpha  occ. eigenvalues --   -6.25987  -6.25776  -6.25556  -6.25396  -6.25182
 Alpha  occ. eigenvalues --   -6.24968  -1.51499  -1.50477  -1.18329  -1.14490
 Alpha  occ. eigenvalues --   -1.11668  -1.06362  -1.04229  -0.99137  -0.95167
 Alpha  occ. eigenvalues --   -0.88808  -0.85837  -0.79554  -0.76008  -0.72937
 Alpha  occ. eigenvalues --   -0.69002  -0.68008  -0.67632  -0.67230  -0.65658
 Alpha  occ. eigenvalues --   -0.64279  -0.62441  -0.61863  -0.58964  -0.57188
 Alpha  occ. eigenvalues --   -0.55555  -0.54820  -0.52815  -0.52279  -0.50226
 Alpha  occ. eigenvalues --   -0.48562  -0.46679  -0.43751  -0.43017  -0.39965
 Alpha  occ. eigenvalues --   -0.38793  -0.36844  -0.36725
 Alpha virt. eigenvalues --    0.02833   0.03441   0.03976   0.04407   0.04769
 Alpha virt. eigenvalues --    0.05222   0.06218   0.06905   0.07390   0.08430
 Alpha virt. eigenvalues --    0.08772   0.09254   0.09948   0.10158   0.10738

 Mulliken charges:
               1
     1  C   -0.156104
     2  O   -1.356119
     3  S   -0.078586
     4  S    0.207979
     5  C    1.052130
     6  O   -1.206275
     7  C    2.372683
     8  C   -0.393645
     9  C    0.514654
    10  C   -0.078308
    11  C    0.163652
    12  C    0.036270
    13  H   -0.169959
    14  H   -0.331614
    15  H   -0.210874
    16  H   -0.207811
    17  H   -0.239899
    18  C   -0.695289
    19  Cl   0.020270
    20  H    0.402608
    21  H    0.354239
 Sum of Mulliken charges =   0.00000

 Dipole moment (field-independent basis, Debye):
    X=              2.6718    Y=              0.3652    Z=              0.4496  Tot=              2.7339

 Test job not archived.
 1\1\GINC-SE227\SP\RHF\Aug-CC-pVDZ\C9H7Cl1O2S2\OHZDE\09-Apr-2025\0\\#t
 hf aug-cc-pvdz iop(5/13=1,5/36=2,99/5=2) pseudo=read geom=check guess=
 (read,tcheck) scf=(maxcycle=1)\\title\\0,1\C,0,0.967785,0.199217,-0.39
 4285\O,0,0.383001,1.140516,-0.85245\S,0,0.060964,-1.305161,0.195223\S,
 0,-1.853587,-0.878421,-0.455564\C,0,-2.35746,0.351069,0.793439\O,0,-1.
 679137,0.70203,1.713094\C,0,2.443257,0.140143,-0.196694\C,0,3.158096,1
 .336904,-0.342756\C,0,4.53632,1.350391,-0.174181\C,0,5.213596,0.170393
 ,0.134513\C,0,4.509225,-1.024096,0.272685\C,0,3.128142,-1.041936,0.107

 Normal termination of Gaussian 16 at Wed Apr  9 00:29:47 2025.
