 Gaussian 16, Revision C.01,

 ----------------------------------------------------------------------
 #t hf aug-cc-pvdz symm=none int=(grid=ultrafine) guess=(read,tcheck) s
 table=(opt,rrhf)
 ----------------------------------------------------------------------
 -----
 title
 -----
 Symbolic Z-matrix:
 Charge =  0 Multiplicity = 1

 SCF Done:  E(RHF) =  -492.237607680     A.U. after   18 cycles
 Normal termination of Gaussian 16 at Wed Apr  9 00:53:01 2025.
 Gaussian 16:  ES64L-G16RevC.01  3-Jul-2019

 ----------------------------------------------------------------------
 #t hf aug-cc-pvdz iop(5/13=1,5/36=2,99/5=2) pseudo=read geom=check gue
 ss=(read,tcheck) scf=(maxcycle=1)
 ----------------------------------------------------------------------
 -----
 title
 -----
 Structure from the checkpoint file:  "BDE49_nonexpt_963_mol1.chk"
 Charge =  0 Multiplicity = 1

                         Standard orientation:
 ---------------------------------------------------------------------
 Center     Atomic      Atomic             Coordinates (Angstroms)
 Number     Number       Type             X           Y           Z
 ---------------------------------------------------------------------
      1          9           0        2.424829   -1.232998    0.000000
      2          7           0        1.499268   -0.246660    0.000000
      3          7           0        1.896617    1.028136    0.000001
      4          7           0        0.824503    1.759877   -0.000001
      5          6           0        0.150263   -0.414162    0.000000
      6          6           0       -0.276901    0.928237    0.000000
      7          6           0       -1.649080    1.222013    0.000000
      8          1           0       -1.987643    2.250465    0.000000
      9          6           0       -2.528052    0.156632    0.000000
     10          1           0       -3.595187    0.343161    0.000000
     11          6           0       -2.071579   -1.184695    0.000000
     12          1           0       -2.802240   -1.984960    0.000000
     13          6           0       -0.726201   -1.503887    0.000000
     14          1           0       -0.371795   -2.525979    0.000000
 ---------------------------------------------------------------------

 SCF Done:  E(RHF) =  -492.718468522     A.U. after    2 cycles

 The electronic state is 1-A.
 Alpha  occ. eigenvalues --  -26.55322 -15.69028 -15.62436 -15.56529 -11.31923
 Alpha  occ. eigenvalues --  -11.28813 -11.27870 -11.27710 -11.27563 -11.26532
 Alpha  occ. eigenvalues --   -1.68180  -1.45564  -1.22426  -1.19146  -1.09681
 Alpha  occ. eigenvalues --   -1.05312  -0.93976  -0.90863  -0.88524  -0.79374
 Alpha  occ. eigenvalues --   -0.78621  -0.77815  -0.69449  -0.68819  -0.67241
 Alpha  occ. eigenvalues --   -0.66374  -0.64886  -0.60945  -0.57111  -0.55331
 Alpha  occ. eigenvalues --   -0.52932  -0.50737  -0.49592  -0.37248  -0.35933
 Alpha virt. eigenvalues --    0.02968   0.03357   0.03604   0.04024   0.06165
 Alpha virt. eigenvalues --    0.08051   0.10039   0.10730   0.11526   0.12122
 Alpha virt. eigenvalues --    0.12259   0.12793   0.12871   0.13371   0.13536

 Mulliken charges:
               1
     1  F   -0.829445
     2  N    1.586233
     3  N   -0.329036
     4  N    0.447318
     5  C   -0.854710
     6  C   -1.431386
     7  C    1.110407
     8  H   -0.206374
     9  C    0.222781
    10  H   -0.214829
    11  C    0.363570
    12  H   -0.229065
    13  C    0.592655
    14  H   -0.228119
 Sum of Mulliken charges =  -0.00000

 Dipole moment (field-independent basis, Debye):
    X=             -3.8479    Y=             -2.9221    Z=              0.0000  Tot=              4.8317

 Test job not archived.
 1\1\GINC-SE048\SP\RHF\Aug-CC-pVDZ\C6H4F1N3\OHZDE\09-Apr-2025\0\\#t hf
 aug-cc-pvdz iop(5/13=1,5/36=2,99/5=2) pseudo=read geom=check guess=(re
 ad,tcheck) scf=(maxcycle=1)\\title\\0,1\F,0,2.424829,-1.232998,0.\N,0,
 1.499268,-0.24666,0.\N,0,1.896617,1.028136,0.000001\N,0,0.824503,1.759
 877,-0.000001\C,0,0.150263,-0.414162,0.\C,0,-0.276901,0.928237,0.\C,0,
 -1.64908,1.222013,0.\H,0,-1.987643,2.250465,0.\C,0,-2.528052,0.156632,
 0.\H,0,-3.595187,0.343162,0.\C,0,-2.071579,-1.184695,0.\H,0,-2.80224,-
 1.98496,0.\C,0,-0.726201,-1.503887,0.\H,0,-0.371795,-2.525979,0.\\Vers

 Normal termination of Gaussian 16 at Wed Apr  9 00:53:09 2025.
