 Gaussian 16, Revision C.01,

 ----------------------------------------------------------------------
 #t hf aug-cc-pvdz symm=none int=(grid=ultrafine) guess=(read,tcheck) s
 table=(opt,rrhf)
 ----------------------------------------------------------------------
 -----
 title
 -----
 Symbolic Z-matrix:
 Charge =  0 Multiplicity = 1

 SCF Done:  E(RHF) =  -913.342277558     A.U. after   13 cycles
 Normal termination of Gaussian 16 at Tue Apr  8 22:46:43 2025.
 Gaussian 16:  ES64L-G16RevC.01  3-Jul-2019

 ----------------------------------------------------------------------
 #t hf aug-cc-pvdz iop(5/13=1,5/36=2,99/5=2) pseudo=read geom=check gue
 ss=(read,tcheck) scf=(maxcycle=1)
 ----------------------------------------------------------------------
 -----
 title
 -----
 Structure from the checkpoint file:  "BDE49_expt_1592_mol1.chk"
 Charge =  0 Multiplicity = 1

                         Standard orientation:
 ---------------------------------------------------------------------
 Center     Atomic      Atomic             Coordinates (Angstroms)
 Number     Number       Type             X           Y           Z
 ---------------------------------------------------------------------
      1          6           0       -1.585530    0.085453    0.723543
      2         16           0       -0.299904    1.057046   -0.172086
      3         16           0        1.152451   -0.349590   -0.658478
      4          6           0        2.238936   -0.354856    0.815192
      5          1           0        3.064648   -1.028945    0.573996
      6          1           0        1.713708   -0.731287    1.692371
      7          1           0        2.628799    0.644300    1.003605
      8          6           0       -2.335383   -0.920726   -0.139656
      9          1           0       -2.257135    0.863455    1.101461
     10          1           0       -1.119050   -0.389497    1.588608
     11          1           0       -2.834934   -0.425378   -0.975057
     12          1           0       -3.092406   -1.441447    0.455588
     13          1           0       -1.652521   -1.669716   -0.546017
 ---------------------------------------------------------------------

 SCF Done:  E(RHF) =  -913.598383729     A.U. after    2 cycles

 The electronic state is 1-A.
 Alpha  occ. eigenvalues --  -93.96710 -93.96492 -11.27470 -11.27020 -11.23417
 Alpha  occ. eigenvalues --   -8.24631  -8.24415  -6.22438  -6.22238  -6.22214
 Alpha  occ. eigenvalues --   -6.22010  -6.22006  -6.21795  -1.11310  -1.04839
 Alpha  occ. eigenvalues --   -0.96071  -0.87276  -0.79169  -0.64106  -0.61116
 Alpha  occ. eigenvalues --   -0.59875  -0.58955  -0.55837  -0.52329  -0.51716
 Alpha  occ. eigenvalues --   -0.47994  -0.44179  -0.36237  -0.35653
 Alpha virt. eigenvalues --    0.03455   0.03873   0.04405   0.04895   0.06209
 Alpha virt. eigenvalues --    0.06496   0.07275   0.08767   0.09340   0.10231
 Alpha virt. eigenvalues --    0.12323   0.13472   0.14403   0.14519   0.14758

 Mulliken charges:
               1
     1  C   -0.713358
     2  S    0.169504
     3  S    0.102067
     4  C   -0.710825
     5  H    0.185307
     6  H    0.182886
     7  H    0.220249
     8  C   -0.385390
     9  H    0.253415
    10  H    0.178701
    11  H    0.179181
    12  H    0.139612
    13  H    0.198652
 Sum of Mulliken charges =  -0.00000

 Dipole moment (field-independent basis, Debye):
    X=             -0.3050    Y=             -0.9989    Z=              2.0971  Tot=              2.3428

 Test job not archived.
 1\1\GINC-SE252\SP\RHF\Aug-CC-pVDZ\C3H8S2\OHZDE\08-Apr-2025\0\\#t hf au
 g-cc-pvdz iop(5/13=1,5/36=2,99/5=2) pseudo=read geom=check guess=(read
 ,tcheck) scf=(maxcycle=1)\\title\\0,1\C,0,-1.58553,0.085453,0.723543\S
 ,0,-0.299904,1.057046,-0.172086\S,0,1.152451,-0.34959,-0.658478\C,0,2.
 238936,-0.354856,0.815192\H,0,3.064648,-1.028945,0.573996\H,0,1.713708
 ,-0.731287,1.692371\H,0,2.628799,0.6443,1.003605\C,0,-2.335383,-0.9207
 26,-0.139656\H,0,-2.257135,0.863455,1.101461\H,0,-1.11905,-0.389497,1.
 588608\H,0,-2.834934,-0.425378,-0.975057\H,0,-3.092406,-1.441447,0.455

 Normal termination of Gaussian 16 at Tue Apr  8 22:46:47 2025.
