 Gaussian 16, Revision C.01,

 ----------------------------------------------------------------------
 #t hf aug-cc-pvdz symm=none int=(grid=ultrafine) guess=(read,tcheck) s
 table=(opt,rrhf)
 ----------------------------------------------------------------------
 -----
 title
 -----
 Symbolic Z-matrix:
 Charge =  0 Multiplicity = 1

 SCF Done:  E(RHF) =  -268.955835154     A.U. after   14 cycles
 Normal termination of Gaussian 16 at Wed Apr  9 00:35:50 2025.
 Gaussian 16:  ES64L-G16RevC.01  3-Jul-2019

 ----------------------------------------------------------------------
 #t hf aug-cc-pvdz iop(5/13=1,5/36=2,99/5=2) pseudo=read geom=check gue
 ss=(read,tcheck) scf=(maxcycle=1)
 ----------------------------------------------------------------------
 -----
 title
 -----
 Structure from the checkpoint file:  "BDE49_nonexpt_465_mol1.chk"
 Charge =  0 Multiplicity = 1

                         Standard orientation:
 ---------------------------------------------------------------------
 Center     Atomic      Atomic             Coordinates (Angstroms)
 Number     Number       Type             X           Y           Z
 ---------------------------------------------------------------------
      1          1           0        1.662334    0.000073   -1.641172
      2          1           0        3.065345   -0.000047   -0.122177
      3          5           0        1.933119    0.000023   -0.485814
      4          6           0        0.826522   -0.000038    0.618510
      5          7           0       -0.568374   -0.000000    0.067719
      6          1           0        0.924321    0.886884    1.251700
      7          1           0        0.924311   -0.887025    1.251610
      8          8           0       -1.076381    1.087652   -0.155973
      9          8           0       -1.076422   -1.087623   -0.156025
 ---------------------------------------------------------------------

 SCF Done:  E(RHF) =  -269.218759574     A.U. after    2 cycles

 The electronic state is 1-A.
 Alpha  occ. eigenvalues --  -20.59267 -20.59255 -15.78836 -11.30448  -7.64227
 Alpha  occ. eigenvalues --   -1.67107  -1.51026  -1.12421  -0.90204  -0.79270
 Alpha  occ. eigenvalues --   -0.76774  -0.75541  -0.69360  -0.63100  -0.55098
 Alpha  occ. eigenvalues --   -0.53071  -0.48754  -0.48693  -0.45321
 Alpha virt. eigenvalues --    0.02512   0.02800   0.03900   0.04713   0.05409
 Alpha virt. eigenvalues --    0.06567   0.08773   0.09274   0.09864   0.11564
 Alpha virt. eigenvalues --    0.13308   0.13959   0.14317   0.16494   0.17488

 Mulliken charges:
               1
     1  H    0.293853
     2  H    0.196056
     3  B   -0.187229
     4  C   -0.366839
     5  N    2.493055
     6  H    0.114700
     7  H    0.114693
     8  O   -1.329147
     9  O   -1.329141
 Sum of Mulliken charges =   0.00000

 Dipole moment (field-independent basis, Debye):
    X=              3.6463    Y=             -0.0001    Z=              1.5312  Tot=              3.9547

 Test job not archived.
 1\1\GINC-SE049\SP\RHF\Aug-CC-pVDZ\C1H4B1N1O2\OHZDE\09-Apr-2025\0\\#t h
 f aug-cc-pvdz iop(5/13=1,5/36=2,99/5=2) pseudo=read geom=check guess=(
 read,tcheck) scf=(maxcycle=1)\\title\\0,1\H,0,1.662334,0.000073,-1.641
 172\H,0,3.065345,-0.000047,-0.122177\B,0,1.933119,0.000023,-0.485814\C
 ,0,0.826522,-0.000038,0.61851\N,0,-0.568374,0.,0.067719\H,0,0.924321,0
 .886884,1.2517\H,0,0.924311,-0.887025,1.25161\O,0,-1.076381,1.087652,-
 0.155973\O,0,-1.076422,-1.087623,-0.156025\\Version=ES64L-G16RevC.01\S
 tate=1-A\HF=-269.2187596\RMSD=1.626e-02\Dipole=1.4345612,-0.0000205,0.

 Normal termination of Gaussian 16 at Wed Apr  9 00:35:53 2025.
