 Gaussian 16, Revision C.01,

 ----------------------------------------------------------------------
 #t hf aug-cc-pvdz symm=none int=(grid=ultrafine) guess=(read,tcheck) s
 table=(opt,rrhf)
 ----------------------------------------------------------------------
 -----
 title
 -----
 Symbolic Z-matrix:
 Charge =  0 Multiplicity = 1

 SCF Done:  E(RHF) =  -711.959973411     A.U. after   15 cycles
 Normal termination of Gaussian 16 at Tue Apr  8 23:53:41 2025.
 Gaussian 16:  ES64L-G16RevC.01  3-Jul-2019

 ----------------------------------------------------------------------
 #t hf aug-cc-pvdz iop(5/13=1,5/36=2,99/5=2) pseudo=read geom=check gue
 ss=(read,tcheck) scf=(maxcycle=1)
 ----------------------------------------------------------------------
 -----
 title
 -----
 Structure from the checkpoint file:  "BDE49_nonexpt_1871_mol1.chk"
 Charge =  0 Multiplicity = 1

                         Standard orientation:
 ---------------------------------------------------------------------
 Center     Atomic      Atomic             Coordinates (Angstroms)
 Number     Number       Type             X           Y           Z
 ---------------------------------------------------------------------
      1         14           0       -1.187411    1.567520    0.367135
      2          6           0        0.520975    2.073595   -0.279021
      3          6           0        1.754707   -0.097507    0.322515
      4          8           0        1.122063   -0.131526    1.359537
      5          6           0        1.503005    0.977985   -0.718480
      6          1           0        1.136856    0.455465   -1.610287
      7          1           0        2.468517    1.412188   -1.006392
      8          6           0       -1.965328    0.088112   -0.564083
      9          1           0       -2.107113    2.700495    0.075202
     10          1           0       -1.240793    1.332620    1.823845
     11          6           0       -1.253384   -1.236055   -0.440505
     12          1           0       -2.991859    0.017986   -0.189505
     13          1           0       -1.999354    0.363590   -1.622009
     14          8           0       -0.418675   -1.583943   -1.255186
     15          6           0        2.772193   -1.161933   -0.019885
     16          1           0        3.039271   -1.721139    0.876131
     17          1           0        3.665269   -0.742237   -0.488997
     18          1           0        2.304589   -1.843876   -0.738155
     19          6           0       -1.595245   -2.098687    0.756966
     20          1           0       -2.673071   -2.274379    0.818525
     21          1           0       -1.290920   -1.582018    1.672324
     22          1           0       -1.065735   -3.047762    0.687571
     23          1           0        0.977338    2.686165    0.507144
     24          1           0        0.352118    2.748322   -1.125133
 ---------------------------------------------------------------------

 SCF Done:  E(RHF) =  -712.431010551     A.U. after    2 cycles

 The electronic state is 1-A.
 Alpha  occ. eigenvalues --  -69.52762 -20.53430 -20.52695 -11.34118 -11.33991
 Alpha  occ. eigenvalues --  -11.24773 -11.23799 -11.23644 -11.23138 -11.22784
 Alpha  occ. eigenvalues --   -6.19675  -3.95058  -3.95029  -3.95002  -1.47069
 Alpha  occ. eigenvalues --   -1.46260  -1.06791  -1.04250  -1.00198  -0.96210
 Alpha  occ. eigenvalues --   -0.88550  -0.75547  -0.74010  -0.69984  -0.66154
 Alpha  occ. eigenvalues --   -0.65365  -0.64273  -0.63699  -0.61841  -0.60019
 Alpha  occ. eigenvalues --   -0.58190  -0.56959  -0.56112  -0.54149  -0.53036
 Alpha  occ. eigenvalues --   -0.52554  -0.51258  -0.48920  -0.47040  -0.45429
 Alpha  occ. eigenvalues --   -0.43373  -0.40823  -0.40168
 Alpha virt. eigenvalues --    0.03298   0.03378   0.03819   0.04104   0.05060
 Alpha virt. eigenvalues --    0.05208   0.06134   0.06458   0.06724   0.07683
 Alpha virt. eigenvalues --    0.07956   0.08922   0.09832   0.10175   0.10403

 Mulliken charges:
               1
     1  Si   1.289527
     2  C   -0.568225
     3  C    1.196257
     4  O   -1.489207
     5  C   -0.413463
     6  H    0.316799
     7  H    0.186490
     8  C   -0.467015
     9  H   -0.212136
    10  H   -0.053927
    11  C    1.325845
    12  H   -0.016708
    13  H    0.051356
    14  O   -1.548401
    15  C   -0.495875
    16  H    0.151118
    17  H    0.208636
    18  H    0.295830
    19  C   -0.569384
    20  H    0.230990
    21  H    0.280790
    22  H    0.122930
    23  H    0.018590
    24  H    0.159186
 Sum of Mulliken charges =  -0.00000

 Dipole moment (field-independent basis, Debye):
    X=              0.1991    Y=              0.7629    Z=             -0.6725  Tot=              1.0363

 Test job not archived.
 1\1\GINC-SE252\SP\RHF\Aug-CC-pVDZ\C7H14O2Si1\OHZDE\08-Apr-2025\0\\#t h
 f aug-cc-pvdz iop(5/13=1,5/36=2,99/5=2) pseudo=read geom=check guess=(
 read,tcheck) scf=(maxcycle=1)\\title\\0,1\Si,0,-1.187411,1.56752,0.367
 135\C,0,0.520975,2.073595,-0.279021\C,0,1.754707,-0.097507,0.322515\O,
 0,1.122063,-0.131526,1.359537\C,0,1.503005,0.977985,-0.71848\H,0,1.136
 856,0.455465,-1.610287\H,0,2.468517,1.412187,-1.006392\C,0,-1.965328,0
 .088112,-0.564083\H,0,-2.107112,2.700495,0.075202\H,0,-1.240793,1.3326
 2,1.823845\C,0,-1.253384,-1.236055,-0.440505\H,0,-2.991859,0.017987,-0

 Normal termination of Gaussian 16 at Tue Apr  8 23:53:58 2025.
