 Gaussian 16, Revision C.01,

 ----------------------------------------------------------------------
 #t hf aug-cc-pvdz symm=none int=(grid=ultrafine) guess=(read,tcheck) s
 table=(opt,rrhf)
 ----------------------------------------------------------------------
 -----
 title
 -----
 Symbolic Z-matrix:
 Charge =  0 Multiplicity = 1

 SCF Done:  E(RHF) =  -461.797108060     A.U. after   13 cycles
 Normal termination of Gaussian 16 at Wed Apr  9 00:42:53 2025.
 Gaussian 16:  ES64L-G16RevC.01  3-Jul-2019

 ----------------------------------------------------------------------
 #t hf aug-cc-pvdz iop(5/13=1,5/36=2,99/5=2) pseudo=read geom=check gue
 ss=(read,tcheck) scf=(maxcycle=1)
 ----------------------------------------------------------------------
 -----
 title
 -----
 Structure from the checkpoint file:  "BDE49_nonexpt_724_mol1.chk"
 Charge =  0 Multiplicity = 1

                         Standard orientation:
 ---------------------------------------------------------------------
 Center     Atomic      Atomic             Coordinates (Angstroms)
 Number     Number       Type             X           Y           Z
 ---------------------------------------------------------------------
      1         15           0        0.734010   -0.592262   -0.097933
      2          6           0       -0.996207   -0.301331    0.512888
      3          5           0        1.801902    0.889551    0.123016
      4          7           0       -1.785952    0.513711   -0.405539
      5          1           0       -0.876061    0.101574    1.531020
      6          1           0       -1.480536   -1.276153    0.612206
      7          1           0       -1.405772    1.452675   -0.466325
      8          1           0       -2.746124    0.588306   -0.081089
      9          1           0        2.737535    1.042598   -0.594806
     10          1           0        1.658558    1.571583    1.089211
     11          1           0        0.571647   -0.832397   -1.474863
 ---------------------------------------------------------------------

 SCF Done:  E(RHF) =  -461.974630527     A.U. after    2 cycles

 The electronic state is 1-A.
 Alpha  occ. eigenvalues --  -84.25259 -15.49822 -11.28022  -7.60306  -6.72878
 Alpha  occ. eigenvalues --   -4.25570  -4.25420  -4.24614  -1.18925  -0.95276
 Alpha  occ. eigenvalues --   -0.82604  -0.70348  -0.67566  -0.65415  -0.58467
 Alpha  occ. eigenvalues --   -0.52948  -0.47846  -0.45578  -0.42730  -0.31939
 Alpha virt. eigenvalues --    0.03046   0.04187   0.04566   0.04741   0.05522
 Alpha virt. eigenvalues --    0.06469   0.06905   0.08022   0.09170   0.10422
 Alpha virt. eigenvalues --    0.11243   0.12106   0.12717   0.13118   0.14796

 Mulliken charges:
               1
     1  P   -0.071525
     2  C   -0.966277
     3  B   -0.382012
     4  N    0.026880
     5  H    0.079125
     6  H    0.043671
     7  H    0.113968
     8  H    0.140999
     9  H    0.333078
    10  H    0.272961
    11  H    0.409130
 Sum of Mulliken charges =  -0.00000

 Dipole moment (field-independent basis, Debye):
    X=             -1.4267    Y=              0.5062    Z=              0.8915  Tot=              1.7568

 Test job not archived.
 1\1\GINC-SE329\SP\RHF\Aug-CC-pVDZ\C1H7B1N1P1\OHZDE\09-Apr-2025\0\\#t h
 f aug-cc-pvdz iop(5/13=1,5/36=2,99/5=2) pseudo=read geom=check guess=(
 read,tcheck) scf=(maxcycle=1)\\title\\0,1\P,0,0.73401,-0.592262,-0.097
 933\C,0,-0.996207,-0.301331,0.512888\B,0,1.801902,0.889551,0.123016\N,
 0,-1.785952,0.513711,-0.405539\H,0,-0.876061,0.101574,1.53102\H,0,-1.4
 80536,-1.276153,0.612206\H,0,-1.405772,1.452675,-0.466325\H,0,-2.74612
 4,0.588306,-0.081089\H,0,2.737535,1.042598,-0.594806\H,0,1.658558,1.57
 1583,1.089211\H,0,0.571647,-0.832397,-1.474863\\Version=ES64L-G16RevC.

 Normal termination of Gaussian 16 at Wed Apr  9 00:42:56 2025.
