 Gaussian 16, Revision C.01,

 ----------------------------------------------------------------------
 #t hf aug-cc-pvdz symm=none int=(grid=ultrafine) guess=(read,tcheck) s
 table=opt
 ----------------------------------------------------------------------
 -----
 title
 -----
 Symbolic Z-matrix:
 Charge =  0 Multiplicity = 2

 SCF Done:  E(UHF) =  -1600.44127615     A.U. after   16 cycles
 Normal termination of Gaussian 16 at Tue Apr  8 23:12:56 2025.
 Gaussian 16:  ES64L-G16RevC.01  3-Jul-2019

 ----------------------------------------------------------------------
 #t hf aug-cc-pvdz iop(5/13=1,5/36=2,99/5=2) pseudo=read geom=check gue
 ss=(read,tcheck) scf=(maxcycle=1)
 ----------------------------------------------------------------------
 -----
 title
 -----
 Structure from the checkpoint file:  "BDE49_expt_805_mol2.chk"
 Charge =  0 Multiplicity = 2

                         Standard orientation:
 ---------------------------------------------------------------------
 Center     Atomic      Atomic             Coordinates (Angstroms)
 Number     Number       Type             X           Y           Z
 ---------------------------------------------------------------------
      1         14           0       -0.625442    0.237054   -0.000000
      2         16           0       -0.632650   -1.118871    1.681011
      3         16           0       -0.632650   -1.118871   -1.681011
      4         16           0        1.050080    1.622206   -0.000000
      5          6           0       -0.632650    0.072858    3.085291
      6          1           0        0.146929    0.822439    2.957798
      7          1           0       -0.429556   -0.515214    3.979926
      8          1           0       -1.605765    0.551928    3.180725
      9          6           0       -0.632650    0.072858   -3.085291
     10          1           0       -0.429556   -0.515214   -3.979926
     11          1           0        0.146929    0.822439   -2.957798
     12          1           0       -1.605765    0.551928   -3.180725
     13          6           0        2.520222    0.503861    0.000000
     14          1           0        2.525415   -0.119589   -0.892290
     15          1           0        2.525415   -0.119589    0.892290
     16          1           0        3.396146    1.153221    0.000000
 ---------------------------------------------------------------------

 SCF Done:  E(UHF) =  -1600.78568819     A.U. after    2 cycles

 The electronic state is 2-A'.
 Alpha  occ. eigenvalues --  -93.94569 -93.94565 -93.94471 -69.59920 -11.27511
 Alpha  occ. eigenvalues --  -11.27510 -11.27446  -8.22795  -8.22782  -8.22687
 Alpha  occ. eigenvalues --   -6.26375  -6.20648  -6.20644  -6.20549  -6.20465
 Alpha  occ. eigenvalues --   -6.20464  -6.20323  -6.20262  -6.20260  -6.20121
 Alpha  occ. eigenvalues --   -4.01991  -4.01297  -4.01285  -1.07529  -1.05396
 Alpha  occ. eigenvalues --   -1.04932  -0.90990  -0.88168  -0.86950  -0.67608
 Alpha  occ. eigenvalues --   -0.61563  -0.61038  -0.60513  -0.59882  -0.59423
 Alpha  occ. eigenvalues --   -0.58016  -0.53956  -0.48846  -0.48721  -0.44767
 Alpha  occ. eigenvalues --   -0.44492  -0.39798  -0.37598  -0.36089  -0.31743
 Alpha virt. eigenvalues --    0.03386   0.03601   0.03980   0.04607   0.05611
 Alpha virt. eigenvalues --    0.05862   0.06504   0.07347   0.08348   0.08348
 Alpha virt. eigenvalues --    0.08580   0.09304   0.09755   0.11623   0.13077

  Beta  occ. eigenvalues --  -93.94476 -93.94472 -93.94387 -69.59391 -11.27509
  Beta  occ. eigenvalues --  -11.27508 -11.27350  -8.22687  -8.22675  -8.22569
  Beta  occ. eigenvalues --   -6.25523  -6.20481  -6.20481  -6.20370  -6.20329
  Beta  occ. eigenvalues --   -6.20324  -6.20180  -6.20069  -6.20055  -6.20054
  Beta  occ. eigenvalues --   -4.00987  -4.00954  -4.00123  -1.06811  -1.05010
  Beta  occ. eigenvalues --   -1.04345  -0.90331  -0.87523  -0.86585  -0.65013
  Beta  occ. eigenvalues --   -0.61452  -0.60644  -0.60353  -0.59772  -0.59377
  Beta  occ. eigenvalues --   -0.57068  -0.52544  -0.48708  -0.48083  -0.43757
  Beta  occ. eigenvalues --   -0.42350  -0.38290  -0.36747  -0.35514
  Beta virt. eigenvalues --    0.01300   0.03459   0.03657   0.04600   0.04767
  Beta virt. eigenvalues --    0.05831   0.05886   0.06524   0.07418   0.08460
  Beta virt. eigenvalues --    0.08561   0.08781   0.09525   0.10263   0.11873

 Mulliken charges and spin densities:
               1          2
     1  Si   1.939296   0.820766
     2  S   -0.358754   0.068235
     3  S   -0.358754   0.068235
     4  S   -0.366078   0.020067
     5  C   -0.733753   0.000773
     6  H    0.116978   0.002501
     7  H    0.157392  -0.001992
     8  H    0.161722  -0.004056
     9  C   -0.733753   0.000773
    10  H    0.157392  -0.001992
    11  H    0.116978   0.002501
    12  H    0.161722  -0.004056
    13  C   -0.682673   0.037902
    14  H    0.134190  -0.005210
    15  H    0.134190  -0.005210
    16  H    0.153904   0.000763
 Sum of Mulliken charges =  -0.00000   1.00000

 Dipole moment (field-independent basis, Debye):
    X=              0.9807    Y=              1.2145    Z=              0.0000  Tot=              1.5610
                          Isotropic Fermi Contact Couplings
        Atom                 a.u.       MegaHertz       Gauss      10(-4) cm-1
     1  Si(29)             0.77326    -687.21320    -245.21476    -229.22965
     2  S(33)              0.02677       9.19349       3.28047       3.06662
     3  S(33)              0.02677       9.19349       3.28047       3.06662
     4  S(33)              0.13043      44.79996      15.98574      14.94366
     5  C(13)              0.00220       2.47654       0.88369       0.82608
     6  H(1)              -0.00006      -0.28090      -0.10023      -0.09370
     7  H(1)              -0.00032      -1.41335      -0.50432      -0.47144
     8  H(1)               0.00031       1.38872       0.49553       0.46323

 Normal termination of Gaussian 16 at Tue Apr  8 23:13:01 2025.
