 Gaussian 16, Revision C.01,

 ----------------------------------------------------------------------
 #t hf aug-cc-pvdz symm=none int=(grid=ultrafine) guess=(read,tcheck) s
 table=(opt,rrhf)
 ----------------------------------------------------------------------
 -----
 title
 -----
 Symbolic Z-matrix:
 Charge =  0 Multiplicity = 1

 SCF Done:  E(RHF) =  -423.171110072     A.U. after   12 cycles
 Normal termination of Gaussian 16 at Tue Apr  8 23:58:24 2025.
 Gaussian 16:  ES64L-G16RevC.01  3-Jul-2019

 ----------------------------------------------------------------------
 #t hf aug-cc-pvdz iop(5/13=1,5/36=2,99/5=2) pseudo=read geom=check gue
 ss=(read,tcheck) scf=(maxcycle=1)
 ----------------------------------------------------------------------
 -----
 title
 -----
 Structure from the checkpoint file:  "BDE49_nonexpt_2060_mol1.chk"
 Charge =  0 Multiplicity = 1

                         Standard orientation:
 ---------------------------------------------------------------------
 Center     Atomic      Atomic             Coordinates (Angstroms)
 Number     Number       Type             X           Y           Z
 ---------------------------------------------------------------------
      1         14           0        1.719144   -0.064587    0.000001
      2          6           0       -0.096217    0.450957    0.000008
      3          7           0       -1.008670   -0.434224   -0.000010
      4          1           0       -0.354733    1.527949    0.000027
      5          6           0       -2.396274   -0.001286   -0.000003
      6          1           0       -2.896460   -0.420233   -0.878176
      7          1           0       -2.516075    1.092807    0.000017
      8          1           0       -2.896461   -0.420265    0.878155
      9          1           0        1.828121   -1.536578   -0.000046
     10          1           0        2.391612    0.500999    1.195714
     11          1           0        2.391625    0.501076   -1.195668
 ---------------------------------------------------------------------

 SCF Done:  E(RHF) =  -423.346098218     A.U. after    2 cycles

 The electronic state is 1-A.
 Alpha  occ. eigenvalues --  -69.53163 -15.51391 -11.27217 -11.26076  -6.20294
 Alpha  occ. eigenvalues --   -3.95668  -3.95650  -3.95650  -1.23257  -0.97312
 Alpha  occ. eigenvalues --   -0.81586  -0.73167  -0.66882  -0.61517  -0.60537
 Alpha  occ. eigenvalues --   -0.51235  -0.50146  -0.48984  -0.43936  -0.42443
 Alpha virt. eigenvalues --    0.03593   0.04254   0.04559   0.05686   0.06071
 Alpha virt. eigenvalues --    0.06429   0.06560   0.08654   0.09215   0.09726
 Alpha virt. eigenvalues --    0.09936   0.12563   0.14661   0.14848   0.15282

 Mulliken charges:
               1
     1  Si   1.044302
     2  C   -0.907582
     3  N    0.571606
     4  H   -0.027890
     5  C   -0.431347
     6  H    0.119514
     7  H    0.115673
     8  H    0.119516
     9  H   -0.147227
    10  H   -0.228284
    11  H   -0.228282
 Sum of Mulliken charges =  -0.00000

 Dipole moment (field-independent basis, Debye):
    X=             -0.3709    Y=              1.7634    Z=              0.0000  Tot=              1.8020

 Test job not archived.
 1\1\GINC-SE454\SP\RHF\Aug-CC-pVDZ\C2H7N1Si1\OHZDE\08-Apr-2025\0\\#t hf
  aug-cc-pvdz iop(5/13=1,5/36=2,99/5=2) pseudo=read geom=check guess=(r
 ead,tcheck) scf=(maxcycle=1)\\title\\0,1\Si,0,1.719144,-0.064587,0.000
 001\C,0,-0.096217,0.450957,0.000008\N,0,-1.00867,-0.434224,-0.00001\H,
 0,-0.354733,1.527949,0.000027\C,0,-2.396274,-0.001286,-0.000003\H,0,-2
 .89646,-0.420233,-0.878176\H,0,-2.516075,1.092807,0.000017\H,0,-2.8964
 61,-0.420265,0.878155\H,0,1.828121,-1.536578,-0.000046\H,0,2.391612,0.
 500999,1.195714\H,0,2.391625,0.501076,-1.195668\\Version=ES64L-G16RevC

 Normal termination of Gaussian 16 at Tue Apr  8 23:58:27 2025.
