 Gaussian 16, Revision C.01,

 ----------------------------------------------------------------------
 #t hf aug-cc-pvdz symm=none int=(grid=ultrafine) guess=(read,tcheck) s
 table=(opt,rrhf)
 ----------------------------------------------------------------------
 -----
 title
 -----
 Symbolic Z-matrix:
 Charge =  0 Multiplicity = 1

 SCF Done:  E(RHF) =  -251.641899700     A.U. after   14 cycles
 Normal termination of Gaussian 16 at Tue Apr  8 23:19:50 2025.
 Gaussian 16:  ES64L-G16RevC.01  3-Jul-2019

 ----------------------------------------------------------------------
 #t hf aug-cc-pvdz iop(5/13=1,5/36=2,99/5=2) pseudo=read geom=check gue
 ss=(read,tcheck) scf=(maxcycle=1)
 ----------------------------------------------------------------------
 -----
 title
 -----
 Structure from the checkpoint file:  "BDE49_nonexpt_1136_mol1.chk"
 Charge =  0 Multiplicity = 1

                         Standard orientation:
 ---------------------------------------------------------------------
 Center     Atomic      Atomic             Coordinates (Angstroms)
 Number     Number       Type             X           Y           Z
 ---------------------------------------------------------------------
      1          9           0       -0.362262   -1.371192    0.000000
      2          8           0       -0.977924   -0.074120    0.000000
      3          6           0        0.000000    0.883695    0.000000
      4          6           0        1.315073    0.736078    0.000000
      5          1           0       -0.527140    1.834286    0.000000
      6          1           0        1.781386   -0.237383    0.000000
      7          1           0        1.939068    1.618146    0.000000
 ---------------------------------------------------------------------

 SCF Done:  E(RHF) =  -251.885295076     A.U. after    2 cycles

 The electronic state is 1-A'.
 Alpha  occ. eigenvalues --  -26.51977 -20.69867 -11.33233 -11.25152  -1.67977
 Alpha  occ. eigenvalues --   -1.39592  -1.05211  -0.83642  -0.74871  -0.71857
 Alpha  occ. eigenvalues --   -0.69733  -0.62762  -0.58236  -0.57012  -0.56975
 Alpha  occ. eigenvalues --   -0.38662
 Alpha virt. eigenvalues --    0.03514   0.04448   0.05614   0.10333   0.10340
 Alpha virt. eigenvalues --    0.11133   0.11823   0.14512   0.14960   0.16465
 Alpha virt. eigenvalues --    0.18404   0.19285   0.21631   0.24301   0.25515

 Mulliken charges:
               1
     1  F   -0.371689
     2  O   -0.569909
     3  C    1.018391
     4  C   -0.020787
     5  H   -0.030476
     6  H    0.029665
     7  H   -0.055196
 Sum of Mulliken charges =  -0.00000

 Dipole moment (field-independent basis, Debye):
    X=              0.7904    Y=              1.7779    Z=              0.0000  Tot=              1.9457

 Test job not archived.
 1\1\GINC-SE461\SP\RHF\Aug-CC-pVDZ\C2H3F1O1\OHZDE\08-Apr-2025\0\\#t hf
 aug-cc-pvdz iop(5/13=1,5/36=2,99/5=2) pseudo=read geom=check guess=(re
 ad,tcheck) scf=(maxcycle=1)\\title\\0,1\F,0,-0.362262,-1.371192,0.\O,0
 ,-0.977924,-0.07412,0.\C,0,0.,0.883695,0.\C,0,1.315073,0.736078,0.\H,0
 ,-0.52714,1.834286,0.\H,0,1.781386,-0.237383,0.\H,0,1.939068,1.618146,
 0.\\Version=ES64L-G16RevC.01\State=1-A'\HF=-251.8852951\RMSD=1.188e-02
 \Dipole=0.3109766,0.6994735,0.\Quadrupole=0.5802244,1.2605031,-1.84072
 75,-0.880644,0.,0.\PG=CS [SG(C2H3F1O1)]\\@

 Normal termination of Gaussian 16 at Tue Apr  8 23:19:52 2025.
