 Gaussian 16, Revision C.01,

 ----------------------------------------------------------------------
 #t hf aug-cc-pvdz symm=none int=(grid=ultrafine) guess=(read,tcheck) s
 table=(opt,rrhf)
 ----------------------------------------------------------------------
 -----
 title
 -----
 Symbolic Z-matrix:
 Charge =  0 Multiplicity = 1

 SCF Done:  E(RHF) =  -368.630618873     A.U. after   14 cycles
 Normal termination of Gaussian 16 at Tue Apr  8 22:44:59 2025.
 Gaussian 16:  ES64L-G16RevC.01  3-Jul-2019

 ----------------------------------------------------------------------
 #t hf aug-cc-pvdz iop(5/13=1,5/36=2,99/5=2) pseudo=read geom=check gue
 ss=(read,tcheck) scf=(maxcycle=1)
 ----------------------------------------------------------------------
 -----
 title
 -----
 Structure from the checkpoint file:  "BDE49_expt_1527_mol1.chk"
 Charge =  0 Multiplicity = 1

                         Standard orientation:
 ---------------------------------------------------------------------
 Center     Atomic      Atomic             Coordinates (Angstroms)
 Number     Number       Type             X           Y           Z
 ---------------------------------------------------------------------
      1          6           0       -0.445591   -0.276934    0.000015
      2          6           0        0.505745   -1.301579   -0.000011
      3          6           0       -1.913246   -0.626220    0.000058
      4          6           0       -0.019813    1.050253    0.000025
      5          6           0        1.864233   -1.001744   -0.000021
      6          6           0        2.286917    0.327347   -0.000008
      7          6           0        1.342150    1.349376    0.000012
      8          1           0       -0.757319    1.842266    0.000036
      9          1           0        3.345330    0.561821   -0.000017
     10          1           0        1.662815    2.385233    0.000017
     11          1           0        0.184701   -2.339308   -0.000029
     12          1           0        2.593244   -1.804372   -0.000043
     13          9           0       -2.711315    0.516487   -0.000070
     14          1           0       -2.174650   -1.208410    0.889780
     15          1           0       -2.174654   -1.208618   -0.889527
 ---------------------------------------------------------------------

 SCF Done:  E(RHF) =  -369.002765443     A.U. after    2 cycles

 The electronic state is 1-A.
 Alpha  occ. eigenvalues --  -26.45008 -11.33013 -11.25627 -11.24969 -11.24877
 Alpha  occ. eigenvalues --  -11.24726 -11.24502 -11.24299  -1.57058  -1.16322
 Alpha  occ. eigenvalues --   -1.05150  -1.02165  -0.94115  -0.84276  -0.81805
 Alpha  occ. eigenvalues --   -0.72869  -0.69603  -0.68764  -0.66257  -0.63372
 Alpha  occ. eigenvalues --   -0.62815  -0.60292  -0.55410  -0.54738  -0.50994
 Alpha  occ. eigenvalues --   -0.50281  -0.50263  -0.35112  -0.34440
 Alpha virt. eigenvalues --    0.03278   0.03493   0.04185   0.05054   0.05084
 Alpha virt. eigenvalues --    0.05597   0.07825   0.09870   0.09899   0.10551
 Alpha virt. eigenvalues --    0.12254   0.12477   0.13785   0.13858   0.14171

 Mulliken charges:
               1
     1  C    0.421719
     2  C    0.080839
     3  C    0.647077
     4  C    0.133537
     5  C    0.152446
     6  C   -0.055668
     7  C    0.197735
     8  H   -0.232952
     9  H   -0.212652
    10  H   -0.216835
    11  H   -0.276637
    12  H   -0.227302
    13  F   -0.781219
    14  H    0.184975
    15  H    0.184937
 Sum of Mulliken charges =   0.00000

 Dipole moment (field-independent basis, Debye):
    X=              1.0765    Y=             -1.3426    Z=              0.0002  Tot=              1.7209

 Test job not archived.
 1\1\GINC-SE454\SP\RHF\Aug-CC-pVDZ\C7H7F1\OHZDE\08-Apr-2025\0\\#t hf au
 g-cc-pvdz iop(5/13=1,5/36=2,99/5=2) pseudo=read geom=check guess=(read
 ,tcheck) scf=(maxcycle=1)\\title\\0,1\C,0,0.445591,0.276934,0.000015\C
 ,0,-0.505745,1.301579,-0.000011\C,0,1.913246,0.62622,0.000058\C,0,0.01
 9813,-1.050253,0.000025\C,0,-1.864233,1.001744,-0.000021\C,0,-2.286917
 ,-0.327347,-0.000008\C,0,-1.34215,-1.349376,0.000012\H,0,0.757319,-1.8
 42266,0.000036\H,0,-3.34533,-0.561821,-0.000017\H,0,-1.662815,-2.38523
 3,0.000017\H,0,-0.184701,2.339308,-0.000029\H,0,-2.593244,1.804372,-0.

 Normal termination of Gaussian 16 at Tue Apr  8 22:45:04 2025.
