 Gaussian 16, Revision C.01,

 ----------------------------------------------------------------------
 #t hf aug-cc-pvdz symm=none int=(grid=ultrafine) guess=(read,tcheck) s
 table=(opt,rrhf)
 ----------------------------------------------------------------------
 -----
 title
 -----
 Symbolic Z-matrix:
 Charge =  0 Multiplicity = 1

 SCF Done:  E(RHF) =  -594.125156803     A.U. after   12 cycles
 Normal termination of Gaussian 16 at Wed Apr  9 00:00:27 2025.
 Gaussian 16:  ES64L-G16RevC.01  3-Jul-2019

 ----------------------------------------------------------------------
 #t hf aug-cc-pvdz iop(5/13=1,5/36=2,99/5=2) pseudo=read geom=check gue
 ss=(read,tcheck) scf=(maxcycle=1)
 ----------------------------------------------------------------------
 -----
 title
 -----
 Structure from the checkpoint file:  "BDE49_nonexpt_2086_mol1.chk"
 Charge =  0 Multiplicity = 1

                         Standard orientation:
 ---------------------------------------------------------------------
 Center     Atomic      Atomic             Coordinates (Angstroms)
 Number     Number       Type             X           Y           Z
 ---------------------------------------------------------------------
      1          7           0        1.169665   -0.449177   -0.193257
      2          7           0       -1.169682   -0.449135   -0.193257
      3          6           0        0.000006    0.301133    0.332125
      4          6           0        0.667203   -1.737093   -0.512467
      5          1           0        1.343037   -2.518690   -0.823602
      6          6           0       -0.667264   -1.737069   -0.512469
      7          1           0       -1.343126   -2.518641   -0.823605
      8          6           0        2.357464   -0.389982    0.646206
      9          1           0        2.721428    0.637697    0.708629
     10          1           0        3.147291   -0.996444    0.198541
     11          6           0       -2.357477   -0.389900    0.646206
     12          1           0       -3.147327   -0.996334    0.198541
     13          1           0       -2.721405    0.637792    0.708631
     14          1           0       -2.167508   -0.755810    1.670376
     15         14           0        0.000037    2.093686   -0.315409
     16          1           0        0.000005    0.248879    1.448818
     17          1           0        2.167483   -0.755884    1.670376
     18          1           0        0.000036    2.082400   -1.791958
     19          1           0        1.199877    2.814520    0.179485
     20          1           0       -1.199778    2.814562    0.179485
 ---------------------------------------------------------------------

 SCF Done:  E(RHF) =  -594.480603386     A.U. after    2 cycles

 The electronic state is 1-A.
 Alpha  occ. eigenvalues --  -69.52140 -15.50429 -15.50418 -11.28385 -11.26229
 Alpha  occ. eigenvalues --  -11.26225 -11.25471 -11.25378  -6.19270  -3.94629
 Alpha  occ. eigenvalues --   -3.94622  -3.94602  -1.28998  -1.18644  -1.02996
 Alpha  occ. eigenvalues --   -0.97209  -0.92005  -0.83097  -0.79558  -0.74175
 Alpha  occ. eigenvalues --   -0.70240  -0.66330  -0.62373  -0.61598  -0.61462
 Alpha  occ. eigenvalues --   -0.59294  -0.57430  -0.55259  -0.52775  -0.51312
 Alpha  occ. eigenvalues --   -0.48157  -0.47863  -0.44160  -0.43868  -0.29566
 Alpha virt. eigenvalues --    0.03719   0.04073   0.04134   0.04379   0.04972
 Alpha virt. eigenvalues --    0.05042   0.05757   0.05844   0.07506   0.08650
 Alpha virt. eigenvalues --    0.08692   0.09483   0.10448   0.11074   0.11287

 Mulliken charges:
               1
     1  N    0.819295
     2  N    0.819295
     3  C   -1.267288
     4  C    0.003941
     5  H   -0.266296
     6  C    0.003943
     7  H   -0.266297
     8  C   -0.450623
     9  H    0.050183
    10  H    0.083483
    11  C   -0.450624
    12  H    0.083482
    13  H    0.050184
    14  H    0.236906
    15  Si   0.609875
    16  H   -0.011963
    17  H    0.236906
    18  H   -0.012827
    19  H   -0.135788
    20  H   -0.135788
 Sum of Mulliken charges =  -0.00000

 Dipole moment (field-independent basis, Debye):
    X=             -0.0000    Y=             -0.8066    Z=              1.4441  Tot=              1.6541

 Test job not archived.
 1\1\GINC-SE339\SP\RHF\Aug-CC-pVDZ\C5H12N2Si1\OHZDE\09-Apr-2025\0\\#t h
 f aug-cc-pvdz iop(5/13=1,5/36=2,99/5=2) pseudo=read geom=check guess=(
 read,tcheck) scf=(maxcycle=1)\\title\\0,1\N,0,1.169668,-0.44917,-0.193
 257\N,0,-1.169679,-0.449142,-0.193257\C,0,0.000004,0.301133,0.332125\C
 ,0,0.667213,-1.737089,-0.512467\H,0,1.343052,-2.518682,-0.823602\C,0,-
 0.667254,-1.737073,-0.512469\H,0,-1.343111,-2.518649,-0.823605\C,0,2.3
 57466,-0.389968,0.646206\H,0,2.721424,0.637713,0.708629\H,0,3.147297,-
 0.996426,0.198541\C,0,-2.357475,-0.389914,0.646206\H,0,-3.147321,-0.99

 Normal termination of Gaussian 16 at Wed Apr  9 00:00:37 2025.
