 Gaussian 16, Revision C.01,

 ----------------------------------------------------------------------
 #t hf aug-cc-pvdz symm=none int=(grid=ultrafine) guess=(read,tcheck) s
 table=(opt,rrhf)
 ----------------------------------------------------------------------
 -----
 title
 -----
 Symbolic Z-matrix:
 Charge =  0 Multiplicity = 1

 SCF Done:  E(RHF) =  -197.425445508     A.U. after   13 cycles
 Normal termination of Gaussian 16 at Wed Apr  9 00:36:59 2025.
 Gaussian 16:  ES64L-G16RevC.01  3-Jul-2019

 ----------------------------------------------------------------------
 #t hf aug-cc-pvdz iop(5/13=1,5/36=2,99/5=2) pseudo=read geom=check gue
 ss=(read,tcheck) scf=(maxcycle=1)
 ----------------------------------------------------------------------
 -----
 title
 -----
 Structure from the checkpoint file:  "BDE49_nonexpt_543_mol1.chk"
 Charge =  0 Multiplicity = 1

                         Standard orientation:
 ---------------------------------------------------------------------
 Center     Atomic      Atomic             Coordinates (Angstroms)
 Number     Number       Type             X           Y           Z
 ---------------------------------------------------------------------
      1          1           0        2.862413   -0.000351   -1.043022
      2          1           0        2.862320    0.000398    1.043161
      3          7           0        0.921063   -0.000021   -0.000019
      4          6           0       -1.127846    1.287168    0.000049
      5          6           0       -0.330915   -0.000001   -0.000061
      6          6           0       -1.127887   -1.287144   -0.000042
      7          5           0        2.278342   -0.000024    0.000044
      8          1           0       -0.466044    2.151903    0.000113
      9          1           0       -1.777936    1.330888    0.880131
     10          1           0       -1.777937    1.331019   -0.880025
     11          1           0       -0.466113   -2.151902   -0.000056
     12          1           0       -1.777999   -1.330911   -0.880106
     13          1           0       -1.777962   -1.330911    0.880049
 ---------------------------------------------------------------------

 SCF Done:  E(RHF) =  -197.634942489     A.U. after    2 cycles

 The electronic state is 1-A.
 Alpha  occ. eigenvalues --  -15.48962 -11.31302 -11.24572 -11.24560  -7.57654
 Alpha  occ. eigenvalues --   -1.22984  -1.03039  -0.96507  -0.86458  -0.68454
 Alpha  occ. eigenvalues --   -0.63772  -0.62742  -0.59040  -0.56517  -0.56256
 Alpha  occ. eigenvalues --   -0.53837  -0.53678  -0.41872  -0.40988
 Alpha virt. eigenvalues --    0.03264   0.04168   0.04223   0.05027   0.05594
 Alpha virt. eigenvalues --    0.05996   0.06138   0.07088   0.07372   0.09535
 Alpha virt. eigenvalues --    0.11694   0.12168   0.13726   0.13955   0.14733

 Mulliken charges:
               1
     1  H    0.217494
     2  H    0.217483
     3  N    1.077575
     4  C   -0.294630
     5  C   -1.275074
     6  C   -0.294640
     7  B   -0.753710
     8  H    0.080607
     9  H    0.236063
    10  H    0.236079
    11  H    0.080608
    12  H    0.236076
    13  H    0.236068
 Sum of Mulliken charges =   0.00000

 Dipole moment (field-independent basis, Debye):
    X=             -3.1092    Y=             -0.0000    Z=              0.0000  Tot=              3.1092

 Test job not archived.
 1\1\GINC-SE363\SP\RHF\Aug-CC-pVDZ\C3H8B1N1\OHZDE\09-Apr-2025\0\\#t hf
 aug-cc-pvdz iop(5/13=1,5/36=2,99/5=2) pseudo=read geom=check guess=(re
 ad,tcheck) scf=(maxcycle=1)\\title\\0,1\H,0,2.862413,0.000352,1.043022
 \H,0,2.86232,-0.000397,-1.043161\N,0,0.921063,0.000021,0.000019\C,0,-1
 .127846,-1.287168,-0.000049\C,0,-0.330915,0.000001,0.000061\C,0,-1.127
 888,1.287144,0.000042\B,0,2.278342,0.000025,-0.000044\H,0,-0.466043,-2
 .151903,-0.000113\H,0,-1.777936,-1.330889,-0.880131\H,0,-1.777937,-1.3
 3102,0.880025\H,0,-0.466114,2.151902,0.000056\H,0,-1.778,1.33091,0.880

 Normal termination of Gaussian 16 at Wed Apr  9 00:37:02 2025.
