 Gaussian 16, Revision C.01,

 ----------------------------------------------------------------------
 #t hf aug-cc-pvdz symm=none int=(grid=ultrafine) guess=(read,tcheck) s
 table=opt
 ----------------------------------------------------------------------
 -----
 title
 -----
 Symbolic Z-matrix:
 Charge =  0 Multiplicity = 2

 SCF Done:  E(UHF) =  -769.544069017     A.U. after   16 cycles
 Normal termination of Gaussian 16 at Wed Apr  9 00:08:14 2025.
 Gaussian 16:  ES64L-G16RevC.01  3-Jul-2019

 ----------------------------------------------------------------------
 #t hf aug-cc-pvdz iop(5/13=1,5/36=2,99/5=2) pseudo=read geom=check gue
 ss=(read,tcheck) scf=(maxcycle=1)
 ----------------------------------------------------------------------
 -----
 title
 -----
 Structure from the checkpoint file:  "BDE49_nonexpt_2276_mol2.chk"
 Charge =  0 Multiplicity = 2

                         Standard orientation:
 ---------------------------------------------------------------------
 Center     Atomic      Atomic             Coordinates (Angstroms)
 Number     Number       Type             X           Y           Z
 ---------------------------------------------------------------------
      1         14           0       -1.216901   -0.427676   -0.528503
      2          6           0        0.450635    0.458865   -0.590164
      3         14           0        1.912626   -0.493840    0.182851
      4          8           0        0.284794    1.752502    0.039662
      5          1           0        0.691472    0.655864   -1.640386
      6          1           0       -0.149785    1.594956    0.887347
      7          8           0       -1.642468   -0.215325    1.063214
      8          1           0       -2.554811   -0.329633    1.335701
      9          1           0        2.013881   -1.869953   -0.379144
     10          1           0        1.745773   -0.568249    1.658831
     11          1           0       -1.118511   -1.861487   -0.891016
     12          1           0       -2.210586    0.229120   -1.414232
 ---------------------------------------------------------------------

 SCF Done:  E(UHF) =  -769.799674091     A.U. after    2 cycles

 The electronic state is 2-A.
 Alpha  occ. eigenvalues --  -69.56437 -69.53679 -20.56057 -20.55470 -11.27304
 Alpha  occ. eigenvalues --   -6.23109  -6.20821  -3.98587  -3.98456  -3.98397
 Alpha  occ. eigenvalues --   -3.96753  -3.95869  -3.95856  -1.45167  -1.43793
 Alpha  occ. eigenvalues --   -0.93425  -0.77742  -0.73697  -0.66616  -0.64541
 Alpha  occ. eigenvalues --   -0.60151  -0.57675  -0.55755  -0.52710  -0.49240
 Alpha  occ. eigenvalues --   -0.47833  -0.45665  -0.40912  -0.32688
 Alpha virt. eigenvalues --    0.02919   0.03775   0.04224   0.05219   0.06296
 Alpha virt. eigenvalues --    0.06858   0.07130   0.07958   0.08059   0.09680
 Alpha virt. eigenvalues --    0.09972   0.10646   0.11366   0.13289   0.14183

  Beta  occ. eigenvalues --  -69.56412 -69.53117 -20.56056 -20.55492 -11.27270
  Beta  occ. eigenvalues --   -6.23068  -6.19964  -3.98562  -3.98387  -3.98382
  Beta  occ. eigenvalues --   -3.95484  -3.95471  -3.94607  -1.45166  -1.43807
  Beta  occ. eigenvalues --   -0.92843  -0.77476  -0.70560  -0.66537  -0.63757
  Beta  occ. eigenvalues --   -0.59997  -0.57153  -0.55487  -0.52634  -0.48425
  Beta  occ. eigenvalues --   -0.47366  -0.45458  -0.39754
  Beta virt. eigenvalues --    0.02413   0.03230   0.03992   0.04607   0.05517
  Beta virt. eigenvalues --    0.06429   0.07016   0.07682   0.07986   0.08722
  Beta virt. eigenvalues --    0.10040   0.10175   0.10877   0.11434   0.13418

 Mulliken charges and spin densities:
               1          2
     1  Si   1.648595   0.006784
     2  C    0.141624  -0.035984
     3  Si   0.603530   0.995077
     4  O   -1.164236  -0.002124
     5  H   -0.051817   0.008984
     6  H    0.373598  -0.000867
     7  O   -1.385739  -0.003324
     8  H    0.419583  -0.000508
     9  H   -0.122978   0.015441
    10  H   -0.139539   0.010014
    11  H   -0.156761  -0.002155
    12  H   -0.165858   0.008661
 Sum of Mulliken charges =  -0.00000   1.00000

 Dipole moment (field-independent basis, Debye):
    X=             -1.9774    Y=             -1.3343    Z=             -0.0438  Tot=              2.3859
                          Isotropic Fermi Contact Couplings
        Atom                 a.u.       MegaHertz       Gauss      10(-4) cm-1
     1  Si(29)             0.04359     -38.73865     -13.82291     -12.92182
     2  C(13)              0.00078       0.87896       0.31363       0.29319
     3  Si(29)             0.60399    -536.77842    -191.53589    -179.05001
     4  O(17)             -0.00211       1.27778       0.45594       0.42622
     5  H(1)               0.00213       9.51468       3.39507       3.17376
     6  H(1)               0.00003       0.15526       0.05540       0.05179
     7  O(17)             -0.00076       0.46208       0.16488       0.15413
     8  H(1)              -0.00007      -0.29739      -0.10612      -0.09920

 Normal termination of Gaussian 16 at Wed Apr  9 00:08:20 2025.
