 Gaussian 16, Revision C.01,

 ----------------------------------------------------------------------
 #t hf aug-cc-pvdz symm=none int=(grid=ultrafine) guess=(read,tcheck) s
 table=(opt,rrhf)
 ----------------------------------------------------------------------
 -----
 title
 -----
 Symbolic Z-matrix:
 Charge =  0 Multiplicity = 1

 SCF Done:  E(RHF) =  -193.959459313     A.U. after   12 cycles
 Normal termination of Gaussian 16 at Tue Apr  8 23:07:54 2025.
 Gaussian 16:  ES64L-G16RevC.01  3-Jul-2019

 ----------------------------------------------------------------------
 #t hf aug-cc-pvdz iop(5/13=1,5/36=2,99/5=2) pseudo=read geom=check gue
 ss=(read,tcheck) scf=(maxcycle=1)
 ----------------------------------------------------------------------
 -----
 title
 -----
 Structure from the checkpoint file:  "BDE49_expt_45_mol1.chk"
 Charge =  0 Multiplicity = 1

                         Standard orientation:
 ---------------------------------------------------------------------
 Center     Atomic      Atomic             Coordinates (Angstroms)
 Number     Number       Type             X           Y           Z
 ---------------------------------------------------------------------
      1          6           0       -2.335767    0.459379    0.185195
      2          6           0       -1.245947   -0.411776   -0.390259
      3          6           0        0.000001   -0.413027   -0.000005
      4          6           0        1.245947   -0.411770    0.390256
      5          6           0        2.335782    0.459332   -0.185240
      6          1           0        1.536860   -1.090571    1.191731
      7          1           0        1.951611    1.102135   -0.978535
      8          1           0        3.144961   -0.152258   -0.598553
      9          1           0        2.777301    1.094452    0.590149
     10          1           0       -2.777488    1.094231   -0.590297
     11          1           0       -1.951512    1.102447    0.978233
     12          1           0       -3.144815   -0.152167    0.598836
     13          1           0       -1.537017   -1.091088   -1.191244
 ---------------------------------------------------------------------

 SCF Done:  E(RHF) =  -194.170826939     A.U. after    2 cycles

 The electronic state is 1-A.
 Alpha  occ. eigenvalues --  -11.24585 -11.24419 -11.24316 -11.23548 -11.23543
 Alpha  occ. eigenvalues --   -1.09103  -1.02914  -0.93411  -0.86772  -0.69951
 Alpha  occ. eigenvalues --   -0.65482  -0.59105  -0.58173  -0.56951  -0.56543
 Alpha  occ. eigenvalues --   -0.53314  -0.52662  -0.36289  -0.36281
 Alpha virt. eigenvalues --    0.03736   0.03826   0.04380   0.04395   0.06186
 Alpha virt. eigenvalues --    0.06285   0.06942   0.07275   0.11631   0.11981
 Alpha virt. eigenvalues --    0.12041   0.12649   0.13555   0.14681   0.15373

 Mulliken charges:
               1
     1  C   -0.650266
     2  C    0.271785
     3  C    0.030888
     4  C    0.271788
     5  C   -0.650297
     6  H   -0.131794
     7  H    0.083891
     8  H    0.202281
     9  H    0.208681
    10  H    0.208667
    11  H    0.083870
    12  H    0.202304
    13  H   -0.131796
 Sum of Mulliken charges =   0.00000

 Dipole moment (field-independent basis, Debye):
    X=             -0.0001    Y=              0.2250    Z=              0.0004  Tot=              0.2250

 Test job not archived.
 1\1\GINC-SE087\SP\RHF\Aug-CC-pVDZ\C5H8\OHZDE\08-Apr-2025\0\\#t hf aug-
 cc-pvdz iop(5/13=1,5/36=2,99/5=2) pseudo=read geom=check guess=(read,t
 check) scf=(maxcycle=1)\\title\\0,1\C,0,-2.335767,-0.459379,-0.185195\
 C,0,-1.245947,0.411776,0.390259\C,0,0.000001,0.413027,0.000005\C,0,1.2
 45947,0.41177,-0.390256\C,0,2.335782,-0.459332,0.18524\H,0,1.53686,1.0
 90571,-1.191731\H,0,1.951611,-1.102135,0.978535\H,0,3.144961,0.152258,
 0.598553\H,0,2.777301,-1.094452,-0.590149\H,0,-2.777488,-1.094231,0.59
 0297\H,0,-1.951512,-1.102447,-0.978233\H,0,-3.144815,0.152167,-0.59883

 Normal termination of Gaussian 16 at Tue Apr  8 23:07:57 2025.
