 Gaussian 16, Revision C.01,

 ----------------------------------------------------------------------
 #t hf aug-cc-pvdz symm=none int=(grid=ultrafine) guess=(read,tcheck) s
 table=(opt,rrhf)
 ----------------------------------------------------------------------
 -----
 title
 -----
 Symbolic Z-matrix:
 Charge =  0 Multiplicity = 1

 SCF Done:  E(RHF) =  -631.766760640     A.U. after   12 cycles

 1\1\GINC-SE423\Stability\RHF\Aug-CC-pVDZ\C6H12S1\OHZDE\08-Apr-2025\0\\
 #t hf aug-cc-pvdz symm=none int=(grid=ultrafine) guess=(read,tcheck) s
 table=(opt,rrhf)\\title\\0,1\C,0,1.567578,-1.263297,0.214079\C,0,0.069
 758,-1.265122,-0.13226\C,0,2.271029,-0.004993,-0.312617\H,0,2.038569,-
 2.163085,-0.193709\H,0,1.686699,-1.316293,1.303678\C,0,-0.616638,0.012
 203,0.373691\H,0,-0.41806,-2.14617,0.294755\H,0,-0.053319,-1.328239,-1
 .22061\C,0,1.576136,1.270162,0.183963\H,0,2.260637,-0.017785,-1.409918
 \H,0,3.322937,-0.005764,-0.01017\C,0,0.078194,1.268577,-0.16536\H,0,2.

 Normal termination of Gaussian 16 at Tue Apr  8 22:46:14 2025.
 Gaussian 16:  ES64L-G16RevC.01  3-Jul-2019

 ----------------------------------------------------------------------
 #t hf aug-cc-pvdz iop(5/13=1,5/36=2,99/5=2) pseudo=read geom=check gue
 ss=(read,tcheck) scf=(maxcycle=1)
 ----------------------------------------------------------------------
 -----
 title
 -----
 Structure from the checkpoint file:  "BDE49_expt_1558_mol1.chk"
 Charge =  0 Multiplicity = 1

                         Standard orientation:
 ---------------------------------------------------------------------
 Center     Atomic      Atomic             Coordinates (Angstroms)
 Number     Number       Type             X           Y           Z
 ---------------------------------------------------------------------
      1          6           0        1.567578   -1.263297    0.214079
      2          6           0        0.069758   -1.265122   -0.132260
      3          6           0        2.271029   -0.004993   -0.312617
      4          1           0        2.038569   -2.163085   -0.193709
      5          1           0        1.686699   -1.316293    1.303678
      6          6           0       -0.616638    0.012203    0.373691
      7          1           0       -0.418060   -2.146170    0.294755
      8          1           0       -0.053319   -1.328239   -1.220610
      9          6           0        1.576135    1.270162    0.183963
     10          1           0        2.260637   -0.017785   -1.409918
     11          1           0        3.322937   -0.005763   -0.010170
     12          6           0        0.078193    1.268577   -0.165360
     13          1           0        2.052635    2.157024   -0.245397
     14          1           0        1.696588    1.348490    1.272052
     15          1           0       -0.404135    2.165671    0.235409
     16          1           0       -0.050416    1.301410   -1.253229
     17         16           0       -2.402939   -0.074862   -0.104910
     18          1           0       -2.779305    1.081020    0.469339
     19          1           0       -0.582133    0.016333    1.467383
 ---------------------------------------------------------------------

 SCF Done:  E(RHF) =  -632.084872829     A.U. after    2 cycles

 The electronic state is 1-A.
 Alpha  occ. eigenvalues --  -93.94009 -11.27058 -11.23557 -11.23426 -11.23248
 Alpha  occ. eigenvalues --  -11.23211 -11.23019  -8.22072  -6.19923  -6.19776
 Alpha  occ. eigenvalues --   -6.19558  -1.13588  -1.04736  -1.01167  -0.94909
 Alpha  occ. eigenvalues --   -0.84527  -0.81903  -0.76514  -0.65944  -0.62321
 Alpha  occ. eigenvalues --   -0.61743  -0.61290  -0.56177  -0.54407  -0.52697
 Alpha  occ. eigenvalues --   -0.51341  -0.49933  -0.48149  -0.46625  -0.44747
 Alpha  occ. eigenvalues --   -0.42849  -0.35805
 Alpha virt. eigenvalues --    0.03325   0.03457   0.03518   0.04268   0.05713
 Alpha virt. eigenvalues --    0.05991   0.06249   0.06581   0.06851   0.08917
 Alpha virt. eigenvalues --    0.09345   0.09464   0.10900   0.13266   0.13618

 Mulliken charges:
               1
     1  C   -0.360832
     2  C   -0.153852
     3  C   -0.238221
     4  H    0.105208
     5  H    0.149005
     6  C   -0.607011
     7  H    0.102032
     8  H    0.186552
     9  C   -0.313686
    10  H    0.153759
    11  H    0.113615
    12  C   -0.156995
    13  H    0.105546
    14  H    0.153800
    15  H    0.077664
    16  H    0.195328
    17  S    0.124117
    18  H    0.297188
    19  H    0.066783
 Sum of Mulliken charges =  -0.00000

 Dipole moment (field-independent basis, Debye):
    X=              1.8285    Y=              0.7416    Z=              0.7111  Tot=              2.0974

 Test job not archived.
 1\1\GINC-SE423\SP\RHF\Aug-CC-pVDZ\C6H12S1\OHZDE\08-Apr-2025\0\\#t hf a
 ug-cc-pvdz iop(5/13=1,5/36=2,99/5=2) pseudo=read geom=check guess=(rea
 d,tcheck) scf=(maxcycle=1)\\title\\0,1\C,0,1.567578,-1.263297,0.214079
 \C,0,0.069758,-1.265122,-0.13226\C,0,2.271029,-0.004993,-0.312617\H,0,
 2.038569,-2.163085,-0.193709\H,0,1.686699,-1.316293,1.303678\C,0,-0.61
 6638,0.012203,0.373691\H,0,-0.41806,-2.14617,0.294755\H,0,-0.053319,-1
 .328239,-1.22061\C,0,1.576136,1.270162,0.183963\H,0,2.260637,-0.017785
 ,-1.409918\H,0,3.322937,-0.005764,-0.01017\C,0,0.078194,1.268577,-0.16

 Normal termination of Gaussian 16 at Tue Apr  8 22:46:22 2025.
