 Gaussian 16, Revision C.01,

 ----------------------------------------------------------------------
 #t hf aug-cc-pvdz symm=none int=(grid=ultrafine) guess=(read,tcheck) s
 table=(opt,rrhf)
 ----------------------------------------------------------------------
 -----
 title
 -----
 Symbolic Z-matrix:
 Charge =  0 Multiplicity = 1

 SCF Done:  E(RHF) =  -471.440383159     A.U. after   11 cycles
 Normal termination of Gaussian 16 at Wed Apr  9 00:46:23 2025.
 Gaussian 16:  ES64L-G16RevC.01  3-Jul-2019

 ----------------------------------------------------------------------
 #t hf aug-cc-pvdz iop(5/13=1,5/36=2,99/5=2) pseudo=read geom=check gue
 ss=(read,tcheck) scf=(maxcycle=1)
 ----------------------------------------------------------------------
 -----
 title
 -----
 Structure from the checkpoint file:  "BDE49_nonexpt_807_mol1.chk"
 Charge =  0 Multiplicity = 1

                         Standard orientation:
 ---------------------------------------------------------------------
 Center     Atomic      Atomic             Coordinates (Angstroms)
 Number     Number       Type             X           Y           Z
 ---------------------------------------------------------------------
      1          5           0        2.254839    1.321949   -0.000124
      2          6           0       -0.381293   -0.675870    0.000057
      3          6           0       -1.214499    0.082292   -1.086827
      4          6           0       -1.214494    0.082468    1.086821
      5          6           0       -2.269842    0.417705   -0.000027
      6          1           0       -0.706985    0.982822    1.445858
      7          1           0       -1.542928   -0.495179    1.953084
      8          1           0       -3.090601   -0.303925    0.000033
      9          1           0       -2.691989    1.425046   -0.000108
     10          1           0       -1.542937   -0.495496   -1.952994
     11          1           0       -0.706992    0.982588   -1.446011
     12         14           0        1.501691   -0.549047    0.000041
     13          1           0       -0.666476   -1.733521    0.000143
     14          1           0        2.052223   -1.254057   -1.194586
     15          1           0        2.052228   -1.253849    1.194790
     16          1           0        3.438636    1.471149   -0.000121
     17          1           0        1.588727    2.311763   -0.000191
 ---------------------------------------------------------------------

 SCF Done:  E(RHF) =  -471.674456986     A.U. after    2 cycles

 The electronic state is 1-A.
 Alpha  occ. eigenvalues --  -69.50386 -11.23284 -11.23273 -11.22923 -11.22043
 Alpha  occ. eigenvalues --   -7.60444  -6.17688  -3.93045  -3.93015  -3.92991
 Alpha  occ. eigenvalues --   -1.12529  -0.89874  -0.89780  -0.76864  -0.74366
 Alpha  occ. eigenvalues --   -0.66653  -0.65688  -0.60621  -0.54870  -0.53374
 Alpha  occ. eigenvalues --   -0.51460  -0.49559  -0.46794  -0.46172  -0.44222
 Alpha  occ. eigenvalues --   -0.41351  -0.40396
 Alpha virt. eigenvalues --    0.02770   0.03241   0.03559   0.03799   0.04672
 Alpha virt. eigenvalues --    0.05392   0.05638   0.06356   0.07458   0.08106
 Alpha virt. eigenvalues --    0.08182   0.09167   0.09492   0.09551   0.10538

 Mulliken charges:
               1
     1  B   -1.252922
     2  C   -0.213504
     3  C   -0.096255
     4  C   -0.096257
     5  C    0.066146
     6  H   -0.018130
     7  H    0.024559
     8  H    0.042085
     9  H    0.034066
    10  H    0.024557
    11  H   -0.018131
    12  Si   0.765953
    13  H   -0.037770
    14  H   -0.117325
    15  H   -0.117326
    16  H    0.459430
    17  H    0.550820
 Sum of Mulliken charges =  -0.00000

 Dipole moment (field-independent basis, Debye):
    X=             -0.8204    Y=              0.2592    Z=             -0.0000  Tot=              0.8603

 Test job not archived.
 1\1\GINC-SE328\SP\RHF\Aug-CC-pVDZ\C4H11B1Si1\OHZDE\09-Apr-2025\0\\#t h
 f aug-cc-pvdz iop(5/13=1,5/36=2,99/5=2) pseudo=read geom=check guess=(
 read,tcheck) scf=(maxcycle=1)\\title\\0,1\B,0,2.254839,1.321949,-0.000
 124\C,0,-0.381293,-0.67587,0.000057\C,0,-1.214499,0.082292,-1.086827\C
 ,0,-1.214494,0.082468,1.086821\C,0,-2.269842,0.417705,-0.000027\H,0,-0
 .706985,0.982822,1.445858\H,0,-1.542928,-0.495179,1.953084\H,0,-3.0906
 01,-0.303925,0.000033\H,0,-2.691989,1.425046,-0.000108\H,0,-1.542937,-
 0.495496,-1.952994\H,0,-0.706992,0.982588,-1.446011\Si,0,1.501691,-0.5

 Normal termination of Gaussian 16 at Wed Apr  9 00:46:29 2025.
