 Gaussian 16, Revision C.01,

 ----------------------------------------------------------------------
 #t hf aug-cc-pvdz symm=none int=(grid=ultrafine) guess=(read,tcheck) s
 table=(opt,rrhf)
 ----------------------------------------------------------------------
 -----
 title
 -----
 Symbolic Z-matrix:
 Charge =  0 Multiplicity = 1

 SCF Done:  E(RHF) =  -667.299825487     A.U. after   15 cycles
 Normal termination of Gaussian 16 at Tue Apr  8 22:46:10 2025.
 Gaussian 16:  ES64L-G16RevC.01  3-Jul-2019

 ----------------------------------------------------------------------
 #t hf aug-cc-pvdz iop(5/13=1,5/36=2,99/5=2) pseudo=read geom=check gue
 ss=(read,tcheck) scf=(maxcycle=1)
 ----------------------------------------------------------------------
 -----
 title
 -----
 Structure from the checkpoint file:  "BDE49_expt_1560_mol1.chk"
 Charge =  0 Multiplicity = 1

                         Standard orientation:
 ---------------------------------------------------------------------
 Center     Atomic      Atomic             Coordinates (Angstroms)
 Number     Number       Type             X           Y           Z
 ---------------------------------------------------------------------
      1          6           0       -1.995058    1.204806   -0.157033
      2          6           0       -0.663302    1.203630    0.248765
      3          6           0        0.016509   -0.000001    0.460429
      4          6           0       -0.663303   -1.203631    0.248764
      5          6           0       -1.995059   -1.204805   -0.157035
      6          6           0       -2.664749    0.000001   -0.360249
      7          1           0       -2.510051    2.146077   -0.312885
      8          1           0       -0.144366    2.143962    0.403070
      9          1           0       -0.144369   -2.143963    0.403068
     10          1           0       -2.510053   -2.146075   -0.312888
     11          1           0       -3.702317    0.000002   -0.674431
     12          6           0        1.458452   -0.000002    0.894957
     13         16           0        2.559824    0.000001   -0.600941
     14          1           0        1.682224   -0.888255    1.485694
     15          1           0        1.682224    0.888250    1.485697
     16          1           0        3.728579   -0.000000    0.066135
 ---------------------------------------------------------------------

 SCF Done:  E(RHF) =  -667.640778004     A.U. after    2 cycles

 The electronic state is 1-A.
 Alpha  occ. eigenvalues --  -93.94966 -11.28058 -11.25614 -11.24686 -11.24672
 Alpha  occ. eigenvalues --  -11.24579 -11.24555 -11.24522  -8.22985  -6.20830
 Alpha  occ. eigenvalues --   -6.20686  -6.20452  -1.16530  -1.08209  -1.02063
 Alpha  occ. eigenvalues --   -1.00449  -0.89795  -0.84133  -0.80783  -0.71205
 Alpha  occ. eigenvalues --   -0.66376  -0.65055  -0.60998  -0.60404  -0.58052
 Alpha  occ. eigenvalues --   -0.56986  -0.51381  -0.50600  -0.50121  -0.46647
 Alpha  occ. eigenvalues --   -0.36747  -0.34764  -0.34171
 Alpha virt. eigenvalues --    0.03334   0.03546   0.03669   0.04808   0.05198
 Alpha virt. eigenvalues --    0.05434   0.07511   0.08428   0.09365   0.10288
 Alpha virt. eigenvalues --    0.10318   0.10765   0.11669   0.12547   0.13679

 Mulliken charges:
               1
     1  C    0.249948
     2  C   -0.128101
     3  C    1.933747
     4  C   -0.128096
     5  C    0.249947
     6  C   -0.063759
     7  H   -0.221291
     8  H   -0.294744
     9  H   -0.294746
    10  H   -0.221291
    11  H   -0.214913
    12  C   -1.080767
    13  S   -0.096621
    14  H    0.011257
    15  H    0.011261
    16  H    0.288169
 Sum of Mulliken charges =  -0.00000

 Dipole moment (field-independent basis, Debye):
    X=             -0.3410    Y=             -0.0000    Z=              1.5853  Tot=              1.6215

 Test job not archived.
 1\1\GINC-SE361\SP\RHF\Aug-CC-pVDZ\C7H8S1\OHZDE\08-Apr-2025\0\\#t hf au
 g-cc-pvdz iop(5/13=1,5/36=2,99/5=2) pseudo=read geom=check guess=(read
 ,tcheck) scf=(maxcycle=1)\\title\\0,1\C,0,1.995058,-1.204806,-0.157033
 \C,0,0.663302,-1.20363,0.248765\C,0,-0.016509,0.000001,0.460429\C,0,0.
 663303,1.203631,0.248764\C,0,1.995059,1.204805,-0.157035\C,0,2.664749,
 -0.000001,-0.360249\H,0,2.510051,-2.146077,-0.312885\H,0,0.144366,-2.1
 43962,0.40307\H,0,0.144369,2.143963,0.403068\H,0,2.510053,2.146075,-0.
 312888\H,0,3.702317,-0.000002,-0.674431\C,0,-1.458452,0.000002,0.89495

 Normal termination of Gaussian 16 at Tue Apr  8 22:46:16 2025.
