 Gaussian 16, Revision C.01,

 ----------------------------------------------------------------------
 #t hf aug-cc-pvdz symm=none int=(grid=ultrafine) guess=(read,tcheck) s
 table=(opt,rrhf)
 ----------------------------------------------------------------------
 -----
 title
 -----
 Symbolic Z-matrix:
 Charge =  0 Multiplicity = 1

 SCF Done:  E(RHF) =  -611.077903702     A.U. after   15 cycles
 Normal termination of Gaussian 16 at Tue Apr  8 23:32:51 2025.
 Gaussian 16:  ES64L-G16RevC.01  3-Jul-2019

 ----------------------------------------------------------------------
 #t hf aug-cc-pvdz iop(5/13=1,5/36=2,99/5=2) pseudo=read geom=check gue
 ss=(read,tcheck) scf=(maxcycle=1)
 ----------------------------------------------------------------------
 -----
 title
 -----
 Structure from the checkpoint file:  "BDE49_nonexpt_1425_mol1.chk"
 Charge =  0 Multiplicity = 1

                         Standard orientation:
 ---------------------------------------------------------------------
 Center     Atomic      Atomic             Coordinates (Angstroms)
 Number     Number       Type             X           Y           Z
 ---------------------------------------------------------------------
      1          6           0       -1.865732   -1.313296    0.004632
      2          6           0       -0.482962   -1.471769    0.013891
      3          6           0        0.372385   -0.363274    0.013690
      4          6           0       -2.411525   -0.033606   -0.000964
      5          6           0       -1.568696    1.074304   -0.002276
      6          6           0       -0.178019    0.935298   -0.002451
      7          1           0       -2.509752   -2.185504    0.007459
      8          1           0       -0.064117   -2.472093    0.026658
      9         15           0        2.201309   -0.593191   -0.112676
     10          1           0       -1.995737    2.072099   -0.007323
     11          1           0       -3.486992    0.103638   -0.005216
     12          6           0        0.704037    2.159975    0.000999
     13          1           0        0.116599    3.067614   -0.147422
     14          1           0        1.458965    2.114623   -0.791030
     15          1           0        1.241237    2.264216    0.950238
     16          1           0        2.232441   -1.934577    0.341316
     17          1           0        2.570804   -0.057942    1.150330
 ---------------------------------------------------------------------

 SCF Done:  E(RHF) =  -611.405217414     A.U. after    2 cycles

 The electronic state is 1-A.
 Alpha  occ. eigenvalues --  -84.27526 -11.25444 -11.25086 -11.24700 -11.24460
 Alpha  occ. eigenvalues --  -11.24189 -11.24112 -11.23839  -6.74608  -4.27563
 Alpha  occ. eigenvalues --   -4.27254  -4.26450  -1.16084  -1.05243  -1.02566
 Alpha  occ. eigenvalues --   -0.94251  -0.87973  -0.82478  -0.78791  -0.69277
 Alpha  occ. eigenvalues --   -0.66021  -0.63050  -0.58964  -0.58843  -0.56575
 Alpha  occ. eigenvalues --   -0.54577  -0.51156  -0.50596  -0.49304  -0.47041
 Alpha  occ. eigenvalues --   -0.38193  -0.34123  -0.31402
 Alpha virt. eigenvalues --    0.03474   0.03677   0.03807   0.05002   0.05225
 Alpha virt. eigenvalues --    0.05807   0.07514   0.07768   0.08363   0.09363
 Alpha virt. eigenvalues --    0.10020   0.10608   0.10949   0.12184   0.12747

 Mulliken charges:
               1
     1  C    0.164446
     2  C   -0.086908
     3  C    0.030383
     4  C    0.004202
     5  C    0.829923
     6  C    0.223138
     7  H   -0.221697
     8  H   -0.285143
     9  P   -0.640001
    10  H   -0.296710
    11  H   -0.227521
    12  C   -0.853771
    13  H   -0.008677
    14  H    0.304766
    15  H    0.246536
    16  H    0.365640
    17  H    0.451393
 Sum of Mulliken charges =  -0.00000

 Dipole moment (field-independent basis, Debye):
    X=             -0.4732    Y=              0.2930    Z=              0.3889  Tot=              0.6790

 Test job not archived.
 1\1\GINC-SE252\SP\RHF\Aug-CC-pVDZ\C7H9P1\OHZDE\08-Apr-2025\0\\#t hf au
 g-cc-pvdz iop(5/13=1,5/36=2,99/5=2) pseudo=read geom=check guess=(read
 ,tcheck) scf=(maxcycle=1)\\title\\0,1\C,0,-1.865732,-1.313296,0.004632
 \C,0,-0.482962,-1.471769,0.013891\C,0,0.372385,-0.363274,0.01369\C,0,-
 2.411525,-0.033606,-0.000964\C,0,-1.568696,1.074304,-0.002276\C,0,-0.1
 78019,0.935298,-0.002451\H,0,-2.509751,-2.185504,0.007459\H,0,-0.06411
 6,-2.472093,0.026658\P,0,2.201309,-0.593191,-0.112676\H,0,-1.995737,2.
 072099,-0.007323\H,0,-3.486992,0.103637,-0.005216\C,0,0.704037,2.15997

 Normal termination of Gaussian 16 at Tue Apr  8 23:32:58 2025.
