 Gaussian 16, Revision C.01,

 ----------------------------------------------------------------------
 #t hf aug-cc-pvdz symm=none int=(grid=ultrafine) guess=(read,tcheck) s
 table=opt
 ----------------------------------------------------------------------
 -----
 title
 -----
 Symbolic Z-matrix:
 Charge =  0 Multiplicity = 2

 SCF Done:  E(UHF) =  -564.645131786     A.U. after   24 cycles
 Normal termination of Gaussian 16 at Wed Apr  9 00:18:56 2025.
 Gaussian 16:  ES64L-G16RevC.01  3-Jul-2019

 ----------------------------------------------------------------------
 #t hf aug-cc-pvdz iop(5/13=1,5/36=2,99/5=2) pseudo=read geom=check gue
 ss=(read,tcheck) scf=(maxcycle=1)
 ----------------------------------------------------------------------
 -----
 title
 -----
 Structure from the checkpoint file:  "BDE49_nonexpt_2582_mol2.chk"
 Charge =  0 Multiplicity = 2

                         Standard orientation:
 ---------------------------------------------------------------------
 Center     Atomic      Atomic             Coordinates (Angstroms)
 Number     Number       Type             X           Y           Z
 ---------------------------------------------------------------------
      1         16           0       -1.405583   -0.257625    0.000000
      2          6           0        1.155843    0.122723    0.000000
      3          7           0        2.222038   -0.325577    0.000000
      4          8           0        0.000000    0.708087    0.000000
 ---------------------------------------------------------------------

 SCF Done:  E(UHF) =  -564.851565715     A.U. after    2 cycles

 The electronic state is 2-A".
 Alpha  occ. eigenvalues --  -94.08738 -20.69539 -15.52941 -11.36053  -8.36082
 Alpha  occ. eigenvalues --   -6.35151  -6.33511  -6.33001  -1.60690  -1.24908
 Alpha  occ. eigenvalues --   -1.06948  -0.81380  -0.71884  -0.69353  -0.62427
 Alpha  occ. eigenvalues --   -0.53852  -0.50615  -0.47289  -0.45497
 Alpha virt. eigenvalues --    0.02323   0.05950   0.08368   0.08697   0.10329
 Alpha virt. eigenvalues --    0.11950   0.12767   0.13435   0.18122   0.18867
 Alpha virt. eigenvalues --    0.20297   0.21935   0.22240   0.22973   0.26742

  Beta  occ. eigenvalues --  -94.07833 -20.69104 -15.52841 -11.36143  -8.35046
  Beta  occ. eigenvalues --   -6.33095  -6.32471  -6.31031  -1.59501  -1.24705
  Beta  occ. eigenvalues --   -1.00022  -0.79081  -0.67960  -0.67676  -0.62231
  Beta  occ. eigenvalues --   -0.50412  -0.49267  -0.43413
  Beta virt. eigenvalues --   -0.04376   0.03401   0.06083   0.08834   0.09759
  Beta virt. eigenvalues --    0.10624   0.12109   0.13598   0.13911   0.18171
  Beta virt. eigenvalues --    0.19125   0.20439   0.22723   0.22917   0.23112

 Mulliken charges and spin densities:
               1          2
     1  S    0.673085   0.974045
     2  C   -0.268948  -0.028726
     3  N    0.596059   0.029108
     4  O   -1.000195   0.025572
 Sum of Mulliken charges =  -0.00000   1.00000

 Dipole moment (field-independent basis, Debye):
    X=             -4.3915    Y=              0.4547    Z=              0.0000  Tot=              4.4150
                          Isotropic Fermi Contact Couplings
        Atom                 a.u.       MegaHertz       Gauss      10(-4) cm-1
     1  S(33)              0.19700      67.66467      24.14444      22.57050
     2  C(13)             -0.01130     -12.70250      -4.53257      -4.23710
     3  N(14)              0.00795       2.56849       0.91650       0.85676
     4  O(17)              0.04351     -26.37303      -9.41055      -8.79709
 --------------------------------------------------------
       Center         ----  Spin Dipole Couplings  ----
                      3XX-RR        3YY-RR        3ZZ-RR
 --------------------------------------------------------

 Normal termination of Gaussian 16 at Wed Apr  9 00:18:58 2025.
