 Gaussian 16, Revision C.01,

 ----------------------------------------------------------------------
 #t hf aug-cc-pvdz symm=none int=(grid=ultrafine) guess=(read,tcheck) s
 table=(opt,rrhf)
 ----------------------------------------------------------------------
 -----
 title
 -----
 Symbolic Z-matrix:
 Charge =  0 Multiplicity = 1

 SCF Done:  E(RHF) =  -475.584775288     A.U. after   12 cycles
 Normal termination of Gaussian 16 at Tue Apr  8 23:33:04 2025.
 Gaussian 16:  ES64L-G16RevC.01  3-Jul-2019

 ----------------------------------------------------------------------
 #t hf aug-cc-pvdz iop(5/13=1,5/36=2,99/5=2) pseudo=read geom=check gue
 ss=(read,tcheck) scf=(maxcycle=1)
 ----------------------------------------------------------------------
 -----
 title
 -----
 Structure from the checkpoint file:  "BDE49_nonexpt_1452_mol1.chk"
 Charge =  0 Multiplicity = 1

                         Standard orientation:
 ---------------------------------------------------------------------
 Center     Atomic      Atomic             Coordinates (Angstroms)
 Number     Number       Type             X           Y           Z
 ---------------------------------------------------------------------
      1          7           0       -2.382579   -0.124073   -0.096190
      2          6           0       -1.052258    0.482882    0.044103
      3          6           0        0.033921   -0.589369   -0.049716
      4          1           0       -0.923020    1.193990   -0.777572
      5          1           0       -2.601391   -0.678199    0.726979
      6          1           0       -3.093504    0.598574   -0.153945
      7         15           0        1.808044   -0.007050   -0.001206
      8          1           0       -0.075262   -1.311477    0.768078
      9          1           0       -0.097652   -1.157427   -0.975319
     10          1           0       -0.915877    1.051896    0.977950
     11          1           0        1.689171    0.872364    1.108922
     12          1           0        1.684941    1.043465   -0.949995
 ---------------------------------------------------------------------

 SCF Done:  E(RHF) =  -475.779612085     A.U. after    2 cycles

 The electronic state is 1-A.
 Alpha  occ. eigenvalues --  -84.26782 -15.48890 -11.26510 -11.24102  -6.73855
 Alpha  occ. eigenvalues --   -4.26265  -4.26136  -4.25629  -1.18273  -1.01721
 Alpha  occ. eigenvalues --   -0.86935  -0.79441  -0.69305  -0.65179  -0.61361
 Alpha  occ. eigenvalues --   -0.55145  -0.51860  -0.48042  -0.46175  -0.43388
 Alpha  occ. eigenvalues --   -0.34134
 Alpha virt. eigenvalues --    0.03349   0.04499   0.04803   0.05182   0.06733
 Alpha virt. eigenvalues --    0.06907   0.07216   0.09372   0.10489   0.11188
 Alpha virt. eigenvalues --    0.12108   0.12795   0.14231   0.15751   0.16698

 Mulliken charges:
               1
     1  N    0.186879
     2  C   -0.680747
     3  C   -0.756689
     4  H    0.082065
     5  H    0.121559
     6  H    0.125664
     7  P   -0.293902
     8  H    0.176778
     9  H    0.217666
    10  H    0.101306
    11  H    0.361863
    12  H    0.357558
 Sum of Mulliken charges =  -0.00000

 Dipole moment (field-independent basis, Debye):
    X=             -0.9441    Y=              0.8829    Z=              1.1194  Tot=              1.7099

 Test job not archived.
 1\1\GINC-SE363\SP\RHF\Aug-CC-pVDZ\C2H8N1P1\OHZDE\08-Apr-2025\0\\#t hf
 aug-cc-pvdz iop(5/13=1,5/36=2,99/5=2) pseudo=read geom=check guess=(re
 ad,tcheck) scf=(maxcycle=1)\\title\\0,1\N,0,-2.382579,-0.124073,-0.096
 19\C,0,-1.052258,0.482882,0.044103\C,0,0.033921,-0.589369,-0.049716\H,
 0,-0.92302,1.19399,-0.777572\H,0,-2.601391,-0.678199,0.726979\H,0,-3.0
 93504,0.598574,-0.153945\P,0,1.808044,-0.00705,-0.001206\H,0,-0.075262
 ,-1.311477,0.768078\H,0,-0.097652,-1.157427,-0.975319\H,0,-0.915877,1.
 051896,0.97795\H,0,1.689171,0.872364,1.108922\H,0,1.684941,1.043465,-0

 Normal termination of Gaussian 16 at Tue Apr  8 23:33:07 2025.
