 Gaussian 16, Revision C.01,

 ----------------------------------------------------------------------
 #t hf aug-cc-pvdz symm=none int=(grid=ultrafine) guess=(read,tcheck) s
 table=(opt,rrhf)
 ----------------------------------------------------------------------
 -----
 title
 -----
 Symbolic Z-matrix:
 Charge =  0 Multiplicity = 1

 SCF Done:  E(RHF) =  -1177.88617422     A.U. after   14 cycles
 Normal termination of Gaussian 16 at Wed Apr  9 00:28:22 2025.
 Gaussian 16:  ES64L-G16RevC.01  3-Jul-2019

 ----------------------------------------------------------------------
 #t hf aug-cc-pvdz iop(5/13=1,5/36=2,99/5=2) pseudo=read geom=check gue
 ss=(read,tcheck) scf=(maxcycle=1)
 ----------------------------------------------------------------------
 -----
 title
 -----
 Structure from the checkpoint file:  "BDE49_nonexpt_2751_mol1.chk"
 Charge =  0 Multiplicity = 1

                         Standard orientation:
 ---------------------------------------------------------------------
 Center     Atomic      Atomic             Coordinates (Angstroms)
 Number     Number       Type             X           Y           Z
 ---------------------------------------------------------------------
      1         16           0       -0.865281    1.284867    0.562751
      2         16           0        0.865270    1.284841   -0.562822
      3          6           0        1.800802   -0.124518    0.172936
      4          6           0       -1.800790   -0.124564   -0.172899
      5          8           0       -1.390845   -0.774091   -1.087350
      6          8           0        1.390915   -0.773915    1.087506
      7          6           0        4.110418   -1.173381    0.252598
      8          6           0       -4.110416   -1.173402   -0.252597
      9          1           0       -5.004691   -1.376821    0.340211
     10          1           0       -3.674516   -2.123538   -0.563248
     11          1           0       -4.411947   -0.634601   -1.153436
     12          1           0        5.004640   -1.376904   -0.340255
     13          1           0        3.674527   -2.123463    0.563426
     14          1           0        4.412034   -0.634451    1.153331
     15          6           0       -3.107010   -0.359779    0.565529
     16          6           0        3.106958   -0.359862   -0.565565
     17          1           0       -2.840830   -0.887228    1.489575
     18          1           0       -3.524427    0.603167    0.876097
     19          1           0        3.524365    0.603031   -0.876311
     20          1           0        2.840693   -0.887445   -1.489510
 ---------------------------------------------------------------------

 SCF Done:  E(RHF) =  -1178.39680791     A.U. after    2 cycles

 The electronic state is 1-A.
 Alpha  occ. eigenvalues --  -93.99002 -93.98993 -20.55970 -20.55969 -11.38147
 Alpha  occ. eigenvalues --  -11.38145 -11.26703 -11.26702 -11.24108 -11.24106
 Alpha  occ. eigenvalues --   -8.27038  -8.27013  -6.24839  -6.24796  -6.24599
 Alpha  occ. eigenvalues --   -6.24588  -6.24386  -6.24385  -1.50352  -1.50185
 Alpha  occ. eigenvalues --   -1.12178  -1.08390  -1.06660  -0.97670  -0.91090
 Alpha  occ. eigenvalues --   -0.87158  -0.76177  -0.74118  -0.67954  -0.66810
 Alpha  occ. eigenvalues --   -0.66074  -0.65342  -0.64816  -0.61077  -0.57043
 Alpha  occ. eigenvalues --   -0.56289  -0.56062  -0.54806  -0.53631  -0.53296
 Alpha  occ. eigenvalues --   -0.51169  -0.50886  -0.48376  -0.42969  -0.42432
 Alpha  occ. eigenvalues --   -0.39069  -0.37556
 Alpha virt. eigenvalues --    0.03487   0.03560   0.04383   0.04546   0.05035
 Alpha virt. eigenvalues --    0.05108   0.05587   0.07076   0.07519   0.07726
 Alpha virt. eigenvalues --    0.08850   0.09432   0.10298   0.11578   0.11857

 Mulliken charges:
               1
     1  S    0.079691
     2  S    0.079691
     3  C    1.026233
     4  C    1.026195
     5  O   -1.232602
     6  O   -1.232617
     7  C   -0.312865
     8  C   -0.312867
     9  H    0.143745
    10  H    0.187790
    11  H    0.160907
    12  H    0.143748
    13  H    0.187790
    14  H    0.160906
    15  C   -0.605765
    16  C   -0.605762
    17  H    0.306805
    18  H    0.246085
    19  H    0.246084
    20  H    0.306806
 Sum of Mulliken charges =  -0.00000

 Dipole moment (field-independent basis, Debye):
    X=             -0.0001    Y=              0.0408    Z=             -0.0002  Tot=              0.0408

 Test job not archived.
 1\1\GINC-SE095\SP\RHF\Aug-CC-pVDZ\C6H10O2S2\OHZDE\09-Apr-2025\0\\#t hf
  aug-cc-pvdz iop(5/13=1,5/36=2,99/5=2) pseudo=read geom=check guess=(r
 ead,tcheck) scf=(maxcycle=1)\\title\\0,1\S,0,-0.865281,1.284867,0.5627
 51\S,0,0.86527,1.284841,-0.562822\C,0,1.800802,-0.124518,0.172936\C,0,
 -1.80079,-0.124564,-0.172899\O,0,-1.390845,-0.774091,-1.08735\O,0,1.39
 0915,-0.773915,1.087506\C,0,4.110418,-1.173381,0.252598\C,0,-4.110416,
 -1.173402,-0.252597\H,0,-5.004691,-1.376821,0.340211\H,0,-3.674516,-2.
 123538,-0.563248\H,0,-4.411947,-0.634601,-1.153436\H,0,5.00464,-1.3769

 Normal termination of Gaussian 16 at Wed Apr  9 00:28:33 2025.
