 Gaussian 16, Revision C.01,

 ----------------------------------------------------------------------
 #t hf aug-cc-pvdz symm=none int=(grid=ultrafine) guess=(read,tcheck) s
 table=(opt,rrhf)
 ----------------------------------------------------------------------
 -----
 title
 -----
 Symbolic Z-matrix:
 Charge =  0 Multiplicity = 1

 SCF Done:  E(RHF) =  -419.357446417     A.U. after   12 cycles
 Normal termination of Gaussian 16 at Tue Apr  8 23:25:56 2025.
 Gaussian 16:  ES64L-G16RevC.01  3-Jul-2019

 ----------------------------------------------------------------------
 #t hf aug-cc-pvdz iop(5/13=1,5/36=2,99/5=2) pseudo=read geom=check gue
 ss=(read,tcheck) scf=(maxcycle=1)
 ----------------------------------------------------------------------
 -----
 title
 -----
 Structure from the checkpoint file:  "BDE49_nonexpt_1289_mol1.chk"
 Charge =  0 Multiplicity = 1

                         Standard orientation:
 ---------------------------------------------------------------------
 Center     Atomic      Atomic             Coordinates (Angstroms)
 Number     Number       Type             X           Y           Z
 ---------------------------------------------------------------------
      1         15           0       -1.111296    0.053035   -0.110733
      2          6           0        0.628321   -0.504376    0.011226
      3          6           0        1.710022    0.272150    0.017160
      4          1           0        0.752102   -1.585035   -0.031442
      5          1           0        1.643331    1.355058    0.048589
      6          1           0        2.709130   -0.151091   -0.009574
      7          1           0       -0.912935    1.387974    0.324770
      8          1           0       -1.552239   -0.409082    1.158330
 ---------------------------------------------------------------------

 SCF Done:  E(RHF) =  -419.486826288     A.U. after    2 cycles

 The electronic state is 1-A.
 Alpha  occ. eigenvalues --  -84.27647 -11.25453 -11.24829  -6.74774  -4.27321
 Alpha  occ. eigenvalues --   -4.27098  -4.26386  -1.05656  -0.87932  -0.76146
 Alpha  occ. eigenvalues --   -0.64258  -0.58780  -0.50537  -0.47806  -0.41563
 Alpha  occ. eigenvalues --   -0.33058
 Alpha virt. eigenvalues --    0.03782   0.04592   0.04734   0.06450   0.07756
 Alpha virt. eigenvalues --    0.08672   0.09772   0.11455   0.11719   0.13983
 Alpha virt. eigenvalues --    0.15031   0.15437   0.16684   0.17896   0.18996

 Mulliken charges:
               1
     1  P   -0.323772
     2  C   -0.175922
     3  C   -0.046981
     4  H   -0.164877
     5  H   -0.062415
     6  H   -0.053193
     7  H    0.366168
     8  H    0.460992
 Sum of Mulliken charges =   0.00000

 Dipole moment (field-independent basis, Debye):
    X=              0.5457    Y=              0.0057    Z=              0.3958  Tot=              0.6741

 Test job not archived.
 1\1\GINC-SE461\SP\RHF\Aug-CC-pVDZ\C2H5P1\OHZDE\08-Apr-2025\0\\#t hf au
 g-cc-pvdz iop(5/13=1,5/36=2,99/5=2) pseudo=read geom=check guess=(read
 ,tcheck) scf=(maxcycle=1)\\title\\0,1\P,0,-1.111296,0.053035,-0.110733
 \C,0,0.628321,-0.504376,0.011226\C,0,1.710022,0.27215,0.01716\H,0,0.75
 2103,-1.585035,-0.031442\H,0,1.643331,1.355058,0.048589\H,0,2.70913,-0
 .151091,-0.009574\H,0,-0.912935,1.387974,0.32477\H,0,-1.552239,-0.4090
 83,1.15833\\Version=ES64L-G16RevC.01\State=1-A\HF=-419.4868263\RMSD=3.
 851e-02\Dipole=0.2146888,0.0022495,0.1557124\Quadrupole=0.40615,1.7833

 Normal termination of Gaussian 16 at Tue Apr  8 23:25:58 2025.
