 Gaussian 16, Revision C.01,

 ----------------------------------------------------------------------
 #t hf aug-cc-pvdz symm=none int=(grid=ultrafine) guess=(read,tcheck) s
 table=(opt,rrhf)
 ----------------------------------------------------------------------
 -----
 title
 -----
 Symbolic Z-matrix:
 Charge =  0 Multiplicity = 1

 SCF Done:  E(RHF) =  -433.601383899     A.U. after   13 cycles
 Normal termination of Gaussian 16 at Wed Apr  9 00:45:14 2025.
 Gaussian 16:  ES64L-G16RevC.01  3-Jul-2019

 ----------------------------------------------------------------------
 #t hf aug-cc-pvdz iop(5/13=1,5/36=2,99/5=2) pseudo=read geom=check gue
 ss=(read,tcheck) scf=(maxcycle=1)
 ----------------------------------------------------------------------
 -----
 title
 -----
 Structure from the checkpoint file:  "BDE49_nonexpt_771_mol1.chk"
 Charge =  0 Multiplicity = 1

                         Standard orientation:
 ---------------------------------------------------------------------
 Center     Atomic      Atomic             Coordinates (Angstroms)
 Number     Number       Type             X           Y           Z
 ---------------------------------------------------------------------
      1          5           0       -1.315978    1.604646    0.133219
      2         14           0       -1.342629   -0.389726   -0.147848
      3          6           0        1.770262    0.953099    0.012937
      4          6           0        0.318168   -1.128786    0.428201
      5          6           0        1.561671   -0.538090   -0.261562
      6          1           0        0.275444   -2.210657    0.261060
      7          1           0        0.393317   -0.989041    1.513443
      8          1           0        1.498991   -0.704530   -1.342998
      9          1           0        2.451784   -1.082374    0.075396
     10          1           0        1.852177    1.154779    1.084569
     11          1           0        0.939399    1.560939   -0.378327
     12          1           0        2.675766    1.328982   -0.470864
     13          1           0       -1.376025    2.395987   -0.757081
     14          1           0       -1.228245    2.040118    1.241102
     15          1           0       -1.572767   -0.782028   -1.564031
     16          1           0       -2.433756   -0.996580    0.664044
 ---------------------------------------------------------------------

 SCF Done:  E(RHF) =  -433.797634214     A.U. after    2 cycles

 The electronic state is 1-A.
 Alpha  occ. eigenvalues --  -69.50423 -11.23826 -11.23558 -11.22005  -7.60171
 Alpha  occ. eigenvalues --   -6.17689  -3.93042  -3.93023  -3.93002  -1.06368
 Alpha  occ. eigenvalues --   -0.93477  -0.81924  -0.74202  -0.65931  -0.62588
 Alpha  occ. eigenvalues --   -0.61487  -0.56681  -0.51984  -0.51228  -0.49878
 Alpha  occ. eigenvalues --   -0.48720  -0.45693  -0.43659  -0.40534
 Alpha virt. eigenvalues --    0.02983   0.03518   0.03759   0.03883   0.05179
 Alpha virt. eigenvalues --    0.05866   0.06186   0.06708   0.06951   0.07755
 Alpha virt. eigenvalues --    0.09313   0.09810   0.10079   0.10509   0.11030

 Mulliken charges:
               1
     1  B   -1.277933
     2  Si   0.916142
     3  C   -0.286849
     4  C   -0.480625
     5  C   -0.353158
     6  H    0.021662
     7  H    0.123324
     8  H    0.132784
     9  H    0.130821
    10  H    0.138972
    11  H    0.118435
    12  H    0.105116
    13  H    0.478079
    14  H    0.510227
    15  H   -0.099654
    16  H   -0.177340
 Sum of Mulliken charges =  -0.00000

 Dipole moment (field-independent basis, Debye):
    X=              0.9283    Y=             -0.0218    Z=              0.2020  Tot=              0.9503

 Test job not archived.
 1\1\GINC-SE009\SP\RHF\Aug-CC-pVDZ\C3H11B1Si1\OHZDE\09-Apr-2025\0\\#t h
 f aug-cc-pvdz iop(5/13=1,5/36=2,99/5=2) pseudo=read geom=check guess=(
 read,tcheck) scf=(maxcycle=1)\\title\\0,1\B,0,-1.315978,1.604646,0.133
 219\Si,0,-1.342629,-0.389726,-0.147848\C,0,1.770262,0.953099,0.012937\
 C,0,0.318168,-1.128786,0.428201\C,0,1.561671,-0.53809,-0.261562\H,0,0.
 275444,-2.210657,0.26106\H,0,0.393317,-0.989041,1.513443\H,0,1.498991,
 -0.70453,-1.342998\H,0,2.451784,-1.082374,0.075396\H,0,1.852177,1.1547
 79,1.084569\H,0,0.939399,1.560939,-0.378327\H,0,2.675766,1.328982,-0.4

 Normal termination of Gaussian 16 at Wed Apr  9 00:45:19 2025.
