 Gaussian 16, Revision C.01,

 ----------------------------------------------------------------------
 #t hf aug-cc-pvdz symm=none int=(grid=ultrafine) guess=(read,tcheck) s
 table=opt
 ----------------------------------------------------------------------
 -----
 title
 -----
 Symbolic Z-matrix:
 Charge =  0 Multiplicity = 2

 SCF Done:  E(UHF) =  -188.162849537     A.U. after   17 cycles
 Normal termination of Gaussian 16 at Tue Apr  8 22:36:21 2025.
 Gaussian 16:  ES64L-G16RevC.01  3-Jul-2019

 ----------------------------------------------------------------------
 #t hf aug-cc-pvdz iop(5/13=1,5/36=2,99/5=2) pseudo=read geom=check gue
 ss=(read,tcheck) scf=(maxcycle=1)
 ----------------------------------------------------------------------
 -----
 title
 -----
 Structure from the checkpoint file:  "BDE49_expt_1111_mol3.chk"
 Charge =  0 Multiplicity = 2

                         Standard orientation:
 ---------------------------------------------------------------------
 Center     Atomic      Atomic             Coordinates (Angstroms)
 Number     Number       Type             X           Y           Z
 ---------------------------------------------------------------------
      1          6           0        0.000000    0.412256   -0.000000
      2          8           0        1.167476    0.254210    0.000000
      3          8           0       -0.941521   -0.548178   -0.000000
      4          1           0       -1.807641   -0.121792   -0.000000
 ---------------------------------------------------------------------

 SCF Done:  E(UHF) =  -188.340582165     A.U. after    2 cycles

 The electronic state is 2-A'.
 Alpha  occ. eigenvalues --  -20.64643 -20.59212 -11.42001  -1.58793  -1.51441
 Alpha  occ. eigenvalues --   -0.88013  -0.76624  -0.71255  -0.65844  -0.60483
 Alpha  occ. eigenvalues --   -0.51594  -0.41802
 Alpha virt. eigenvalues --    0.02702   0.08602   0.09009   0.09813   0.13372
 Alpha virt. eigenvalues --    0.15714   0.17961   0.19815   0.21843   0.25125
 Alpha virt. eigenvalues --    0.27296   0.28018   0.30215   0.35295   0.36342

  Beta  occ. eigenvalues --  -20.63778 -20.58238 -11.39848  -1.55960  -1.48763
  Beta  occ. eigenvalues --   -0.84936  -0.69764  -0.66308  -0.64632  -0.51909
  Beta  occ. eigenvalues --   -0.51715
  Beta virt. eigenvalues --    0.01864   0.06347   0.08903   0.09543   0.10409
  Beta virt. eigenvalues --    0.17088   0.18202   0.19463   0.20095   0.21909
  Beta virt. eigenvalues --    0.25525   0.27486   0.28241   0.30366   0.36018

 Mulliken charges and spin densities:
               1          2
     1  C    1.136055   0.771851
     2  O   -0.682458   0.140488
     3  O   -0.921177   0.137771
     4  H    0.467580  -0.050110
 Sum of Mulliken charges =  -0.00000   1.00000

 Dipole moment (field-independent basis, Debye):
    X=             -3.2614    Y=              0.6065    Z=             -0.0000  Tot=              3.3173
                          Isotropic Fermi Contact Couplings
        Atom                 a.u.       MegaHertz       Gauss      10(-4) cm-1
     1  C(13)              0.46336     520.90203     185.87080     173.75421
     2  O(17)              0.10008     -60.66953     -21.64840     -20.23718
     3  O(17)              0.07804     -47.30887     -16.88098     -15.78054
     4  H(1)              -0.00207      -9.25900      -3.30384      -3.08847
 --------------------------------------------------------
       Center         ----  Spin Dipole Couplings  ----
                      3XX-RR        3YY-RR        3ZZ-RR
 --------------------------------------------------------

 Normal termination of Gaussian 16 at Tue Apr  8 22:36:23 2025.
