 Gaussian 16, Revision C.01,

 ----------------------------------------------------------------------
 #t hf aug-cc-pvdz symm=none int=(grid=ultrafine) guess=(read,tcheck) s
 table=(opt,rrhf)
 ----------------------------------------------------------------------
 -----
 title
 -----
 Symbolic Z-matrix:
 Charge =  0 Multiplicity = 1

 SCF Done:  E(RHF) =  -547.141884624     A.U. after   13 cycles
 Normal termination of Gaussian 16 at Tue Apr  8 23:38:07 2025.
 Gaussian 16:  ES64L-G16RevC.01  3-Jul-2019

 ----------------------------------------------------------------------
 #t hf aug-cc-pvdz iop(5/13=1,5/36=2,99/5=2) pseudo=read geom=check gue
 ss=(read,tcheck) scf=(maxcycle=1)
 ----------------------------------------------------------------------
 -----
 title
 -----
 Structure from the checkpoint file:  "BDE49_nonexpt_1561_mol1.chk"
 Charge =  0 Multiplicity = 1

                         Standard orientation:
 ---------------------------------------------------------------------
 Center     Atomic      Atomic             Coordinates (Angstroms)
 Number     Number       Type             X           Y           Z
 ---------------------------------------------------------------------
      1         15           0       -1.295282   -0.121445   -0.017726
      2          7           0        0.423679    0.014121   -0.417292
      3          8           0        1.027600   -1.134136    0.200670
      4          8           0        0.980783    1.166756    0.205788
      5          1           0        1.643230    1.462452   -0.431290
      6          1           0        1.612691   -1.468776   -0.489033
      7          1           0       -1.620479    1.174366   -0.488468
      8          1           0       -1.239020    0.293827    1.344063
 ---------------------------------------------------------------------

 SCF Done:  E(RHF) =  -547.389357204     A.U. after    2 cycles

 The electronic state is 1-A.
 Alpha  occ. eigenvalues --  -84.30319 -20.59555 -20.59534 -15.61791  -6.77162
 Alpha  occ. eigenvalues --   -4.30021  -4.29280  -4.28839  -1.53914  -1.44802
 Alpha  occ. eigenvalues --   -1.07356  -0.84204  -0.73601  -0.72443  -0.64945
 Alpha  occ. eigenvalues --   -0.61319  -0.52038  -0.50577  -0.48678  -0.44604
 Alpha  occ. eigenvalues --   -0.36578
 Alpha virt. eigenvalues --    0.03397   0.05339   0.05543   0.07361   0.08097
 Alpha virt. eigenvalues --    0.10096   0.10653   0.13631   0.16074   0.18005
 Alpha virt. eigenvalues --    0.18399   0.19146   0.19440   0.21812   0.22118

 Mulliken charges:
               1
     1  P   -0.189066
     2  N    0.908543
     3  O   -0.941616
     4  O   -0.969532
     5  H    0.303321
     6  H    0.302453
     7  H    0.260209
     8  H    0.325688
 Sum of Mulliken charges =  -0.00000

 Dipole moment (field-independent basis, Debye):
    X=              0.7375    Y=              0.3544    Z=             -1.4091  Tot=              1.6295

 Test job not archived.
 1\1\GINC-SE016\SP\RHF\Aug-CC-pVDZ\H4N1O2P1\OHZDE\08-Apr-2025\0\\#t hf
 aug-cc-pvdz iop(5/13=1,5/36=2,99/5=2) pseudo=read geom=check guess=(re
 ad,tcheck) scf=(maxcycle=1)\\title\\0,1\P,0,-1.295282,-0.121445,-0.017
 726\N,0,0.423679,0.014121,-0.417292\O,0,1.0276,-1.134136,0.20067\O,0,0
 .980783,1.166756,0.205788\H,0,1.64323,1.462452,-0.43129\H,0,1.612691,-
 1.468776,-0.489033\H,0,-1.620479,1.174366,-0.488468\H,0,-1.23902,0.293
 827,1.344063\\Version=ES64L-G16RevC.01\State=1-A\HF=-547.3893572\RMSD=
 2.350e-02\Dipole=0.2901674,0.1394401,-0.5543852\Quadrupole=2.7773988,-

 Normal termination of Gaussian 16 at Tue Apr  8 23:38:09 2025.
