 Gaussian 16, Revision C.01,

 ----------------------------------------------------------------------
 #t hf aug-cc-pvdz symm=none int=(grid=ultrafine) guess=(read,tcheck) s
 table=(opt,rrhf)
 ----------------------------------------------------------------------
 -----
 title
 -----
 Symbolic Z-matrix:
 Charge =  0 Multiplicity = 1

 SCF Done:  E(RHF) =  -365.829071771     A.U. after   14 cycles
 Normal termination of Gaussian 16 at Wed Apr  9 00:36:10 2025.
 Gaussian 16:  ES64L-G16RevC.01  3-Jul-2019

 ----------------------------------------------------------------------
 #t hf aug-cc-pvdz iop(5/13=1,5/36=2,99/5=2) pseudo=read geom=check gue
 ss=(read,tcheck) scf=(maxcycle=1)
 ----------------------------------------------------------------------
 -----
 title
 -----
 Structure from the checkpoint file:  "BDE49_nonexpt_512_mol1.chk"
 Charge =  0 Multiplicity = 1

                         Standard orientation:
 ---------------------------------------------------------------------
 Center     Atomic      Atomic             Coordinates (Angstroms)
 Number     Number       Type             X           Y           Z
 ---------------------------------------------------------------------
      1          1           0       -3.004326   -0.595602   -1.421024
      2          5           0       -2.538134   -0.812145   -0.351094
      3          1           0       -3.060869   -1.551298    0.416687
      4          6           0       -1.274755   -0.003423    0.100643
      5          8           0       -1.423448    1.060093    0.636868
      6          8           0       -0.050402   -0.618571   -0.102621
      7          6           0        1.160363    0.103479   -0.146624
      8          8           0        1.228959    1.229465   -0.520976
      9          6           0        2.288865   -0.787503    0.287452
     10          1           0        2.266935   -1.722674   -0.275508
     11          1           0        2.165211   -1.038952    1.344008
     12          1           0        3.236005   -0.273964    0.136315
 ---------------------------------------------------------------------

 SCF Done:  E(RHF) =  -366.187419688     A.U. after    2 cycles

 The electronic state is 1-A.
 Alpha  occ. eigenvalues --  -20.61692 -20.56088 -20.55837 -11.41556 -11.39277
 Alpha  occ. eigenvalues --  -11.26920  -7.64191  -1.57436  -1.50412  -1.46672
 Alpha  occ. eigenvalues --   -1.05354  -0.92697  -0.80370  -0.74438  -0.71052
 Alpha  occ. eigenvalues --   -0.68992  -0.66941  -0.62217  -0.61397  -0.59823
 Alpha  occ. eigenvalues --   -0.57080  -0.54975  -0.51673  -0.48011  -0.47601
 Alpha  occ. eigenvalues --   -0.43049
 Alpha virt. eigenvalues --    0.02396   0.03446   0.04067   0.04440   0.05579
 Alpha virt. eigenvalues --    0.05786   0.06686   0.08118   0.09638   0.10686
 Alpha virt. eigenvalues --    0.11364   0.11998   0.12734   0.13665   0.14313

 Mulliken charges:
               1
     1  H    0.378321
     2  B   -0.705009
     3  H    0.353229
     4  C    1.636632
     5  O   -1.052443
     6  O   -1.321947
     7  C    1.745504
     8  O   -1.113782
     9  C   -0.601811
    10  H    0.243163
    11  H    0.247699
    12  H    0.190443
 Sum of Mulliken charges =  -0.00000

 Dipole moment (field-independent basis, Debye):
    X=              0.6833    Y=             -4.0551    Z=             -0.0957  Tot=              4.1134

 Test job not archived.
 1\1\GINC-SE143\SP\RHF\Aug-CC-pVDZ\C3H5B1O3\OHZDE\09-Apr-2025\0\\#t hf
 aug-cc-pvdz iop(5/13=1,5/36=2,99/5=2) pseudo=read geom=check guess=(re
 ad,tcheck) scf=(maxcycle=1)\\title\\0,1\H,0,-3.004326,-0.595602,-1.421
 024\B,0,-2.538134,-0.812145,-0.351094\H,0,-3.060869,-1.551298,0.416687
 \C,0,-1.274755,-0.003423,0.100643\O,0,-1.423448,1.060093,0.636868\O,0,
 -0.050402,-0.618571,-0.102621\C,0,1.160363,0.103479,-0.146624\O,0,1.22
 8959,1.229465,-0.520976\C,0,2.288865,-0.787503,0.287452\H,0,2.266935,-
 1.722674,-0.275508\H,0,2.165211,-1.038952,1.344008\H,0,3.236005,-0.273

 Normal termination of Gaussian 16 at Wed Apr  9 00:36:15 2025.
