 Gaussian 16, Revision C.01,

 ----------------------------------------------------------------------
 #t hf aug-cc-pvdz symm=none int=(grid=ultrafine) guess=(read,tcheck) s
 table=(opt,rrhf)
 ----------------------------------------------------------------------
 -----
 title
 -----
 Symbolic Z-matrix:
 Charge =  0 Multiplicity = 1

 SCF Done:  E(RHF) =  -1109.54312310     A.U. after   14 cycles
 Normal termination of Gaussian 16 at Tue Apr  8 22:40:09 2025.
 Gaussian 16:  ES64L-G16RevC.01  3-Jul-2019

 ----------------------------------------------------------------------
 #t hf aug-cc-pvdz iop(5/13=1,5/36=2,99/5=2) pseudo=read geom=check gue
 ss=(read,tcheck) scf=(maxcycle=1)
 ----------------------------------------------------------------------
 -----
 title
 -----
 Structure from the checkpoint file:  "BDE49_expt_1268_mol1.chk"
 Charge =  0 Multiplicity = 1

                         Standard orientation:
 ---------------------------------------------------------------------
 Center     Atomic      Atomic             Coordinates (Angstroms)
 Number     Number       Type             X           Y           Z
 ---------------------------------------------------------------------
      1          6           0       -0.000032   -0.000424    0.230553
      2          7           0        0.219489    1.436004   -0.358146
      3          7           0        1.132885   -0.907750   -0.362172
      4          7           0       -1.353591   -0.526922   -0.360015
      5         17           0        0.001069   -0.002944    1.948166
      6          8           0       -1.253100   -1.260057   -1.314847
      7          8           0        1.280415   -1.970099    0.188009
      8          8           0       -0.467688    1.717025   -1.311088
      9          8           0        1.718628   -0.450981   -1.314827
     10          8           0        1.066724    2.092789    0.193106
     11          8           0       -2.346163   -0.123268    0.192171
 ---------------------------------------------------------------------

 SCF Done:  E(RHF) =  -1110.22308739     A.U. after    2 cycles

 The electronic state is 1-A.
 Alpha  occ. eigenvalues -- -105.67317 -20.66357 -20.66357 -20.66357 -20.66194
 Alpha  occ. eigenvalues --  -20.66193 -20.66192 -15.87063 -15.87063 -15.87019
 Alpha  occ. eigenvalues --  -11.54641 -10.72130  -7.89115  -7.88598  -7.88598
 Alpha  occ. eigenvalues --   -1.75847  -1.74609  -1.74608  -1.59413  -1.59413
 Alpha  occ. eigenvalues --   -1.59307  -1.29801  -1.13649  -1.06653  -1.06652
 Alpha  occ. eigenvalues --   -0.91235  -0.89052  -0.89050  -0.83081  -0.81475
 Alpha  occ. eigenvalues --   -0.81474  -0.80573  -0.80573  -0.80433  -0.73489
 Alpha  occ. eigenvalues --   -0.60229  -0.60228  -0.59237  -0.55945  -0.55029
 Alpha  occ. eigenvalues --   -0.55027  -0.53306  -0.53305  -0.52667  -0.50312
 Alpha  occ. eigenvalues --   -0.50309
 Alpha virt. eigenvalues --   -0.00621  -0.00610  -0.00002   0.05550   0.07608
 Alpha virt. eigenvalues --    0.10200   0.10204   0.11807   0.11808   0.12345
 Alpha virt. eigenvalues --    0.13200   0.13202   0.14641   0.15186   0.15187

 Mulliken charges:
               1
     1  C   -1.059077
     2  N    3.029252
     3  N    3.029111
     4  N    3.029183
     5  Cl   0.306326
     6  O   -1.392967
     7  O   -1.385385
     8  O   -1.392929
     9  O   -1.392681
    10  O   -1.385425
    11  O   -1.385407
 Sum of Mulliken charges =  -0.00000

 Dipole moment (field-independent basis, Debye):
    X=              0.0007    Y=             -0.0039    Z=              2.5389  Tot=              2.5389

 Test job not archived.
 1\1\GINC-SE118\SP\RHF\Aug-CC-pVDZ\C1Cl1N3O6\OHZDE\08-Apr-2025\0\\#t hf
  aug-cc-pvdz iop(5/13=1,5/36=2,99/5=2) pseudo=read geom=check guess=(r
 ead,tcheck) scf=(maxcycle=1)\\title\\0,1\C,0,0.000032,0.000424,0.23055
 3\N,0,-0.219128,-1.436059,-0.358146\N,0,-1.133113,0.907465,-0.362172\N
 ,0,1.353458,0.527263,-0.360015\Cl,0,-0.00107,0.002944,1.948166\O,0,1.2
 52783,1.260372,-1.314847\O,0,-1.280911,1.969777,0.188009\O,0,0.46812,-
 1.716907,-1.311088\O,0,-1.718741,0.450549,-1.314827\O,0,-1.066197,-2.0
 93057,0.193106\O,0,2.346132,0.123858,0.192171\\Version=ES64L-G16RevC.0

 Normal termination of Gaussian 16 at Tue Apr  8 22:40:17 2025.
