 Gaussian 16, Revision C.01,

 ----------------------------------------------------------------------
 #t hf aug-cc-pvdz symm=none int=(grid=ultrafine) guess=(read,tcheck) s
 table=(opt,rrhf)
 ----------------------------------------------------------------------
 -----
 title
 -----
 Symbolic Z-matrix:
 Charge =  0 Multiplicity = 1

 SCF Done:  E(RHF) =  -845.184565204     A.U. after   14 cycles
 Normal termination of Gaussian 16 at Wed Apr  9 00:12:37 2025.
 Gaussian 16:  ES64L-G16RevC.01  3-Jul-2019

 ----------------------------------------------------------------------
 #t hf aug-cc-pvdz iop(5/13=1,5/36=2,99/5=2) pseudo=read geom=check gue
 ss=(read,tcheck) scf=(maxcycle=1)
 ----------------------------------------------------------------------
 -----
 title
 -----
 Structure from the checkpoint file:  "BDE49_nonexpt_2386_mol1.chk"
 Charge =  0 Multiplicity = 1

                         Standard orientation:
 ---------------------------------------------------------------------
 Center     Atomic      Atomic             Coordinates (Angstroms)
 Number     Number       Type             X           Y           Z
 ---------------------------------------------------------------------
      1         14           0       -1.183688    1.449006   -0.028846
      2         14           0        1.183687    1.449007    0.028846
      3          6           0        1.884732   -0.101638   -0.851807
      4          1           0        1.645664    1.580737    1.431632
      5          1           0        1.689063    2.615201   -0.737144
      6          7           0        2.130603   -1.274437   -0.426492
      7          6           0       -1.884733   -0.101639    0.851807
      8          1           0       -1.645665    1.580736   -1.431632
      9          1           0       -1.689065    2.615200    0.737144
     10          7           0       -2.130602   -1.274437    0.426492
     11          6           0        1.891820   -1.624616    0.961335
     12          1           0        2.821141   -2.014568    1.386757
     13          1           0        1.163315   -2.439957    0.993983
     14          1           0        1.528785   -0.803242    1.593434
     15          6           0       -1.891818   -1.624618   -0.961334
     16          1           0       -1.163314   -2.439958   -0.993982
     17          1           0       -1.528782   -0.803244   -1.593434
     18          1           0       -2.821138   -2.014570   -1.386758
     19          1           0        2.091091    0.054334   -1.918693
     20          1           0       -2.091091    0.054333    1.918693
 ---------------------------------------------------------------------

 SCF Done:  E(RHF) =  -845.528041101     A.U. after    2 cycles

 The electronic state is 1-A.
 Alpha  occ. eigenvalues --  -69.54109 -69.54108 -15.51417 -15.51414 -11.27632
 Alpha  occ. eigenvalues --  -11.27631 -11.26097 -11.26096  -6.21283  -6.21271
 Alpha  occ. eigenvalues --   -3.96637  -3.96625  -3.96615  -3.96607  -3.96599
 Alpha  occ. eigenvalues --   -3.96554  -1.23122  -1.22973  -0.97689  -0.97666
 Alpha  occ. eigenvalues --   -0.84016  -0.81051  -0.74090  -0.69952  -0.67134
 Alpha  occ. eigenvalues --   -0.66937  -0.61296  -0.61035  -0.60240  -0.59439
 Alpha  occ. eigenvalues --   -0.53714  -0.53614  -0.50465  -0.49524  -0.47345
 Alpha  occ. eigenvalues --   -0.45138  -0.42283  -0.41168  -0.39248
 Alpha virt. eigenvalues --    0.03222   0.03350   0.04106   0.04157   0.05184
 Alpha virt. eigenvalues --    0.05556   0.06173   0.06487   0.06927   0.07027
 Alpha virt. eigenvalues --    0.08154   0.08261   0.08592   0.08836   0.09311

 Mulliken charges:
               1
     1  Si   0.565008
     2  Si   0.565007
     3  C   -0.926908
     4  H   -0.017181
     5  H   -0.200673
     6  N    0.714440
     7  C   -0.926908
     8  H   -0.017180
     9  H   -0.200674
    10  N    0.714441
    11  C   -0.371527
    12  H    0.098497
    13  H    0.173083
    14  H    0.036928
    15  C   -0.371529
    16  H    0.173082
    17  H    0.036930
    18  H    0.098496
    19  H   -0.071666
    20  H   -0.071667
 Sum of Mulliken charges =  -0.00000

 Dipole moment (field-independent basis, Debye):
    X=              0.0000    Y=              2.6017    Z=              0.0000  Tot=              2.6017

 Test job not archived.
 1\1\GINC-SE396\SP\RHF\Aug-CC-pVDZ\C4H12N2Si2\OHZDE\09-Apr-2025\0\\#t h
 f aug-cc-pvdz iop(5/13=1,5/36=2,99/5=2) pseudo=read geom=check guess=(
 read,tcheck) scf=(maxcycle=1)\\title\\0,1\Si,0,1.183688,1.449006,0.028
 846\Si,0,-1.183687,1.449007,-0.028846\C,0,-1.884732,-0.101638,0.851807
 \H,0,-1.645664,1.580737,-1.431632\H,0,-1.689063,2.615201,0.737144\N,0,
 -2.130603,-1.274436,0.426492\C,0,1.884733,-0.101639,-0.851807\H,0,1.64
 5665,1.580736,1.431632\H,0,1.689065,2.6152,-0.737144\N,0,2.130602,-1.2
 74437,-0.426492\C,0,-1.89182,-1.624616,-0.961335\H,0,-2.821141,-2.0145

 Normal termination of Gaussian 16 at Wed Apr  9 00:12:46 2025.
