 Gaussian 16, Revision C.01,

 ----------------------------------------------------------------------
 #t hf aug-cc-pvdz symm=none int=(grid=ultrafine) guess=(read,tcheck) s
 table=opt
 ----------------------------------------------------------------------
 -----
 title
 -----
 Symbolic Z-matrix:
 Charge =  0 Multiplicity = 2

 SCF Done:  E(UHF) =  -204.065799848     A.U. after   15 cycles
 Normal termination of Gaussian 16 at Tue Apr  8 22:38:22 2025.
 Gaussian 16:  ES64L-G16RevC.01  3-Jul-2019

 ----------------------------------------------------------------------
 #t hf aug-cc-pvdz iop(5/13=1,5/36=2,99/5=2) pseudo=read geom=check gue
 ss=(read,tcheck) scf=(maxcycle=1)
 ----------------------------------------------------------------------
 -----
 title
 -----
 Structure from the checkpoint file:  "BDE49_expt_1247_mol3.chk"
 Charge =  0 Multiplicity = 2

                         Standard orientation:
 ---------------------------------------------------------------------
 Center     Atomic      Atomic             Coordinates (Angstroms)
 Number     Number       Type             X           Y           Z
 ---------------------------------------------------------------------
      1          7           0        0.000000   -0.000000    0.323073
      2          8           0        0.000000    1.100584   -0.141344
      3          8           0       -0.000000   -1.100584   -0.141344
 ---------------------------------------------------------------------

 SCF Done:  E(UHF) =  -204.254446501     A.U. after    2 cycles

 The electronic state is 2-A1.
 Alpha  occ. eigenvalues --  -20.67742 -20.67730 -15.82098  -1.74789  -1.60838
 Alpha  occ. eigenvalues --   -1.01330  -0.86556  -0.82426  -0.79120  -0.59095
 Alpha  occ. eigenvalues --   -0.52661  -0.51912
 Alpha virt. eigenvalues --    0.04122   0.08944   0.12497   0.13784   0.14775
 Alpha virt. eigenvalues --    0.20436   0.20861   0.22124   0.23824   0.25837
 Alpha virt. eigenvalues --    0.28513   0.36490   0.41526   0.45750   0.62049

  Beta  occ. eigenvalues --  -20.66320 -20.66307 -15.79741  -1.70701  -1.56863
  Beta  occ. eigenvalues --   -0.91891  -0.77760  -0.77082  -0.73943  -0.52345
  Beta  occ. eigenvalues --   -0.49338
  Beta virt. eigenvalues --    0.00015   0.07033   0.10339   0.12632   0.14326
  Beta virt. eigenvalues --    0.14880   0.21086   0.21345   0.22150   0.24498
  Beta virt. eigenvalues --    0.26128   0.28580   0.37561   0.42252   0.47428

 Mulliken charges and spin densities:
               1          2
     1  N    1.625872   0.421623
     2  O   -0.812936   0.289188
     3  O   -0.812936   0.289188
 Sum of Mulliken charges =   0.00000   1.00000

 Dipole moment (field-independent basis, Debye):
    X=              0.0000    Y=             -0.0000    Z=              0.2906  Tot=              0.2906
                          Isotropic Fermi Contact Couplings
        Atom                 a.u.       MegaHertz       Gauss      10(-4) cm-1
     1  N(14)              0.44069     142.38970      50.80819      47.49609
     2  O(17)              0.09374     -56.82658     -20.27714     -18.95531
     3  O(17)              0.09374     -56.82658     -20.27714     -18.95531
 --------------------------------------------------------
       Center         ----  Spin Dipole Couplings  ----
                      3XX-RR        3YY-RR        3ZZ-RR
 --------------------------------------------------------
     1   Atom       -0.563197     -0.819727      1.382924

 Normal termination of Gaussian 16 at Tue Apr  8 22:38:23 2025.
