 Gaussian 16, Revision C.01,

 ----------------------------------------------------------------------
 #t hf aug-cc-pvdz symm=none int=(grid=ultrafine) guess=(read,tcheck) s
 table=(opt,rrhf)
 ----------------------------------------------------------------------
 -----
 title
 -----
 Symbolic Z-matrix:
 Charge =  0 Multiplicity = 1

 SCF Done:  E(RHF) =  -635.099901455     A.U. after   13 cycles
 Normal termination of Gaussian 16 at Wed Apr  9 00:06:38 2025.
 Gaussian 16:  ES64L-G16RevC.01  3-Jul-2019

 ----------------------------------------------------------------------
 #t hf aug-cc-pvdz iop(5/13=1,5/36=2,99/5=2) pseudo=read geom=check gue
 ss=(read,tcheck) scf=(maxcycle=1)
 ----------------------------------------------------------------------
 -----
 title
 -----
 Structure from the checkpoint file:  "BDE49_nonexpt_2214_mol1.chk"
 Charge =  0 Multiplicity = 1

                         Standard orientation:
 ---------------------------------------------------------------------
 Center     Atomic      Atomic             Coordinates (Angstroms)
 Number     Number       Type             X           Y           Z
 ---------------------------------------------------------------------
      1          8           0        1.208276    0.435311   -0.653910
      2          6           0        1.886102   -0.390535    0.176441
      3         14           0       -0.043803    1.445733   -0.088481
      4          8           0        1.620593   -0.491304    1.349056
      5          6           0        2.981382   -1.139777   -0.535934
      6          6           0       -1.529358    0.478711    0.510027
      7          1           0        2.559136   -1.709772   -1.366530
      8          1           0        3.486758   -1.805607    0.160222
      9          1           0        3.693682   -0.428773   -0.960989
     10          6           0       -2.168744   -0.460797   -0.530064
     11          1           0       -2.269340    1.217441    0.849193
     12          1           0       -1.230295   -0.084471    1.400451
     13          6           0       -3.396585   -1.202685    0.008191
     14          1           0       -1.426127   -1.191741   -0.868340
     15          1           0       -2.453455    0.113526   -1.419236
     16          1           0       -3.136117   -1.813674    0.877629
     17          1           0       -3.826004   -1.864253   -0.749565
     18          1           0       -4.176011   -0.500076    0.318884
     19          1           0       -0.367715    2.229660   -1.298646
     20          1           0        0.491001    2.335936    0.962530
 ---------------------------------------------------------------------

 SCF Done:  E(RHF) =  -635.492906945     A.U. after    2 cycles

 The electronic state is 1-A.
 Alpha  occ. eigenvalues --  -69.55860 -20.57219 -20.53738 -11.39668 -11.25402
 Alpha  occ. eigenvalues --  -11.23814 -11.22526 -11.22070  -6.22486  -3.97955
 Alpha  occ. eigenvalues --   -3.97806  -3.97775  -1.53030  -1.44075  -1.06206
 Alpha  occ. eigenvalues --   -1.02715  -0.93505  -0.83203  -0.81058  -0.71354
 Alpha  occ. eigenvalues --   -0.68642  -0.65827  -0.64879  -0.63594  -0.58520
 Alpha  occ. eigenvalues --   -0.58001  -0.57048  -0.55427  -0.54452  -0.52496
 Alpha  occ. eigenvalues --   -0.49687  -0.48357  -0.47876  -0.46842  -0.44364
 Alpha  occ. eigenvalues --   -0.43205
 Alpha virt. eigenvalues --    0.03297   0.03715   0.03872   0.04237   0.05478
 Alpha virt. eigenvalues --    0.05609   0.06189   0.06890   0.07039   0.07857
 Alpha virt. eigenvalues --    0.08401   0.09208   0.10340   0.11110   0.11611

 Mulliken charges:
               1
     1  O   -1.709649
     2  C    2.016807
     3  Si   1.510121
     4  O   -1.193508
     5  C   -0.627086
     6  C   -0.553985
     7  H    0.232397
     8  H    0.179202
     9  H    0.235557
    10  C   -0.350776
    11  H    0.058728
    12  H    0.159265
    13  C   -0.347992
    14  H    0.104073
    15  H    0.103988
    16  H    0.164940
    17  H    0.122818
    18  H    0.160006
    19  H   -0.097026
    20  H   -0.167880
 Sum of Mulliken charges =  -0.00000

 Dipole moment (field-independent basis, Debye):
    X=             -0.1987    Y=             -0.2466    Z=             -1.7167  Tot=              1.7456

 Test job not archived.
 1\1\GINC-SE106\SP\RHF\Aug-CC-pVDZ\C5H12O2Si1\OHZDE\09-Apr-2025\0\\#t h
 f aug-cc-pvdz iop(5/13=1,5/36=2,99/5=2) pseudo=read geom=check guess=(
 read,tcheck) scf=(maxcycle=1)\\title\\0,1\O,0,1.208276,0.435311,-0.653
 91\C,0,1.886102,-0.390535,0.176441\Si,0,-0.043803,1.445733,-0.088481\O
 ,0,1.620593,-0.491304,1.349056\C,0,2.981382,-1.139777,-0.535934\C,0,-1
 .529358,0.478711,0.510027\H,0,2.559136,-1.709772,-1.36653\H,0,3.486758
 ,-1.805607,0.160222\H,0,3.693682,-0.428773,-0.960989\C,0,-2.168744,-0.
 460797,-0.530064\H,0,-2.26934,1.217441,0.849193\H,0,-1.230295,-0.08447

 Normal termination of Gaussian 16 at Wed Apr  9 00:06:48 2025.
