 Gaussian 16, Revision C.01,

 ----------------------------------------------------------------------
 #t hf aug-cc-pvdz symm=none int=(grid=ultrafine) guess=(read,tcheck) s
 table=(opt,rrhf)
 ----------------------------------------------------------------------
 -----
 title
 -----
 Symbolic Z-matrix:
 Charge =  0 Multiplicity = 1

 SCF Done:  E(RHF) =  -806.801760456     A.U. after   14 cycles
 Normal termination of Gaussian 16 at Wed Apr  9 00:09:39 2025.
 Gaussian 16:  ES64L-G16RevC.01  3-Jul-2019

 ----------------------------------------------------------------------
 #t hf aug-cc-pvdz iop(5/13=1,5/36=2,99/5=2) pseudo=read geom=check gue
 ss=(read,tcheck) scf=(maxcycle=1)
 ----------------------------------------------------------------------
 -----
 title
 -----
 Structure from the checkpoint file:  "BDE49_nonexpt_2339_mol1.chk"
 Charge =  0 Multiplicity = 1

                         Standard orientation:
 ---------------------------------------------------------------------
 Center     Atomic      Atomic             Coordinates (Angstroms)
 Number     Number       Type             X           Y           Z
 ---------------------------------------------------------------------
      1         14           0        1.239083   -0.900786    0.472129
      2         14           0       -0.842083   -0.896193   -0.636354
      3          6           0       -1.783242    0.704340   -0.088406
      4          1           0       -1.659213   -2.071272   -0.260926
      5          1           0       -0.598285   -0.882900   -2.099428
      6          8           0       -2.454040    0.714575    0.917701
      7          1           0       -1.673296    1.626884   -0.701688
      8          6           0        1.984469    0.836091    0.050692
      9          1           0        1.114925   -0.991989    1.948262
     10          1           0        2.181312   -1.957506    0.023583
     11          8           0        1.307934    1.674242   -0.506315
     12          1           0        3.038047    1.081369    0.324556
 ---------------------------------------------------------------------

 SCF Done:  E(RHF) =  -807.088882431     A.U. after    2 cycles

 The electronic state is 1-A.
 Alpha  occ. eigenvalues --  -69.55361 -69.54755 -20.57587 -20.55934 -11.34938
 Alpha  occ. eigenvalues --  -11.33611  -6.22597  -6.21972  -3.97935  -3.97909
 Alpha  occ. eigenvalues --   -3.97904  -3.97301  -3.97295  -3.97291  -1.49611
 Alpha  occ. eigenvalues --   -1.48092  -0.88071  -0.86302  -0.77222  -0.71859
 Alpha  occ. eigenvalues --   -0.67497  -0.65805  -0.61135  -0.59028  -0.55589
 Alpha  occ. eigenvalues --   -0.53551  -0.51180  -0.50040  -0.44402  -0.40509
 Alpha  occ. eigenvalues --   -0.38745
 Alpha virt. eigenvalues --    0.02935   0.03530   0.04102   0.05206   0.05950
 Alpha virt. eigenvalues --    0.06439   0.06810   0.07202   0.07713   0.08109
 Alpha virt. eigenvalues --    0.08307   0.10032   0.10311   0.10782   0.12156

 Mulliken charges:
               1
     1  Si   0.807816
     2  Si   0.596688
     3  C    0.388923
     4  H   -0.117647
     5  H   -0.071053
     6  O   -0.916441
     7  H    0.138844
     8  C    0.340682
     9  H   -0.158101
    10  H   -0.155395
    11  O   -0.856121
    12  H    0.001805
 Sum of Mulliken charges =   0.00000

 Dipole moment (field-independent basis, Debye):
    X=              2.6676    Y=             -2.0265    Z=             -0.9432  Tot=              3.4803

 Test job not archived.
 1\1\GINC-SE080\SP\RHF\Aug-CC-pVDZ\C2H6O2Si2\OHZDE\09-Apr-2025\0\\#t hf
  aug-cc-pvdz iop(5/13=1,5/36=2,99/5=2) pseudo=read geom=check guess=(r
 ead,tcheck) scf=(maxcycle=1)\\title\\0,1\Si,0,1.239083,-0.900786,0.472
 129\Si,0,-0.842083,-0.896193,-0.636354\C,0,-1.783242,0.70434,-0.088406
 \H,0,-1.659212,-2.071272,-0.260926\H,0,-0.598285,-0.8829,-2.099428\O,0
 ,-2.45404,0.714574,0.917701\H,0,-1.673297,1.626884,-0.701688\C,0,1.984
 469,0.836092,0.050692\H,0,1.114925,-0.991989,1.948262\H,0,2.181312,-1.
 957505,0.023583\O,0,1.307933,1.674242,-0.506315\H,0,3.038047,1.08137,0

 Normal termination of Gaussian 16 at Wed Apr  9 00:09:44 2025.
