 Gaussian 16, Revision C.01,

 ----------------------------------------------------------------------
 #t hf aug-cc-pvdz symm=none int=(grid=ultrafine) guess=(read,tcheck) s
 table=(opt,rrhf)
 ----------------------------------------------------------------------
 -----
 title
 -----
 Symbolic Z-matrix:
 Charge =  0 Multiplicity = 1

 SCF Done:  E(RHF) =  -459.468213691     A.U. after   14 cycles
 Normal termination of Gaussian 16 at Wed Apr  9 00:42:20 2025.
 Gaussian 16:  ES64L-G16RevC.01  3-Jul-2019

 ----------------------------------------------------------------------
 #t hf aug-cc-pvdz iop(5/13=1,5/36=2,99/5=2) pseudo=read geom=check gue
 ss=(read,tcheck) scf=(maxcycle=1)
 ----------------------------------------------------------------------
 -----
 title
 -----
 Structure from the checkpoint file:  "BDE49_nonexpt_710_mol1.chk"
 Charge =  0 Multiplicity = 1

                         Standard orientation:
 ---------------------------------------------------------------------
 Center     Atomic      Atomic             Coordinates (Angstroms)
 Number     Number       Type             X           Y           Z
 ---------------------------------------------------------------------
      1          5           0       -1.694403    0.897554    0.072914
      2          6           0        1.088555    0.033017    0.028142
      3          7           0        2.185067    0.399311    0.055876
      4         15           0       -0.567547   -0.589045   -0.142496
      5          1           0       -1.377644    1.951514   -0.365720
      6          1           0       -2.781236    0.692319    0.505083
      7          1           0       -0.682697   -1.289201    1.073533
 ---------------------------------------------------------------------

 SCF Done:  E(RHF) =  -459.626083556     A.U. after    2 cycles

 The electronic state is 1-A.
 Alpha  occ. eigenvalues --  -84.31737 -15.52811 -11.28759  -7.64814  -6.79134
 Alpha  occ. eigenvalues --   -4.31950  -4.31568  -4.30741  -1.24036  -0.95883
 Alpha  occ. eigenvalues --   -0.74024  -0.65769  -0.60153  -0.54557  -0.53798
 Alpha  occ. eigenvalues --   -0.52728  -0.48470  -0.37507
 Alpha virt. eigenvalues --    0.01995   0.03093   0.04105   0.04597   0.06237
 Alpha virt. eigenvalues --    0.08007   0.08263   0.09253   0.09817   0.11521
 Alpha virt. eigenvalues --    0.11618   0.12847   0.14261   0.14849   0.15410

 Mulliken charges:
               1
     1  B   -0.179568
     2  C   -1.624286
     3  N    0.805930
     4  P   -0.015664
     5  H    0.318153
     6  H    0.287492
     7  H    0.407942
 Sum of Mulliken charges =  -0.00000

 Dipole moment (field-independent basis, Debye):
    X=             -4.4405    Y=             -1.1629    Z=              0.3507  Tot=              4.6036

 Test job not archived.
 1\1\GINC-SE179\SP\RHF\Aug-CC-pVDZ\C1H3B1N1P1\OHZDE\09-Apr-2025\0\\#t h
 f aug-cc-pvdz iop(5/13=1,5/36=2,99/5=2) pseudo=read geom=check guess=(
 read,tcheck) scf=(maxcycle=1)\\title\\0,1\B,0,-1.694403,0.897554,0.072
 914\C,0,1.088555,0.033017,0.028142\N,0,2.185067,0.39931,0.055876\P,0,-
 0.567547,-0.589045,-0.142496\H,0,-1.377643,1.951514,-0.36572\H,0,-2.78
 1236,0.69232,0.505083\H,0,-0.682697,-1.289201,1.073533\\Version=ES64L-
 G16RevC.01\State=1-A\HF=-459.6260836\RMSD=3.668e-02\Dipole=-1.7470305,
 -0.4575328,0.1379833\Quadrupole=-4.4593367,2.1348266,2.3245101,-1.4805

 Normal termination of Gaussian 16 at Wed Apr  9 00:42:23 2025.
