 Gaussian 16, Revision C.01,

 ----------------------------------------------------------------------
 #t hf aug-cc-pvdz symm=none int=(grid=ultrafine) guess=(read,tcheck) s
 table=(opt,rrhf)
 ----------------------------------------------------------------------
 -----
 title
 -----
 Symbolic Z-matrix:
 Charge =  0 Multiplicity = 1

 SCF Done:  E(RHF) =  -423.831322843     A.U. after   16 cycles
 Normal termination of Gaussian 16 at Wed Apr  9 00:39:08 2025.
 Gaussian 16:  ES64L-G16RevC.01  3-Jul-2019

 ----------------------------------------------------------------------
 #t hf aug-cc-pvdz iop(5/13=1,5/36=2,99/5=2) pseudo=read geom=check gue
 ss=(read,tcheck) scf=(maxcycle=1)
 ----------------------------------------------------------------------
 -----
 title
 -----
 Structure from the checkpoint file:  "BDE49_nonexpt_573_mol1.chk"
 Charge =  0 Multiplicity = 1

                         Standard orientation:
 ---------------------------------------------------------------------
 Center     Atomic      Atomic             Coordinates (Angstroms)
 Number     Number       Type             X           Y           Z
 ---------------------------------------------------------------------
      1          6           0        2.052307   -1.372254   -0.144425
      2          6           0        0.674593   -1.171571   -0.164355
      3          6           0        0.144590    0.116075   -0.016347
      4          6           0       -1.325905    0.419481   -0.054865
      5          8           0       -1.742109    1.529645   -0.290984
      6          5           0       -3.599231   -0.662680    0.093322
      7          6           0        2.912218   -0.290474    0.029428
      8          6           0        2.392294    0.996526    0.168099
      9          6           0        1.018419    1.199340    0.136027
     10          1           0        0.594810    2.191654    0.226106
     11          1           0        2.452914   -2.371389   -0.270872
     12          1           0        0.025437   -2.023524   -0.333146
     13          1           0        3.984530   -0.448720    0.049878
     14          1           0        3.059741    1.840787    0.297067
     15          7           0       -2.191528   -0.662970    0.217489
     16          1           0       -4.154888    0.302922   -0.305515
     17          1           0       -4.169592   -1.663234    0.395382
     18          1           0       -1.730327   -1.494195    0.558560
 ---------------------------------------------------------------------

 SCF Done:  E(RHF) =  -424.260113101     A.U. after    2 cycles

 The electronic state is 1-A.
 Alpha  occ. eigenvalues --  -20.52786 -15.52655 -11.37570 -11.27104 -11.26649
 Alpha  occ. eigenvalues --  -11.26569 -11.26130 -11.26087 -11.25825  -7.60273
 Alpha  occ. eigenvalues --   -1.47737  -1.22648  -1.17373  -1.05015  -1.03717
 Alpha  occ. eigenvalues --   -0.90448  -0.85748  -0.82475  -0.78288  -0.74496
 Alpha  occ. eigenvalues --   -0.69813  -0.66496  -0.64533  -0.62723  -0.61972
 Alpha  occ. eigenvalues --   -0.60408  -0.58238  -0.54237  -0.52635  -0.52364
 Alpha  occ. eigenvalues --   -0.49005  -0.46185  -0.44130  -0.36724  -0.36216
 Alpha virt. eigenvalues --    0.02593   0.03188   0.03828   0.04273   0.04913
 Alpha virt. eigenvalues --    0.05240   0.05959   0.06377   0.07105   0.07359
 Alpha virt. eigenvalues --    0.08982   0.09847   0.09975   0.10912   0.11627

 Mulliken charges:
               1
     1  C    0.079479
     2  C    0.489236
     3  C    2.129075
     4  C   -0.724703
     5  O   -1.315073
     6  B   -0.716932
     7  C   -0.075947
     8  C    0.357730
     9  C   -0.374044
    10  H   -0.329574
    11  H   -0.244924
    12  H   -0.340994
    13  H   -0.207322
    14  H   -0.212633
    15  N    0.872838
    16  H    0.271420
    17  H    0.326712
    18  H    0.015655
 Sum of Mulliken charges =  -0.00000

 Dipole moment (field-independent basis, Debye):
    X=              2.8908    Y=             -2.7666    Z=              0.7031  Tot=              4.0627

 Test job not archived.
 1\1\GINC-SE419\SP\RHF\Aug-CC-pVDZ\C7H8B1N1O1\OHZDE\09-Apr-2025\0\\#t h
 f aug-cc-pvdz iop(5/13=1,5/36=2,99/5=2) pseudo=read geom=check guess=(
 read,tcheck) scf=(maxcycle=1)\\title\\0,1\C,0,2.052307,-1.372254,-0.14
 4425\C,0,0.674593,-1.171571,-0.164355\C,0,0.14459,0.116075,-0.016347\C
 ,0,-1.325905,0.419481,-0.054865\O,0,-1.742109,1.529645,-0.290984\B,0,-
 3.599231,-0.66268,0.093322\C,0,2.912218,-0.290474,0.029428\C,0,2.39229
 4,0.996526,0.168099\C,0,1.018419,1.19934,0.136027\H,0,0.59481,2.191654
 ,0.226106\H,0,2.452914,-2.371389,-0.270872\H,0,0.025437,-2.023524,-0.3

 Normal termination of Gaussian 16 at Wed Apr  9 00:39:17 2025.
