 Gaussian 16, Revision C.01,

 ----------------------------------------------------------------------
 #t hf aug-cc-pvdz symm=none int=(grid=ultrafine) guess=(read,tcheck) s
 table=opt
 ----------------------------------------------------------------------
 -----
 title
 -----
 Symbolic Z-matrix:
 Charge =  0 Multiplicity = 2

 SCF Done:  E(UHF) =  -566.549694754     A.U. after   16 cycles
 Normal termination of Gaussian 16 at Tue Apr  8 23:24:56 2025.
 Gaussian 16:  ES64L-G16RevC.01  3-Jul-2019

 ----------------------------------------------------------------------
 #t hf aug-cc-pvdz iop(5/13=1,5/36=2,99/5=2) pseudo=read geom=check gue
 ss=(read,tcheck) scf=(maxcycle=1)
 ----------------------------------------------------------------------
 -----
 title
 -----
 Structure from the checkpoint file:  "BDE49_nonexpt_1268_mol3.chk"
 Charge =  0 Multiplicity = 2

                         Standard orientation:
 ---------------------------------------------------------------------
 Center     Atomic      Atomic             Coordinates (Angstroms)
 Number     Number       Type             X           Y           Z
 ---------------------------------------------------------------------
      1         15           0        0.000001    0.138797    0.308660
      2          8           0        0.000019    1.515518   -0.233241
      3          8           0       -1.205052   -0.840727   -0.154070
      4          1           0       -2.052048   -0.377098   -0.149431
      5          8           0        1.205033   -0.840755   -0.154069
      6          1           0        2.052037   -0.377144   -0.149437
 ---------------------------------------------------------------------

 SCF Done:  E(UHF) =  -566.808609400     A.U. after    2 cycles

 The electronic state is 2-A.
 Alpha  occ. eigenvalues --  -84.43908 -20.61373 -20.61370 -20.54368  -6.89423
 Alpha  occ. eigenvalues --   -4.43100  -4.42315  -4.41592  -1.55008  -1.49055
 Alpha  occ. eigenvalues --   -1.42375  -0.87886  -0.71540  -0.70974  -0.64209
 Alpha  occ. eigenvalues --   -0.64204  -0.59382  -0.56561  -0.51213  -0.48690
 Alpha  occ. eigenvalues --   -0.38073
 Alpha virt. eigenvalues --    0.03603   0.04242   0.07939   0.08637   0.10031
 Alpha virt. eigenvalues --    0.13106   0.17749   0.18100   0.19988   0.20026
 Alpha virt. eigenvalues --    0.21524   0.23169   0.24210   0.24700   0.26724

  Beta  occ. eigenvalues --  -84.43381 -20.60774 -20.60771 -20.53143  -6.88607
  Beta  occ. eigenvalues --   -4.42847  -4.42011  -4.39549  -1.53176  -1.47353
  Beta  occ. eigenvalues --   -1.38851  -0.85286  -0.69512  -0.68541  -0.63015
  Beta  occ. eigenvalues --   -0.60679  -0.54840  -0.54120  -0.47525  -0.46048
  Beta virt. eigenvalues --    0.01888   0.04324   0.05699   0.08804   0.08905
  Beta virt. eigenvalues --    0.10454   0.15280   0.18386   0.18515   0.20170
  Beta virt. eigenvalues --    0.20403   0.21757   0.23393   0.26223   0.26674

 Mulliken charges and spin densities:
               1          2
     1  P    2.797752   0.665323
     2  O   -1.234154   0.208508
     3  O   -1.189355   0.072907
     4  H    0.407556  -0.009822
     5  O   -1.189354   0.072906
     6  H    0.407556  -0.009822
 Sum of Mulliken charges =  -0.00000   1.00000

 Dipole moment (field-independent basis, Debye):
    X=             -0.0000    Y=             -1.1516    Z=              1.2912  Tot=              1.7301
                          Isotropic Fermi Contact Couplings
        Atom                 a.u.       MegaHertz       Gauss      10(-4) cm-1
     1  P(31)              0.86224    1561.60089     557.21803     520.89399
     2  O(17)              0.09400     -56.98174     -20.33250     -19.00706
     3  O(17)              0.08436     -51.14098     -18.24837     -17.05879
     4  H(1)              -0.00277     -12.36309      -4.41146      -4.12388
     5  O(17)              0.08436     -51.14103     -18.24839     -17.05881
     6  H(1)              -0.00277     -12.36302      -4.41143      -4.12386
 --------------------------------------------------------
       Center         ----  Spin Dipole Couplings  ----

 Normal termination of Gaussian 16 at Tue Apr  8 23:24:58 2025.
