 Gaussian 16, Revision C.01,

 ----------------------------------------------------------------------
 #t hf aug-cc-pvdz symm=none int=(grid=ultrafine) guess=(read,tcheck) s
 table=(opt,rrhf)
 ----------------------------------------------------------------------
 -----
 title
 -----
 Symbolic Z-matrix:
 Charge =  0 Multiplicity = 1

 SCF Done:  E(RHF) =  -626.895686367     A.U. after   11 cycles
 Normal termination of Gaussian 16 at Tue Apr  8 23:49:17 2025.
 Gaussian 16:  ES64L-G16RevC.01  3-Jul-2019

 ----------------------------------------------------------------------
 #t hf aug-cc-pvdz iop(5/13=1,5/36=2,99/5=2) pseudo=read geom=check gue
 ss=(read,tcheck) scf=(maxcycle=1)
 ----------------------------------------------------------------------
 -----
 title
 -----
 Structure from the checkpoint file:  "BDE49_nonexpt_1839_mol1.chk"
 Charge =  0 Multiplicity = 1

                         Standard orientation:
 ---------------------------------------------------------------------
 Center     Atomic      Atomic             Coordinates (Angstroms)
 Number     Number       Type             X           Y           Z
 ---------------------------------------------------------------------
      1         14           0       -1.518104   -0.000002    0.000011
      2          6           0        0.407256   -0.000000    0.000004
      3          9           0        0.914557   -0.755161   -1.006829
      4          1           0       -1.961178    0.552419   -1.294017
      5          9           0        0.914603   -0.494356    1.157390
      6          1           0       -1.961203    0.844443    1.125426
      7          9           0        0.914565    1.249521   -0.150583
      8          1           0       -1.961216   -1.396863    0.168601
 ---------------------------------------------------------------------

 SCF Done:  E(RHF) =  -627.237579669     A.U. after    2 cycles

 The electronic state is 1-A.
 Alpha  occ. eigenvalues --  -69.56853 -26.50191 -26.50191 -26.50187 -11.49869
 Alpha  occ. eigenvalues --   -6.24023  -3.99405  -3.99355  -3.99355  -1.70310
 Alpha  occ. eigenvalues --   -1.60438  -1.60438  -0.95800  -0.83819  -0.79697
 Alpha  occ. eigenvalues --   -0.79697  -0.71828  -0.68011  -0.68010  -0.63238
 Alpha  occ. eigenvalues --   -0.63238  -0.61551  -0.52535  -0.52535  -0.50094
 Alpha virt. eigenvalues --    0.03305   0.05240   0.05377   0.05377   0.08539
 Alpha virt. eigenvalues --    0.08539   0.09519   0.12250   0.12251   0.14680
 Alpha virt. eigenvalues --    0.15694   0.17338   0.17338   0.21570   0.22319

 Mulliken charges:
               1
     1  Si   1.070949
     2  C    1.742859
     3  F   -0.739784
     4  H   -0.198153
     5  F   -0.739785
     6  H   -0.198150
     7  F   -0.739785
     8  H   -0.198151
 Sum of Mulliken charges =  -0.00000

 Dipole moment (field-independent basis, Debye):
    X=             -2.4496    Y=             -0.0000    Z=              0.0001  Tot=              2.4496

 Test job not archived.
 1\1\GINC-SE402\SP\RHF\Aug-CC-pVDZ\C1H3F3Si1\OHZDE\08-Apr-2025\0\\#t hf
  aug-cc-pvdz iop(5/13=1,5/36=2,99/5=2) pseudo=read geom=check guess=(r
 ead,tcheck) scf=(maxcycle=1)\\title\\0,1\Si,0,1.518104,-0.000002,-0.00
 0012\C,0,-0.407256,0.,-0.000004\F,0,-0.914557,-0.776535,0.990437\H,0,1
 .961178,0.5246,1.305542\F,0,-0.914603,-0.469473,-1.167705\H,0,1.961203
 ,0.868335,-1.107097\F,0,-0.914565,1.246012,0.177289\H,0,1.961216,-1.39
 2935,-0.198457\\Version=ES64L-G16RevC.01\State=1-A\HF=-627.2375797\RMS
 D=3.074e-03\Dipole=0.9637466,-0.0000075,-0.000023\Quadrupole=1.1657607

 Normal termination of Gaussian 16 at Tue Apr  8 23:49:20 2025.
