 Gaussian 16, Revision C.01,

 ----------------------------------------------------------------------
 #t hf aug-cc-pvdz symm=none int=(grid=ultrafine) guess=(read,tcheck) s
 table=(opt,rrhf)
 ----------------------------------------------------------------------
 -----
 title
 -----
 Symbolic Z-matrix:
 Charge =  0 Multiplicity = 1

 SCF Done:  E(RHF) =  -911.702301118     A.U. after   16 cycles
 Normal termination of Gaussian 16 at Tue Apr  8 23:14:44 2025.
 Gaussian 16:  ES64L-G16RevC.01  3-Jul-2019

 ----------------------------------------------------------------------
 #t hf aug-cc-pvdz iop(5/13=1,5/36=2,99/5=2) pseudo=read geom=check gue
 ss=(read,tcheck) scf=(maxcycle=1)
 ----------------------------------------------------------------------
 -----
 title
 -----
 Structure from the checkpoint file:  "BDE49_expt_554_mol1.chk"
 Charge =  0 Multiplicity = 1

                         Standard orientation:
 ---------------------------------------------------------------------
 Center     Atomic      Atomic             Coordinates (Angstroms)
 Number     Number       Type             X           Y           Z
 ---------------------------------------------------------------------
      1          6           0        1.563594    0.013383    2.338692
      2          6           0        1.010133   -0.347961    3.563950
      3          6           0       -0.365523   -0.519362    3.688025
      4          6           0       -1.185878   -0.315000    2.579662
      5          6           0       -0.642864    0.087927    1.362315
      6          6           0        0.745967    0.244133    1.228524
      7          7           0        1.297736    0.636277   -0.000000
      8          6           0        0.745967    0.244133   -1.228524
      9          1           0       -0.800480   -0.813585    4.635499
     10          1           0        1.660123   -0.507740    4.416359
     11          1           0       -2.258107   -0.452516    2.660161
     12          6           0       -0.642864    0.087927   -1.362315
     13          1           0        2.638844    0.125534    2.238457
     14          1           0        2.305353    0.696749   -0.000000
     15          6           0        1.563594    0.013383   -2.338692
     16          6           0        1.010133   -0.347961   -3.563950
     17          6           0       -0.365523   -0.519362   -3.688025
     18          6           0       -1.185878   -0.315000   -2.579662
     19          1           0        2.638844    0.125534   -2.238457
     20          1           0       -2.258107   -0.452516   -2.660161
     21          1           0        1.660123   -0.507740   -4.416359
     22          1           0       -0.800480   -0.813585   -4.635499
     23         16           0       -1.710963    0.511781    0.000000
 ---------------------------------------------------------------------

 SCF Done:  E(RHF) =  -912.282712446     A.U. after    2 cycles

 The electronic state is 1-A'.
 Alpha  occ. eigenvalues --  -93.96109 -15.53573 -11.29948 -11.29907 -11.27468
 Alpha  occ. eigenvalues --  -11.27422 -11.25415 -11.25405 -11.25199 -11.25193
 Alpha  occ. eigenvalues --  -11.24819 -11.24818 -11.24184 -11.24182  -8.24205
 Alpha  occ. eigenvalues --   -6.22027  -6.21880  -6.21640  -1.28061  -1.16610
 Alpha  occ. eigenvalues --   -1.15294  -1.09204  -1.03972  -1.02719  -0.99961
 Alpha  occ. eigenvalues --   -0.94377  -0.87316  -0.86904  -0.83716  -0.78871
 Alpha  occ. eigenvalues --   -0.75096  -0.74417  -0.67457  -0.67277  -0.65395
 Alpha  occ. eigenvalues --   -0.65051  -0.62036  -0.61969  -0.60672  -0.59733
 Alpha  occ. eigenvalues --   -0.56455  -0.53988  -0.52988  -0.52504  -0.50137
 Alpha  occ. eigenvalues --   -0.49332  -0.46905  -0.42743  -0.36019  -0.35495
 Alpha  occ. eigenvalues --   -0.32862  -0.28631
 Alpha virt. eigenvalues --    0.02790   0.03360   0.03676   0.03860   0.04241
 Alpha virt. eigenvalues --    0.05987   0.06214   0.07259   0.07957   0.08575
 Alpha virt. eigenvalues --    0.09199   0.10018   0.10160   0.10435   0.10914

 Mulliken charges:
               1
     1  C    1.068752
     2  C    0.006151
     3  C    0.142823
     4  C    0.116942
     5  C    0.624387
     6  C   -1.679070
     7  N    1.090967
     8  C   -1.679070
     9  H   -0.226386
    10  H   -0.219729
    11  H   -0.240945
    12  C    0.624387
    13  H   -0.366478
    14  H    0.055796
    15  C    1.068752
    16  C    0.006151
    17  C    0.142823
    18  C    0.116942
    19  H   -0.366478
    20  H   -0.240945
    21  H   -0.219729
    22  H   -0.226386
    23  S    0.400343
 Sum of Mulliken charges =  -0.00000

 Dipole moment (field-independent basis, Debye):
    X=              2.0714    Y=             -0.8750    Z=              0.0000  Tot=              2.2487

 Test job not archived.
 1\1\GINC-SE044\SP\RHF\Aug-CC-pVDZ\C12H9N1S1\OHZDE\08-Apr-2025\0\\#t hf
  aug-cc-pvdz iop(5/13=1,5/36=2,99/5=2) pseudo=read geom=check guess=(r
 ead,tcheck) scf=(maxcycle=1)\\title\\0,1\C,0,1.563594,0.013383,2.33869
 2\C,0,1.010133,-0.347961,3.56395\C,0,-0.365523,-0.519362,3.688025\C,0,
 -1.185878,-0.315,2.579662\C,0,-0.642864,0.087927,1.362315\C,0,0.745967
 ,0.244133,1.228524\N,0,1.297736,0.636277,0.\C,0,0.745967,0.244133,-1.2
 28524\H,0,-0.80048,-0.813585,4.635499\H,0,1.660123,-0.50774,4.416359\H
 ,0,-2.258107,-0.452516,2.660161\C,0,-0.642864,0.087927,-1.362315\H,0,2

 Normal termination of Gaussian 16 at Tue Apr  8 23:14:58 2025.
