 Gaussian 16, Revision C.01,

 ----------------------------------------------------------------------
 #t hf aug-cc-pvdz symm=none int=(grid=ultrafine) guess=(read,tcheck) s
 table=(opt,rrhf)
 ----------------------------------------------------------------------
 -----
 title
 -----
 Symbolic Z-matrix:
 Charge =  0 Multiplicity = 1

 SCF Done:  E(RHF) =  -615.052374419     A.U. after   13 cycles

 1\1\GINC-SE048\Stability\RHF\Aug-CC-pVDZ\C4H7Cl1\OHZDE\08-Apr-2025\0\\
 #t hf aug-cc-pvdz symm=none int=(grid=ultrafine) guess=(read,tcheck) s
 table=(opt,rrhf)\\title\\0,1\C,0,2.909407,-0.275309,-0.32321\C,0,1.893
 208,0.326436,0.287325\C,0,0.523976,-0.272726,0.470414\C,0,-0.526573,0.
 518761,-0.305462\H,0,0.252006,-0.268835,1.531512\H,0,0.516501,-1.31330
 9,0.136416\Cl,0,-2.198551,-0.146642,-0.035226\H,0,-0.351835,0.472424,-
 1.378855\H,0,-0.565599,1.561204,0.00825\H,0,3.875948,0.204827,-0.42559
 9\H,0,2.813902,-1.275375,-0.735486\H,0,2.034332,1.329006,0.688204\\Ver

 Normal termination of Gaussian 16 at Tue Apr  8 22:30:43 2025.
 Gaussian 16:  ES64L-G16RevC.01  3-Jul-2019

 ----------------------------------------------------------------------
 #t hf aug-cc-pvdz iop(5/13=1,5/36=2,99/5=2) pseudo=read geom=check gue
 ss=(read,tcheck) scf=(maxcycle=1)
 ----------------------------------------------------------------------
 -----
 title
 -----
 Structure from the checkpoint file:  "BDE49_expt_1033_mol1.chk"
 Charge =  0 Multiplicity = 1

                         Standard orientation:
 ---------------------------------------------------------------------
 Center     Atomic      Atomic             Coordinates (Angstroms)
 Number     Number       Type             X           Y           Z
 ---------------------------------------------------------------------
      1          6           0        2.909407   -0.275309   -0.323210
      2          6           0        1.893208    0.326436    0.287325
      3          6           0        0.523976   -0.272726    0.470414
      4          6           0       -0.526573    0.518761   -0.305462
      5          1           0        0.252006   -0.268835    1.531512
      6          1           0        0.516501   -1.313309    0.136416
      7         17           0       -2.198551   -0.146642   -0.035226
      8          1           0       -0.351835    0.472424   -1.378855
      9          1           0       -0.565599    1.561204    0.008250
     10          1           0        3.875948    0.204827   -0.425599
     11          1           0        2.813902   -1.275375   -0.735486
     12          1           0        2.034332    1.329006    0.688204
 ---------------------------------------------------------------------

 SCF Done:  E(RHF) =  -615.298895053     A.U. after    2 cycles

 The electronic state is 1-A.
 Alpha  occ. eigenvalues -- -105.55262 -11.30847 -11.25597 -11.25526 -11.24552
 Alpha  occ. eigenvalues --  -10.60054  -7.76991  -7.76628  -7.76620  -1.12629
 Alpha  occ. eigenvalues --   -1.06370  -0.97070  -0.85440  -0.77946  -0.68106
 Alpha  occ. eigenvalues --   -0.64208  -0.61614  -0.58016  -0.55574  -0.52663
 Alpha  occ. eigenvalues --   -0.50227  -0.44435  -0.44179  -0.38443
 Alpha virt. eigenvalues --    0.03410   0.03817   0.04565   0.04675   0.06600
 Alpha virt. eigenvalues --    0.06842   0.07391   0.09045   0.10609   0.12251
 Alpha virt. eigenvalues --    0.13567   0.14090   0.14974   0.15199   0.15631

 Mulliken charges:
               1
     1  C   -0.173320
     2  C    0.784577
     3  C   -0.442389
     4  C   -0.600548
     5  H    0.243932
     6  H    0.133018
     7  Cl  -0.107057
     8  H    0.245280
     9  H    0.225647
    10  H   -0.083330
    11  H   -0.064348
    12  H   -0.161463
 Sum of Mulliken charges =  -0.00000

 Dipole moment (field-independent basis, Debye):
    X=              2.2184    Y=              0.7137    Z=             -0.1697  Tot=              2.3365

 Test job not archived.
 1\1\GINC-SE048\SP\RHF\Aug-CC-pVDZ\C4H7Cl1\OHZDE\08-Apr-2025\0\\#t hf a
 ug-cc-pvdz iop(5/13=1,5/36=2,99/5=2) pseudo=read geom=check guess=(rea
 d,tcheck) scf=(maxcycle=1)\\title\\0,1\C,0,2.909407,-0.275309,-0.32321
 \C,0,1.893208,0.326436,0.287325\C,0,0.523976,-0.272726,0.470414\C,0,-0
 .526573,0.518761,-0.305462\H,0,0.252006,-0.268835,1.531512\H,0,0.51650
 1,-1.313309,0.136416\Cl,0,-2.198551,-0.146642,-0.035226\H,0,-0.351835,
 0.472424,-1.378855\H,0,-0.565599,1.561204,0.00825\H,0,3.875948,0.20482
 7,-0.425599\H,0,2.813902,-1.275375,-0.735486\H,0,2.034332,1.329006,0.6

 Normal termination of Gaussian 16 at Tue Apr  8 22:30:47 2025.
