 Gaussian 16, Revision C.01,

 ----------------------------------------------------------------------
 #t hf aug-cc-pvdz symm=none int=(grid=ultrafine) guess=(read,tcheck) s
 table=(opt,rrhf)
 ----------------------------------------------------------------------
 -----
 title
 -----
 Symbolic Z-matrix:
 Charge =  0 Multiplicity = 1

 SCF Done:  E(RHF) =  -306.958243141     A.U. after   14 cycles

 1\1\GINC-SE060\Stability\RHF\Aug-CC-pVDZ\C4H10O2\OHZDE\08-Apr-2025\0\\
 #t hf aug-cc-pvdz symm=none int=(grid=ultrafine) guess=(read,tcheck) s
 table=(opt,rrhf)\\title\\0,1\C,0,-0.391021,0.00055,0.037007\O,0,0.7277
 27,-0.058659,-0.886945\O,0,1.972902,0.102425,-0.151235\H,0,2.350809,-0
 .779914,-0.261539\C,0,-0.316753,-1.161821,1.03084\H,0,-0.273576,-2.115
 918,0.49846\H,0,-1.196411,-1.171025,1.67953\H,0,0.56855,-1.070698,1.66
 2295\C,0,-0.407631,1.35679,0.745744\H,0,0.49718,1.485894,1.340685\H,0,
 -1.273913,1.433386,1.408541\H,0,-0.456798,2.164937,0.012559\C,0,-1.581

 Normal termination of Gaussian 16 at Tue Apr  8 22:43:55 2025.
 Gaussian 16:  ES64L-G16RevC.01  3-Jul-2019

 ----------------------------------------------------------------------
 #t hf aug-cc-pvdz iop(5/13=1,5/36=2,99/5=2) pseudo=read geom=check gue
 ss=(read,tcheck) scf=(maxcycle=1)
 ----------------------------------------------------------------------
 -----
 title
 -----
 Structure from the checkpoint file:  "BDE49_expt_1466_mol1.chk"
 Charge =  0 Multiplicity = 1

                         Standard orientation:
 ---------------------------------------------------------------------
 Center     Atomic      Atomic             Coordinates (Angstroms)
 Number     Number       Type             X           Y           Z
 ---------------------------------------------------------------------
      1          6           0       -0.391021    0.000550    0.037007
      2          8           0        0.727727   -0.058659   -0.886945
      3          8           0        1.972902    0.102425   -0.151235
      4          1           0        2.350809   -0.779914   -0.261539
      5          6           0       -0.316753   -1.161821    1.030840
      6          1           0       -0.273576   -2.115918    0.498460
      7          1           0       -1.196411   -1.171025    1.679530
      8          1           0        0.568550   -1.070698    1.662295
      9          6           0       -0.407631    1.356790    0.745744
     10          1           0        0.497180    1.485894    1.340685
     11          1           0       -1.273913    1.433386    1.408541
     12          1           0       -0.456798    2.164937    0.012559
     13          6           0       -1.581807   -0.151182   -0.912847
     14          1           0       -1.538979   -1.108376   -1.437161
     15          1           0       -1.582650    0.650392   -1.654164
     16          1           0       -2.515977   -0.104831   -0.348223
 ---------------------------------------------------------------------

 SCF Done:  E(RHF) =  -307.280704718     A.U. after    2 cycles

 The electronic state is 1-A.
 Alpha  occ. eigenvalues --  -20.60509 -20.60238 -11.29843 -11.22910 -11.22822
 Alpha  occ. eigenvalues --  -11.22199  -1.56884  -1.28805  -1.06439  -0.94679
 Alpha  occ. eigenvalues --   -0.94416  -0.76858  -0.70324  -0.65938  -0.64438
 Alpha  occ. eigenvalues --   -0.61629  -0.57993  -0.55260  -0.54916  -0.53683
 Alpha  occ. eigenvalues --   -0.52672  -0.50882  -0.48510  -0.46131  -0.43343
 Alpha virt. eigenvalues --    0.03616   0.03900   0.04277   0.04575   0.06542
 Alpha virt. eigenvalues --    0.06662   0.06810   0.07591   0.07803   0.09760
 Alpha virt. eigenvalues --    0.12271   0.14276   0.14487   0.15209   0.15981

 Mulliken charges:
               1
     1  C   -0.761002
     2  O   -1.031131
     3  O   -0.532428
     4  H    0.407426
     5  C    0.055082
     6  H    0.206318
     7  H    0.225705
     8  H    0.193941
     9  C    0.012847
    10  H    0.224338
    11  H    0.239770
    12  H    0.216788
    13  C   -0.073792
    14  H    0.174643
    15  H    0.181656
    16  H    0.259838
 Sum of Mulliken charges =  -0.00000

 Dipole moment (field-independent basis, Debye):
    X=             -0.9016    Y=             -1.3148    Z=              0.9630  Tot=              1.8625

 Test job not archived.
 1\1\GINC-SE060\SP\RHF\Aug-CC-pVDZ\C4H10O2\OHZDE\08-Apr-2025\0\\#t hf a
 ug-cc-pvdz iop(5/13=1,5/36=2,99/5=2) pseudo=read geom=check guess=(rea
 d,tcheck) scf=(maxcycle=1)\\title\\0,1\C,0,-0.391021,0.00055,0.037007\
 O,0,0.727727,-0.058659,-0.886945\O,0,1.972902,0.102425,-0.151235\H,0,2
 .350809,-0.779914,-0.261539\C,0,-0.316753,-1.161821,1.03084\H,0,-0.273
 576,-2.115918,0.49846\H,0,-1.196411,-1.171025,1.67953\H,0,0.56855,-1.0
 70698,1.662295\C,0,-0.407631,1.35679,0.745744\H,0,0.49718,1.485894,1.3
 40685\H,0,-1.273913,1.433386,1.408541\H,0,-0.456798,2.164937,0.012559\

 Normal termination of Gaussian 16 at Tue Apr  8 22:44:01 2025.
