 Gaussian 16, Revision C.01,

 ----------------------------------------------------------------------
 #t hf aug-cc-pvdz symm=none int=(grid=ultrafine) guess=(read,tcheck) s
 table=(opt,rrhf)
 ----------------------------------------------------------------------
 -----
 title
 -----
 Symbolic Z-matrix:
 Charge =  0 Multiplicity = 1

 SCF Done:  E(RHF) =  -1087.17302028     A.U. after   15 cycles
 Normal termination of Gaussian 16 at Tue Apr  8 23:00:11 2025.
 Gaussian 16:  ES64L-G16RevC.01  3-Jul-2019

 ----------------------------------------------------------------------
 #t hf aug-cc-pvdz iop(5/13=1,5/36=2,99/5=2) pseudo=read geom=check gue
 ss=(read,tcheck) scf=(maxcycle=1)
 ----------------------------------------------------------------------
 -----
 title
 -----
 Structure from the checkpoint file:  "BDE49_expt_1975_mol1.chk"
 Charge =  0 Multiplicity = 1

                         Standard orientation:
 ---------------------------------------------------------------------
 Center     Atomic      Atomic             Coordinates (Angstroms)
 Number     Number       Type             X           Y           Z
 ---------------------------------------------------------------------
      1         16           0        1.451733   -0.000000    0.959793
      2          6           0       -0.225887    0.000000    0.382066
      3         17           0        2.544279   -0.000000   -0.844328
      4          6           0       -0.896745    1.213759    0.185893
      5          6           0       -0.896745   -1.213759    0.185893
      6          6           0       -2.232562   -1.209692   -0.202116
      7          6           0       -2.899011    0.000000   -0.395864
      8          6           0       -2.232562    1.209692   -0.202115
      9          1           0       -0.366077    2.145247    0.338729
     10          1           0       -2.753477    2.148120   -0.352731
     11          1           0       -0.366077   -2.145247    0.338728
     12          1           0       -2.753478   -2.148120   -0.352732
     13          1           0       -3.940284    0.000000   -0.697647
 ---------------------------------------------------------------------

 SCF Done:  E(RHF) =  -1087.54519102     A.U. after    2 cycles

 The electronic state is 1-A.
 Alpha  occ. eigenvalues -- -105.57472 -94.01209 -11.28922 -11.27060 -11.27055
 Alpha  occ. eigenvalues --  -11.26951 -11.26209 -11.26192 -10.62138  -8.28828
 Alpha  occ. eigenvalues --   -7.79073  -7.78639  -7.78608  -6.26634  -6.26404
 Alpha  occ. eigenvalues --   -6.26126  -1.18641  -1.11423  -1.04085  -1.03800
 Alpha  occ. eigenvalues --   -0.93470  -0.85934  -0.82562  -0.72841  -0.66932
 Alpha  occ. eigenvalues --   -0.65874  -0.62326  -0.60320  -0.56073  -0.53166
 Alpha  occ. eigenvalues --   -0.53165  -0.50738  -0.50327  -0.44907  -0.37555
 Alpha  occ. eigenvalues --   -0.36843  -0.36592
 Alpha virt. eigenvalues --    0.02991   0.03276   0.03465   0.04211   0.05574
 Alpha virt. eigenvalues --    0.06154   0.07726   0.08873   0.09154   0.11219
 Alpha virt. eigenvalues --    0.11337   0.12280   0.13100   0.13282   0.14029

 Mulliken charges:
               1
     1  S    0.101362
     2  C    0.999790
     3  Cl  -0.273303
     4  C   -0.417760
     5  C   -0.417758
     6  C    0.534918
     7  C   -0.116130
     8  C    0.534922
     9  H   -0.170743
    10  H   -0.202862
    11  H   -0.170743
    12  H   -0.202862
    13  H   -0.198832
 Sum of Mulliken charges =  -0.00000

 Dipole moment (field-independent basis, Debye):
    X=             -3.3347    Y=             -0.0000    Z=              0.1808  Tot=              3.3396

 Test job not archived.
 1\1\GINC-SE435\SP\RHF\Aug-CC-pVDZ\C6H5Cl1S1\OHZDE\08-Apr-2025\0\\#t hf
  aug-cc-pvdz iop(5/13=1,5/36=2,99/5=2) pseudo=read geom=check guess=(r
 ead,tcheck) scf=(maxcycle=1)\\title\\0,1\S,0,1.451733,0.,0.959793\C,0,
 -0.225887,0.,0.382066\Cl,0,2.544279,0.,-0.844328\C,0,-0.896745,1.21375
 9,0.185893\C,0,-0.896745,-1.213759,0.185893\C,0,-2.232562,-1.209692,-0
 .202116\C,0,-2.899011,0.,-0.395864\C,0,-2.232562,1.209692,-0.202115\H,
 0,-0.366077,2.145247,0.338729\H,0,-2.753477,2.14812,-0.352731\H,0,-0.3
 66077,-2.145247,0.338728\H,0,-2.753478,-2.14812,-0.352732\H,0,-3.94028

 Normal termination of Gaussian 16 at Tue Apr  8 23:00:16 2025.
