 Gaussian 16, Revision C.01,

 ----------------------------------------------------------------------
 #t hf aug-cc-pvdz symm=none int=(grid=ultrafine) guess=(read,tcheck) s
 table=opt
 ----------------------------------------------------------------------
 -----
 title
 -----
 Symbolic Z-matrix:
 Charge =  0 Multiplicity = 2

 SCF Done:  E(UHF) =  -912.703220783     A.U. after   17 cycles
 Normal termination of Gaussian 16 at Tue Apr  8 23:53:27 2025.
 Gaussian 16:  ES64L-G16RevC.01  3-Jul-2019

 ----------------------------------------------------------------------
 #t hf aug-cc-pvdz iop(5/13=1,5/36=2,99/5=2) pseudo=read geom=check gue
 ss=(read,tcheck) scf=(maxcycle=1)
 ----------------------------------------------------------------------
 -----
 title
 -----
 Structure from the checkpoint file:  "BDE49_nonexpt_1933_mol2.chk"
 Charge =  0 Multiplicity = 2

                         Standard orientation:
 ---------------------------------------------------------------------
 Center     Atomic      Atomic             Coordinates (Angstroms)
 Number     Number       Type             X           Y           Z
 ---------------------------------------------------------------------
      1         14           0        1.783174   -0.053884   -0.116876
      2         16           0       -0.433644    0.145019    0.066063
      3          1           0        2.337864    1.137960    0.565320
      4          1           0        2.161157   -1.321929    0.551448
      5          8           0       -0.867740   -0.124002    1.424094
      6          8           0       -0.914634   -1.152712   -0.826278
      7          8           0       -0.863281    1.324670   -0.637316
      8          1           0       -1.359904   -1.765609   -0.221516
 ---------------------------------------------------------------------

 SCF Done:  E(UHF) =  -913.014164873     A.U. after    2 cycles

 The electronic state is 2-A.
 Alpha  occ. eigenvalues --  -94.22711 -69.61024 -20.62095 -20.55953 -20.55547
 Alpha  occ. eigenvalues --   -8.47710  -6.45783  -6.45656  -6.45448  -6.28045
 Alpha  occ. eigenvalues --   -4.03922  -4.03083  -4.02965  -1.60672  -1.48500
 Alpha  occ. eigenvalues --   -1.45940  -0.95446  -0.80571  -0.74557  -0.69545
 Alpha  occ. eigenvalues --   -0.68345  -0.63842  -0.57096  -0.55192  -0.51596
 Alpha  occ. eigenvalues --   -0.50960  -0.48374  -0.45615  -0.39552
 Alpha virt. eigenvalues --    0.02484   0.03949   0.05406   0.05698   0.06159
 Alpha virt. eigenvalues --    0.07805   0.09459   0.11474   0.12249   0.12982
 Alpha virt. eigenvalues --    0.13857   0.15411   0.15961   0.17504   0.18524

  Beta  occ. eigenvalues --  -94.22700 -69.60410 -20.62116 -20.55740 -20.55552
  Beta  occ. eigenvalues --   -8.47694  -6.45790  -6.45657  -6.45399  -6.27091
  Beta  occ. eigenvalues --   -4.02660  -4.02552  -4.01664  -1.60556  -1.48499
  Beta  occ. eigenvalues --   -1.45623  -0.94640  -0.78296  -0.74013  -0.69226
  Beta  occ. eigenvalues --   -0.66603  -0.63676  -0.56710  -0.54196  -0.51326
  Beta  occ. eigenvalues --   -0.50264  -0.47835  -0.44253
  Beta virt. eigenvalues --   -0.01819   0.02814   0.04085   0.05614   0.06370
  Beta virt. eigenvalues --    0.07055   0.08332   0.10175   0.11911   0.12784
  Beta virt. eigenvalues --    0.14007   0.14988   0.16557   0.17051   0.18710

 Mulliken charges and spin densities:
               1          2
     1  Si   0.954594   0.913267
     2  S    2.865194  -0.008704
     3  H   -0.169214   0.035280
     4  H   -0.149022   0.042441
     5  O   -1.367024   0.028393
     6  O   -1.153241  -0.009431
     7  O   -1.354421  -0.002424
     8  H    0.373133   0.001179
 Sum of Mulliken charges =  -0.00000   1.00000

 Dipole moment (field-independent basis, Debye):
    X=              3.5311    Y=             -2.6220    Z=             -0.2649  Tot=              4.4061
                          Isotropic Fermi Contact Couplings
        Atom                 a.u.       MegaHertz       Gauss      10(-4) cm-1
     1  Si(29)             0.72415    -643.57208    -229.64252    -214.67254
     2  S(33)              0.02874       9.87169       3.52247       3.29284
     3  H(1)               0.00693      30.97065      11.05110      10.33070
     4  H(1)               0.00922      41.20666      14.70356      13.74506
     5  O(17)              0.02076     -12.58446      -4.49045      -4.19772
     6  O(17)             -0.00645       3.90989       1.39515       1.30420
     7  O(17)             -0.00143       0.86765       0.30960       0.28942
     8  H(1)              -0.00007      -0.30627      -0.10928      -0.10216

 Normal termination of Gaussian 16 at Tue Apr  8 23:53:30 2025.
