 Gaussian 16, Revision C.01,

 ----------------------------------------------------------------------
 #t hf aug-cc-pvdz symm=none int=(grid=ultrafine) guess=(read,tcheck) s
 table=(opt,rrhf)
 ----------------------------------------------------------------------
 -----
 title
 -----
 Symbolic Z-matrix:
 Charge =  0 Multiplicity = 1

 SCF Done:  E(RHF) =  -1653.88717732     A.U. after   15 cycles
 Normal termination of Gaussian 16 at Wed Apr  9 00:26:59 2025.
 Gaussian 16:  ES64L-G16RevC.01  3-Jul-2019

 ----------------------------------------------------------------------
 #t hf aug-cc-pvdz iop(5/13=1,5/36=2,99/5=2) pseudo=read geom=check gue
 ss=(read,tcheck) scf=(maxcycle=1)
 ----------------------------------------------------------------------
 -----
 title
 -----
 Structure from the checkpoint file:  "BDE49_nonexpt_2752_mol1.chk"
 Charge =  0 Multiplicity = 1

                         Standard orientation:
 ---------------------------------------------------------------------
 Center     Atomic      Atomic             Coordinates (Angstroms)
 Number     Number       Type             X           Y           Z
 ---------------------------------------------------------------------
      1         16           0       -1.294716   -1.058339   -0.306191
      2         16           0        0.288600   -0.877618    0.991291
      3          6           0       -2.254268    0.413695    0.109153
      4         16           0        1.646411    0.361189   -0.104239
      5          9           0        2.287545   -0.739959   -1.113459
      6          8           0        0.964742    1.293235   -0.940194
      7          8           0        2.677056    0.702161    0.821766
      8          8           0       -2.033784    1.268582    0.881811
      9          9           0       -3.352346    0.362438   -0.670514
 ---------------------------------------------------------------------

 SCF Done:  E(RHF) =  -1654.49372400     A.U. after    2 cycles

 The electronic state is 1-A.
 Alpha  occ. eigenvalues --  -94.30740 -94.07368 -94.06793 -26.54569 -26.53801
 Alpha  occ. eigenvalues --  -20.61742 -20.61293 -20.61207 -11.50036  -8.55319
 Alpha  occ. eigenvalues --   -8.35287  -8.34742  -6.53308  -6.53211  -6.53027
 Alpha  occ. eigenvalues --   -6.32996  -6.32816  -6.32510  -6.32504  -6.32293
 Alpha  occ. eigenvalues --   -6.32053  -1.69679  -1.68864  -1.58849  -1.56148
 Alpha  occ. eigenvalues --   -1.51891  -1.19268  -1.05603  -0.93315  -0.87414
 Alpha  occ. eigenvalues --   -0.79952  -0.77188  -0.75926  -0.75436  -0.74897
 Alpha  occ. eigenvalues --   -0.74467  -0.67537  -0.67372  -0.64386  -0.59813
 Alpha  occ. eigenvalues --   -0.58832  -0.58239  -0.54587  -0.53590  -0.52545
 Alpha  occ. eigenvalues --   -0.51295  -0.46347  -0.45246
 Alpha virt. eigenvalues --    0.02782   0.03395   0.05819   0.07455   0.08122
 Alpha virt. eigenvalues --    0.08909   0.09639   0.09947   0.10425   0.10821
 Alpha virt. eigenvalues --    0.11668   0.12139   0.13273   0.14359   0.14593

 Mulliken charges:
               1
     1  S    0.265590
     2  S    0.104445
     3  C    1.164747
     4  S    3.091927
     5  F   -0.665896
     6  O   -1.285683
     7  O   -1.266658
     8  O   -0.819189
     9  F   -0.589283
 Sum of Mulliken charges =  -0.00000

 Dipole moment (field-independent basis, Debye):
    X=             -1.5174    Y=             -3.0119    Z=              0.0366  Tot=              3.3727

 Test job not archived.
 1\1\GINC-SE127\SP\RHF\Aug-CC-pVDZ\C1F2O3S3\OHZDE\09-Apr-2025\0\\#t hf
 aug-cc-pvdz iop(5/13=1,5/36=2,99/5=2) pseudo=read geom=check guess=(re
 ad,tcheck) scf=(maxcycle=1)\\title\\0,1\S,0,-1.294716,-1.058339,-0.306
 191\S,0,0.2886,-0.877618,0.991291\C,0,-2.254268,0.413695,0.109153\S,0,
 1.646411,0.361189,-0.104239\F,0,2.287545,-0.739959,-1.113459\O,0,0.964
 742,1.293235,-0.940194\O,0,2.677056,0.702161,0.821766\O,0,-2.033784,1.
 268582,0.881811\F,0,-3.352346,0.362438,-0.670514\\Version=ES64L-G16Rev
 C.01\State=1-A\HF=-1654.493724\RMSD=4.742e-03\Dipole=-0.5969834,-1.184

 Normal termination of Gaussian 16 at Wed Apr  9 00:27:05 2025.
