 Gaussian 16, Revision C.01,

 ----------------------------------------------------------------------
 #t hf aug-cc-pvdz symm=none int=(grid=ultrafine) guess=(read,tcheck) s
 table=(opt,rrhf)
 ----------------------------------------------------------------------
 -----
 title
 -----
 Symbolic Z-matrix:
 Charge =  0 Multiplicity = 1

 SCF Done:  E(RHF) =  -984.418605022     A.U. after   16 cycles
 Normal termination of Gaussian 16 at Tue Apr  8 23:42:01 2025.
 Gaussian 16:  ES64L-G16RevC.01  3-Jul-2019

 ----------------------------------------------------------------------
 #t hf aug-cc-pvdz iop(5/13=1,5/36=2,99/5=2) pseudo=read geom=check gue
 ss=(read,tcheck) scf=(maxcycle=1)
 ----------------------------------------------------------------------
 -----
 title
 -----
 Structure from the checkpoint file:  "BDE49_nonexpt_1604_mol1.chk"
 Charge =  0 Multiplicity = 1

                         Standard orientation:
 ---------------------------------------------------------------------
 Center     Atomic      Atomic             Coordinates (Angstroms)
 Number     Number       Type             X           Y           Z
 ---------------------------------------------------------------------
      1          6           0       -4.170442   -0.544461    0.044368
      2          6           0       -3.184496   -1.526296   -0.046173
      3          6           0       -1.842528   -1.165208   -0.085496
      4          6           0       -3.817556    0.804625    0.093918
      5          6           0       -2.479387    1.173012    0.052578
      6          6           0       -1.487068    0.188256   -0.035897
      7          1           0       -5.215734   -0.830556    0.075369
      8          1           0       -3.462185   -2.572880   -0.087145
      9          1           0       -1.069431   -1.918145   -0.159305
     10          1           0       -4.585901    1.565504    0.163520
     11          1           0       -2.182910    2.213656    0.087933
     12          6           0       -0.076408    0.626486   -0.078344
     13          8           0        0.802903   -0.413413   -0.150726
     14         15           0        2.454401   -0.287617   -0.060369
     15          8           0        3.086524   -1.466431   -0.626892
     16          8           0        0.283935    1.786394   -0.062438
     17          8           0        2.770932    1.108750   -0.697453
     18          1           0        2.046280    1.747201   -0.512459
     19          8           0        2.687589   -0.059606    1.502345
     20          1           0        2.946121   -0.874566    1.949209
 ---------------------------------------------------------------------

 SCF Done:  E(RHF) =  -985.098678603     A.U. after    2 cycles

 The electronic state is 1-A.
 Alpha  occ. eigenvalues --  -84.47489 -20.62147 -20.60565 -20.59397 -20.57441
 Alpha  occ. eigenvalues --  -20.51660 -11.43896 -11.28036 -11.27955 -11.27918
 Alpha  occ. eigenvalues --  -11.27815 -11.26836 -11.26817  -6.92289  -4.46543
 Alpha  occ. eigenvalues --   -4.45830  -4.45678  -1.59684  -1.53548  -1.48898
 Alpha  occ. eigenvalues --   -1.48287  -1.40361  -1.18945  -1.07266  -1.04875
 Alpha  occ. eigenvalues --   -0.94604  -0.88071  -0.85870  -0.82363  -0.77628
 Alpha  occ. eigenvalues --   -0.75746  -0.73288  -0.70849  -0.68033  -0.67266
 Alpha  occ. eigenvalues --   -0.66181  -0.65714  -0.63661  -0.63015  -0.59328
 Alpha  occ. eigenvalues --   -0.57658  -0.55839  -0.54852  -0.54486  -0.53469
 Alpha  occ. eigenvalues --   -0.53259  -0.51349  -0.49161  -0.47788  -0.46962
 Alpha  occ. eigenvalues --   -0.38049  -0.37405
 Alpha virt. eigenvalues --    0.02551   0.03188   0.03503   0.04105   0.04605
 Alpha virt. eigenvalues --    0.05431   0.06830   0.07279   0.08397   0.08882
 Alpha virt. eigenvalues --    0.09219   0.10129   0.11044   0.11759   0.12638

 Mulliken charges:
               1
     1  C   -0.038730
     2  C    0.308258
     3  C   -0.051996
     4  C    0.344121
     5  C   -0.275379
     6  C    1.888659
     7  H   -0.208433
     8  H   -0.223837
     9  H   -0.278608
    10  H   -0.215003
    11  H   -0.340471
    12  C    1.678963
    13  O   -2.214499
    14  P    4.021450
    15  O   -1.320730
    16  O   -1.446598
    17  O   -1.330561
    18  H    0.604157
    19  O   -1.286448
    20  H    0.385685
 Sum of Mulliken charges =  -0.00000

 Dipole moment (field-independent basis, Debye):
    X=             -5.1929    Y=              0.0079    Z=              2.2891  Tot=              5.6751

 Test job not archived.
 1\1\GINC-SE423\SP\RHF\Aug-CC-pVDZ\C7H7O5P1\OHZDE\08-Apr-2025\0\\#t hf
 aug-cc-pvdz iop(5/13=1,5/36=2,99/5=2) pseudo=read geom=check guess=(re
 ad,tcheck) scf=(maxcycle=1)\\title\\0,1\C,0,-4.170442,-0.544461,0.0443
 68\C,0,-3.184496,-1.526296,-0.046173\C,0,-1.842528,-1.165208,-0.085496
 \C,0,-3.817556,0.804625,0.093918\C,0,-2.479387,1.173012,0.052578\C,0,-
 1.487068,0.188256,-0.035897\H,0,-5.215734,-0.830556,0.075369\H,0,-3.46
 2185,-2.57288,-0.087145\H,0,-1.069431,-1.918145,-0.159305\H,0,-4.58590
 1,1.565504,0.16352\H,0,-2.18291,2.213656,0.087933\C,0,-0.076408,0.6264

 Normal termination of Gaussian 16 at Tue Apr  8 23:42:16 2025.
