 Gaussian 16, Revision C.01,

 ----------------------------------------------------------------------
 #t hf aug-cc-pvdz symm=none int=(grid=ultrafine) guess=(read,tcheck) s
 table=opt
 ----------------------------------------------------------------------
 -----
 title
 -----
 Symbolic Z-matrix:
 Charge =  0 Multiplicity = 2

 SCF Done:  E(UHF) =  -457.260804848     A.U. after   19 cycles
 Normal termination of Gaussian 16 at Tue Apr  8 23:52:19 2025.
 Gaussian 16:  ES64L-G16RevC.01  3-Jul-2019

 ----------------------------------------------------------------------
 #t hf aug-cc-pvdz iop(5/13=1,5/36=2,99/5=2) pseudo=read geom=check gue
 ss=(read,tcheck) scf=(maxcycle=1)
 ----------------------------------------------------------------------
 -----
 title
 -----
 Structure from the checkpoint file:  "BDE49_nonexpt_1914_mol2.chk"
 Charge =  0 Multiplicity = 2

                         Standard orientation:
 ---------------------------------------------------------------------
 Center     Atomic      Atomic             Coordinates (Angstroms)
 Number     Number       Type             X           Y           Z
 ---------------------------------------------------------------------
      1         14           0       -1.446913    0.194384   -0.111424
      2          8           0        0.054935   -0.607891    0.067720
      3          1           0       -2.403493   -0.812166    0.397627
      4          1           0       -1.396431    1.423222    0.719546
      5          6           0        1.236116   -0.107825    0.015030
      6          7           0        2.314360    0.311092   -0.027026
 ---------------------------------------------------------------------

 SCF Done:  E(UHF) =  -457.447198827     A.U. after    2 cycles

 The electronic state is 2-A.
 Alpha  occ. eigenvalues --  -69.62462 -20.64392 -15.50883 -11.34981  -6.29032
 Alpha  occ. eigenvalues --   -4.04875  -4.04154  -4.03964  -1.56794  -1.23103
 Alpha  occ. eigenvalues --   -0.89461  -0.73332  -0.68119  -0.66341  -0.60708
 Alpha  occ. eigenvalues --   -0.54280  -0.49000  -0.47978  -0.38861
 Alpha virt. eigenvalues --    0.02740   0.03600   0.04959   0.05414   0.07685
 Alpha virt. eigenvalues --    0.09713   0.10861   0.11724   0.11831   0.12599
 Alpha virt. eigenvalues --    0.15222   0.15655   0.18190   0.19639   0.19789

  Beta  occ. eigenvalues --  -69.61883 -20.64108 -15.50837 -11.35026  -6.28118
  Beta  occ. eigenvalues --   -4.03796  -4.03603  -4.02745  -1.56087  -1.23024
  Beta  occ. eigenvalues --   -0.88120  -0.71270  -0.66406  -0.64338  -0.60577
  Beta  occ. eigenvalues --   -0.52770  -0.48079  -0.47402
  Beta virt. eigenvalues --   -0.00632   0.03099   0.03997   0.05119   0.07074
  Beta virt. eigenvalues --    0.08183   0.10112   0.11509   0.12070   0.12403
  Beta virt. eigenvalues --    0.13346   0.16393   0.18141   0.19175   0.19831

 Mulliken charges and spin densities:
               1          2
     1  Si   1.155195   0.855235
     2  O   -1.217911   0.013106
     3  H   -0.119758   0.054086
     4  H   -0.133973   0.070367
     5  C   -0.302239  -0.007416
     6  N    0.618686   0.014622
 Sum of Mulliken charges =   0.00000   1.00000

 Dipole moment (field-independent basis, Debye):
    X=             -5.5177    Y=             -0.4166    Z=              0.0008  Tot=              5.5334
                          Isotropic Fermi Contact Couplings
        Atom                 a.u.       MegaHertz       Gauss      10(-4) cm-1
     1  Si(29)             0.75081    -667.26734    -238.09758    -222.57643
     2  O(17)              0.03559     -21.57570      -7.69875      -7.19688
     3  H(1)               0.01533      68.52693      24.45211      22.85812
     4  H(1)               0.01727      77.17688      27.53863      25.74343
     5  C(13)             -0.00635      -7.14052      -2.54791      -2.38182
     6  N(14)              0.00363       1.17291       0.41852       0.39124
 --------------------------------------------------------
       Center         ----  Spin Dipole Couplings  ----

 1\1\GINC-SE329\SP\UHF\Aug-CC-pVDZ\C1H2N1O1Si1(2)\OHZDE\08-Apr-2025\0\\
 #t hf aug-cc-pvdz iop(5/13=1,5/36=2,99/5=2) pseudo=read geom=check gue
 ss=(read,tcheck) scf=(maxcycle=1)\\title\\0,2\Si,0,-1.446913,0.194384,
 -0.111424\O,0,0.054935,-0.607891,0.06772\H,0,-2.403493,-0.812166,0.397
 627\H,0,-1.396431,1.423222,0.719546\C,0,1.236116,-0.107825,0.01503\N,0
 ,2.31436,0.311092,-0.027026\\Version=ES64L-G16RevC.01\State=2-A\HF=-45
 7.4471988\S2=0.753593\S2-1=0.\S2A=0.750005\RMSD=1.280e-02\Dipole=-2.17
 0825,-0.1639102,0.0003033\Quadrupole=-4.0854326,1.9203377,2.1650948,-2

 Normal termination of Gaussian 16 at Tue Apr  8 23:52:21 2025.
