 Gaussian 16, Revision C.01,

 ----------------------------------------------------------------------
 #t hf aug-cc-pvdz symm=none int=(grid=ultrafine) guess=(read,tcheck) s
 table=(opt,rrhf)
 ----------------------------------------------------------------------
 -----
 title
 -----
 Symbolic Z-matrix:
 Charge =  0 Multiplicity = 1

 SCF Done:  E(RHF) =  -744.529720877     A.U. after   15 cycles
 Normal termination of Gaussian 16 at Wed Apr  9 00:22:43 2025.
 Gaussian 16:  ES64L-G16RevC.01  3-Jul-2019

 ----------------------------------------------------------------------
 #t hf aug-cc-pvdz iop(5/13=1,5/36=2,99/5=2) pseudo=read geom=check gue
 ss=(read,tcheck) scf=(maxcycle=1)
 ----------------------------------------------------------------------
 -----
 title
 -----
 Structure from the checkpoint file:  "BDE49_nonexpt_2659_mol1.chk"
 Charge =  0 Multiplicity = 1

                         Standard orientation:
 ---------------------------------------------------------------------
 Center     Atomic      Atomic             Coordinates (Angstroms)
 Number     Number       Type             X           Y           Z
 ---------------------------------------------------------------------
      1          9           0        2.687593   -0.088188   -0.098854
      2         16           0        1.171037   -0.670741    0.407392
      3          6           0       -0.013789    0.246778   -0.607364
      4          8           0        0.155856    1.628840   -0.660954
      5          7           0       -1.173215   -0.272532    0.107334
      6          6           0       -2.183162   -0.922477   -0.723404
      7          1           0       -1.703815   -1.623399   -1.408005
      8          1           0       -2.773451   -0.200603   -1.308246
      9          1           0       -2.864010   -1.490883   -0.086415
     10          6           0       -1.727423    0.590698    1.147011
     11          1           0       -0.929986    0.963142    1.789977
     12          1           0       -2.404994    0.001918    1.768074
     13          1           0       -2.277908    1.446246    0.732568
     14          1           0       -0.027257   -0.102218   -1.639176
     15          1           0        0.568395    1.918362    0.161479
 ---------------------------------------------------------------------

 SCF Done:  E(RHF) =  -744.936473293     A.U. after    2 cycles

 The electronic state is 1-A.
 Alpha  occ. eigenvalues --  -94.02677 -26.44582 -20.58053 -15.52452 -11.37065
 Alpha  occ. eigenvalues --  -11.27782 -11.27505  -8.29932  -6.27711  -6.27356
 Alpha  occ. eigenvalues --   -6.27100  -1.54057  -1.49403  -1.25495  -1.04972
 Alpha  occ. eigenvalues --   -0.98830  -0.92052  -0.84249  -0.73786  -0.70263
 Alpha  occ. eigenvalues --   -0.69069  -0.65296  -0.62843  -0.61290  -0.60717
 Alpha  occ. eigenvalues --   -0.59697  -0.57529  -0.56738  -0.55333  -0.51878
 Alpha  occ. eigenvalues --   -0.46339  -0.41599  -0.38233
 Alpha virt. eigenvalues --    0.03278   0.04153   0.04539   0.05064   0.05438
 Alpha virt. eigenvalues --    0.06439   0.06577   0.07956   0.08988   0.09831
 Alpha virt. eigenvalues --    0.12852   0.13188   0.13676   0.14937   0.15380

 Mulliken charges:
               1
     1  F   -0.687356
     2  S    1.055713
     3  C   -0.183830
     4  O   -1.232657
     5  N    0.594873
     6  C   -0.365799
     7  H    0.103453
     8  H    0.253415
     9  H    0.102939
    10  C   -0.340840
    11  H    0.051210
    12  H    0.095363
    13  H    0.231762
    14  H   -0.005997
    15  H    0.327750
 Sum of Mulliken charges =  -0.00000

 Dipole moment (field-independent basis, Debye):
    X=             -3.3899    Y=              0.1182    Z=              0.4501  Tot=              3.4217

 Test job not archived.
 1\1\GINC-SE106\SP\RHF\Aug-CC-pVDZ\C3H8F1N1O1S1\OHZDE\09-Apr-2025\0\\#t
  hf aug-cc-pvdz iop(5/13=1,5/36=2,99/5=2) pseudo=read geom=check guess
 =(read,tcheck) scf=(maxcycle=1)\\title\\0,1\F,0,2.687593,-0.088188,-0.
 098854\S,0,1.171037,-0.670741,0.407392\C,0,-0.013789,0.246778,-0.60736
 4\O,0,0.155856,1.62884,-0.660954\N,0,-1.173215,-0.272532,0.107334\C,0,
 -2.183162,-0.922477,-0.723404\H,0,-1.703815,-1.623399,-1.408005\H,0,-2
 .773451,-0.200603,-1.308246\H,0,-2.86401,-1.490883,-0.086415\C,0,-1.72
 7423,0.590698,1.147011\H,0,-0.929986,0.963142,1.789977\H,0,-2.404994,0

 Normal termination of Gaussian 16 at Wed Apr  9 00:22:49 2025.
