 Gaussian 16, Revision C.01,

 ----------------------------------------------------------------------
 #t hf aug-cc-pvdz symm=none int=(grid=ultrafine) guess=(read,tcheck) s
 table=opt
 ----------------------------------------------------------------------
 -----
 title
 -----
 Symbolic Z-matrix:
 Charge =  0 Multiplicity = 2

 SCF Done:  E(UHF) =  -441.292284130     A.U. after   16 cycles
 Normal termination of Gaussian 16 at Wed Apr  9 00:17:50 2025.
 Gaussian 16:  ES64L-G16RevC.01  3-Jul-2019

 ----------------------------------------------------------------------
 #t hf aug-cc-pvdz iop(5/13=1,5/36=2,99/5=2) pseudo=read geom=check gue
 ss=(read,tcheck) scf=(maxcycle=1)
 ----------------------------------------------------------------------
 -----
 title
 -----
 Structure from the checkpoint file:  "BDE49_nonexpt_255_mol2.chk"
 Charge =  0 Multiplicity = 2

                         Standard orientation:
 ---------------------------------------------------------------------
 Center     Atomic      Atomic             Coordinates (Angstroms)
 Number     Number       Type             X           Y           Z
 ---------------------------------------------------------------------
      1          6           0        1.636268   -0.047994    0.399227
      2          8           0        1.188004    1.028202   -0.372723
      3          6           0       -0.000037    1.662965    0.033527
      4          8           0       -1.188059    1.028162   -0.372707
      5          6           0       -1.636259   -0.048069    0.399235
      6          8           0       -1.233944   -1.322628   -0.105238
      7          5           0        0.000041   -1.824541   -0.315116
      8          8           0        1.234002   -1.322581   -0.105215
      9          1           0       -0.000057    2.629602   -0.464593
     10          1           0       -0.000031    1.785817    1.128479
     11          1           0       -2.722672   -0.049087    0.340710
     12          1           0       -1.310690    0.057302    1.442717
     13          1           0        1.310714    0.057378    1.442713
     14          1           0        2.722680   -0.048964    0.340681
 ---------------------------------------------------------------------

 SCF Done:  E(UHF) =  -441.724438376     A.U. after    2 cycles

 The electronic state is 2-A.
 Alpha  occ. eigenvalues --  -20.57999 -20.57998 -20.56444 -20.56443 -11.36988
 Alpha  occ. eigenvalues --  -11.36987 -11.36579  -7.66811  -1.54770  -1.50459
 Alpha  occ. eigenvalues --   -1.48232  -1.44132  -1.02059  -0.94912  -0.89735
 Alpha  occ. eigenvalues --   -0.78727  -0.73819  -0.73665  -0.72283  -0.68766
 Alpha  occ. eigenvalues --   -0.67571  -0.64704  -0.59933  -0.55593  -0.53815
 Alpha  occ. eigenvalues --   -0.51374  -0.50485  -0.48303  -0.48082  -0.45602
 Alpha  occ. eigenvalues --   -0.33740
 Alpha virt. eigenvalues --    0.02868   0.03904   0.03977   0.04827   0.06064
 Alpha virt. eigenvalues --    0.06650   0.06811   0.07557   0.07965   0.10829
 Alpha virt. eigenvalues --    0.12033   0.12629   0.13656   0.14232   0.14237

  Beta  occ. eigenvalues --  -20.57988 -20.57987 -20.56300 -20.56298 -11.36832
  Beta  occ. eigenvalues --  -11.36829 -11.36578  -7.64633  -1.54631  -1.50250
  Beta  occ. eigenvalues --   -1.47740  -1.43847  -1.01574  -0.94274  -0.89208
  Beta  occ. eigenvalues --   -0.78029  -0.73593  -0.73035  -0.71683  -0.68593
  Beta  occ. eigenvalues --   -0.67282  -0.63896  -0.59408  -0.55623  -0.53334
  Beta  occ. eigenvalues --   -0.50801  -0.50475  -0.47922  -0.47868  -0.45753
  Beta virt. eigenvalues --    0.02889   0.03910   0.03971   0.04586   0.05829
  Beta virt. eigenvalues --    0.06301   0.06835   0.07717   0.08014   0.10491
  Beta virt. eigenvalues --    0.10839   0.12768   0.13191   0.14236   0.14302

 Mulliken charges and spin densities:
               1          2
     1  C    1.325242   0.056952
     2  O   -1.251927   0.000170
     3  C    1.075471  -0.008409
     4  O   -1.251925   0.000170
     5  C    1.325246   0.056953
     6  O   -0.891175  -0.115080
     7  B    0.311343   1.138361
     8  O   -0.891175  -0.115081
     9  H   -0.050172  -0.000005
    10  H    0.235522   0.000418
    11  H   -0.082385  -0.001184
    12  H    0.114157  -0.006040
    13  H    0.114158  -0.006040
    14  H   -0.082381  -0.001184
 Sum of Mulliken charges =  -0.00000   1.00000

 Dipole moment (field-independent basis, Debye):
    X=             -0.0000    Y=              2.6503    Z=              3.2930  Tot=              4.2270
                          Isotropic Fermi Contact Couplings
        Atom                 a.u.       MegaHertz       Gauss      10(-4) cm-1
     1  C(13)              0.03210      36.08384      12.87561      12.03627
     2  O(17)              0.00084      -0.51220      -0.18276      -0.17085
     3  C(13)             -0.00012      -0.12967      -0.04627      -0.04325
     4  O(17)              0.00084      -0.51221      -0.18277      -0.17086
     5  C(13)              0.03210      36.08404      12.87568      12.03634
     6  O(17)              0.16538    -100.25428     -35.77322     -33.44123
     7  B(11)              0.45344     650.40382     232.08026     216.95136
     8  O(17)              0.16538    -100.25440     -35.77326     -33.44127

 Normal termination of Gaussian 16 at Wed Apr  9 00:17:56 2025.
