 Gaussian 16, Revision C.01,

 ----------------------------------------------------------------------
 #t hf aug-cc-pvdz symm=none int=(grid=ultrafine) guess=(read,tcheck) s
 table=(opt,rrhf)
 ----------------------------------------------------------------------
 -----
 title
 -----
 Symbolic Z-matrix:
 Charge =  0 Multiplicity = 1

 SCF Done:  E(RHF) =  -613.300593010     A.U. after   12 cycles
 Normal termination of Gaussian 16 at Wed Apr  9 00:34:48 2025.
 Gaussian 16:  ES64L-G16RevC.01  3-Jul-2019

 ----------------------------------------------------------------------
 #t hf aug-cc-pvdz iop(5/13=1,5/36=2,99/5=2) pseudo=read geom=check gue
 ss=(read,tcheck) scf=(maxcycle=1)
 ----------------------------------------------------------------------
 -----
 title
 -----
 Structure from the checkpoint file:  "BDE49_nonexpt_457_mol1.chk"
 Charge =  0 Multiplicity = 1

                         Standard orientation:
 ---------------------------------------------------------------------
 Center     Atomic      Atomic             Coordinates (Angstroms)
 Number     Number       Type             X           Y           Z
 ---------------------------------------------------------------------
      1          1           0        2.613842   -1.023294   -0.229042
      2          1           0        2.613827    1.023346   -0.229072
      3          5           0        2.012127    0.000022   -0.192785
      4         14           0        0.016110    0.000002   -0.015514
      5          9           0       -0.368849   -0.000051    1.530531
      6          9           0       -0.677470    1.271720   -0.674156
      7          9           0       -0.677441   -1.271691   -0.674238
 ---------------------------------------------------------------------

 SCF Done:  E(RHF) =  -613.628451606     A.U. after    2 cycles

 The electronic state is 1-A.
 Alpha  occ. eigenvalues --  -69.66576 -26.47881 -26.47688 -26.47687  -7.64576
 Alpha  occ. eigenvalues --   -6.32552  -4.07847  -4.07826  -4.07533  -1.61524
 Alpha  occ. eigenvalues --   -1.58260  -1.58089  -0.82734  -0.75219  -0.72576
 Alpha  occ. eigenvalues --   -0.72476  -0.68179  -0.66574  -0.66496  -0.63715
 Alpha  occ. eigenvalues --   -0.63641  -0.61986  -0.53904  -0.48576
 Alpha virt. eigenvalues --    0.00132   0.03883   0.04627   0.05137   0.07530
 Alpha virt. eigenvalues --    0.07687   0.08067   0.08120   0.11583   0.12791
 Alpha virt. eigenvalues --    0.15809   0.18260   0.20229   0.21305   0.22932

 Mulliken charges:
               1
     1  H    0.337106
     2  H    0.337102
     3  B   -1.119057
     4  Si   2.987701
     5  F   -0.849854
     6  F   -0.846500
     7  F   -0.846498
 Sum of Mulliken charges =   0.00000

 Dipole moment (field-independent basis, Debye):
    X=              2.3065    Y=              0.0000    Z=             -0.3157  Tot=              2.3280

 Test job not archived.
 1\1\GINC-SE457\SP\RHF\Aug-CC-pVDZ\B1F3H2Si1\OHZDE\09-Apr-2025\0\\#t hf
  aug-cc-pvdz iop(5/13=1,5/36=2,99/5=2) pseudo=read geom=check guess=(r
 ead,tcheck) scf=(maxcycle=1)\\title\\0,1\H,0,2.613842,-1.023293,-0.229
 042\H,0,2.613826,1.023347,-0.229072\B,0,2.012127,0.000023,-0.192785\Si
 ,0,0.01611,0.000002,-0.015514\F,0,-0.368849,-0.000051,1.530531\F,0,-0.
 677471,1.27172,-0.674156\F,0,-0.677441,-1.271691,-0.674238\\Version=ES
 64L-G16RevC.01\State=1-A\HF=-613.6284516\RMSD=7.200e-03\Dipole=0.90742
 92,0.0000153,-0.1241883\Quadrupole=1.345723,-1.3788668,0.0331438,0.000

 Normal termination of Gaussian 16 at Wed Apr  9 00:34:51 2025.
