 Gaussian 16, Revision C.01,

 ----------------------------------------------------------------------
 #t hf aug-cc-pvdz symm=none int=(grid=ultrafine) guess=(read,tcheck) s
 table=(opt,rrhf)
 ----------------------------------------------------------------------
 -----
 title
 -----
 Symbolic Z-matrix:
 Charge =  0 Multiplicity = 1

 SCF Done:  E(RHF) =  -995.799856954     A.U. after   13 cycles
 Normal termination of Gaussian 16 at Tue Apr  8 23:47:46 2025.
 Gaussian 16:  ES64L-G16RevC.01  3-Jul-2019

 ----------------------------------------------------------------------
 #t hf aug-cc-pvdz iop(5/13=1,5/36=2,99/5=2) pseudo=read geom=check gue
 ss=(read,tcheck) scf=(maxcycle=1)
 ----------------------------------------------------------------------
 -----
 title
 -----
 Structure from the checkpoint file:  "BDE49_nonexpt_1791_mol1.chk"
 Charge =  0 Multiplicity = 1

                         Standard orientation:
 ---------------------------------------------------------------------
 Center     Atomic      Atomic             Coordinates (Angstroms)
 Number     Number       Type             X           Y           Z
 ---------------------------------------------------------------------
      1          6           0       -2.360075    1.140462   -0.216117
      2          6           0       -1.020345    1.193992    0.161620
      3          7           0       -3.030155   -0.000014   -0.404790
      4          6           0       -2.360064   -1.140479   -0.216078
      5          6           0       -1.020335   -1.193984    0.161661
      6          6           0       -0.314432    0.000011    0.358690
      7          1           0       -2.922543    2.056816   -0.372831
      8          1           0       -0.543471    2.158536    0.299722
      9          1           0       -2.922525   -2.056843   -0.372762
     10          1           0       -0.543451   -2.158519    0.299794
     11         14           0        1.484512    0.000028    0.865206
     12         17           0        2.718145   -0.000023   -0.817024
     13          1           0        1.801475   -1.221231    1.628773
     14          1           0        1.801471    1.221335    1.628698
 ---------------------------------------------------------------------

 SCF Done:  E(RHF) =  -996.160430292     A.U. after    2 cycles

 The electronic state is 1-A.
 Alpha  occ. eigenvalues -- -105.56136 -69.59084 -15.51910 -11.29104 -11.29103
 Alpha  occ. eigenvalues --  -11.26722 -11.26576 -11.26560 -10.61127  -7.78015
 Alpha  occ. eigenvalues --   -7.77707  -7.77705  -6.25752  -4.01181  -4.01049
 Alpha  occ. eigenvalues --   -4.01034  -1.27004  -1.10408  -1.05493  -1.04925
 Alpha  occ. eigenvalues --   -0.88861  -0.88157  -0.77068  -0.70374  -0.70260
 Alpha  occ. eigenvalues --   -0.66963  -0.62208  -0.57528  -0.55134  -0.54935
 Alpha  occ. eigenvalues --   -0.54127  -0.53759  -0.47872  -0.46101  -0.44713
 Alpha  occ. eigenvalues --   -0.41476  -0.36804
 Alpha virt. eigenvalues --    0.03035   0.03806   0.03992   0.04396   0.05251
 Alpha virt. eigenvalues --    0.05285   0.06122   0.08146   0.08364   0.08438
 Alpha virt. eigenvalues --    0.09591   0.10129   0.11210   0.12367   0.12776

 Mulliken charges:
               1
     1  C   -0.920876
     2  C    1.272408
     3  N    0.987523
     4  C   -0.920872
     5  C    1.272410
     6  C   -1.049533
     7  H   -0.168733
     8  H   -0.282376
     9  H   -0.168732
    10  H   -0.282377
    11  Si   1.133463
    12  Cl  -0.588776
    13  H   -0.141764
    14  H   -0.141765
 Sum of Mulliken charges =  -0.00000

 Dipole moment (field-independent basis, Debye):
    X=              0.7187    Y=              0.0001    Z=              1.8061  Tot=              1.9439

 Test job not archived.
 1\1\GINC-SE398\SP\RHF\Aug-CC-pVDZ\C5H6Cl1N1Si1\OHZDE\08-Apr-2025\0\\#t
  hf aug-cc-pvdz iop(5/13=1,5/36=2,99/5=2) pseudo=read geom=check guess
 =(read,tcheck) scf=(maxcycle=1)\\title\\0,1\C,0,-2.360075,1.140462,-0.
 216117\C,0,-1.020345,1.193992,0.16162\N,0,-3.030155,-0.000014,-0.40479
 \C,0,-2.360064,-1.140479,-0.216078\C,0,-1.020335,-1.193984,0.161661\C,
 0,-0.314432,0.000011,0.35869\H,0,-2.922543,2.056816,-0.372831\H,0,-0.5
 43471,2.158536,0.299722\H,0,-2.922525,-2.056843,-0.372762\H,0,-0.54345
 1,-2.158519,0.299794\Si,0,1.484512,0.000028,0.865206\Cl,0,2.718145,-0.

 Normal termination of Gaussian 16 at Tue Apr  8 23:47:51 2025.
