 Gaussian 16, Revision C.01,

 ----------------------------------------------------------------------
 #t hf aug-cc-pvdz symm=none int=(grid=ultrafine) guess=(read,tcheck) s
 table=(opt,rrhf)
 ----------------------------------------------------------------------
 -----
 title
 -----
 Symbolic Z-matrix:
 Charge =  0 Multiplicity = 1

 SCF Done:  E(RHF) =  -857.375379726     A.U. after   17 cycles
 Normal termination of Gaussian 16 at Tue Apr  8 23:11:00 2025.
 Gaussian 16:  ES64L-G16RevC.01  3-Jul-2019

 ----------------------------------------------------------------------
 #t hf aug-cc-pvdz iop(5/13=1,5/36=2,99/5=2) pseudo=read geom=check gue
 ss=(read,tcheck) scf=(maxcycle=1)
 ----------------------------------------------------------------------
 -----
 title
 -----
 Structure from the checkpoint file:  "BDE49_expt_678_mol1.chk"
 Charge =  0 Multiplicity = 1

                         Standard orientation:
 ---------------------------------------------------------------------
 Center     Atomic      Atomic             Coordinates (Angstroms)
 Number     Number       Type             X           Y           Z
 ---------------------------------------------------------------------
      1          6           0       -1.565937   -0.901695    0.000000
      2          6           0       -1.311069    0.466130    0.000000
      3          6           0       -0.494503   -1.786484    0.000000
      4          6           0        0.821597   -1.324659    0.000000
      5          6           0        1.063050    0.040537    0.000000
      6          6           0        0.000000    0.958024    0.000000
      7          1           0       -2.144762    1.160076    0.000000
      8          1           0       -2.580870   -1.277112    0.000000
      9          1           0        1.641263   -2.031492    0.000000
     10          1           0        2.079745    0.412480    0.000000
     11          6           0        0.218907    2.406130    0.000000
     12          7           0        1.394159    2.904578    0.000000
     13          1           0       -0.653161    3.062437    0.000000
     14          8           0        1.353300    4.299412    0.000000
     15          1           0        2.285249    4.540600    0.000000
     16         17           0       -0.800309   -3.514249    0.000000
 ---------------------------------------------------------------------

 SCF Done:  E(RHF) =  -857.851009574     A.U. after    2 cycles

 The electronic state is 1-A'.
 Alpha  occ. eigenvalues -- -105.57877 -20.59453 -15.57291 -11.32176 -11.29574
 Alpha  occ. eigenvalues --  -11.27093 -11.26996 -11.26662 -11.26602 -11.26488
 Alpha  occ. eigenvalues --  -10.62669  -7.79636  -7.79236  -7.79221  -1.51135
 Alpha  occ. eigenvalues --   -1.21029  -1.18172  -1.10428  -1.04502  -1.00798
 Alpha  occ. eigenvalues --   -0.88027  -0.86511  -0.80369  -0.75037  -0.71772
 Alpha  occ. eigenvalues --   -0.68256  -0.66460  -0.64880  -0.62461  -0.61605
 Alpha  occ. eigenvalues --   -0.60209  -0.56267  -0.54071  -0.53518  -0.49779
 Alpha  occ. eigenvalues --   -0.48394  -0.47129  -0.43443  -0.37064  -0.34059
 Alpha virt. eigenvalues --    0.03390   0.03642   0.04129   0.04988   0.05025
 Alpha virt. eigenvalues --    0.06180   0.07473   0.08213   0.09390   0.09596
 Alpha virt. eigenvalues --    0.10109   0.12043   0.12471   0.13303   0.13364

 Mulliken charges:
               1
     1  C    0.345247
     2  C    0.324148
     3  C   -0.544099
     4  C    0.434332
     5  C    0.216654
     6  C    1.627953
     7  H   -0.320558
     8  H   -0.193725
     9  H   -0.193104
    10  H   -0.290330
    11  C   -1.586734
    12  N    1.530889
    13  H   -0.203407
    14  O   -1.107621
    15  H    0.284597
    16  Cl  -0.324242
 Sum of Mulliken charges =   0.00000

 Dipole moment (field-independent basis, Debye):
    X=             -0.4176    Y=              0.9072    Z=              0.0000  Tot=              0.9987

 Test job not archived.
 1\1\GINC-SE435\SP\RHF\Aug-CC-pVDZ\C7H6Cl1N1O1\OHZDE\08-Apr-2025\0\\#t
 hf aug-cc-pvdz iop(5/13=1,5/36=2,99/5=2) pseudo=read geom=check guess=
 (read,tcheck) scf=(maxcycle=1)\\title\\0,1\C,0,-1.565937,-0.901695,0.\
 C,0,-1.311069,0.46613,0.\C,0,-0.494503,-1.786484,0.\C,0,0.821597,-1.32
 4659,0.\C,0,1.06305,0.040537,0.\C,0,0.,0.958024,0.\H,0,-2.144762,1.160
 076,0.\H,0,-2.58087,-1.277112,0.\H,0,1.641263,-2.031492,0.\H,0,2.07974
 5,0.41248,0.\C,0,0.218907,2.40613,0.\N,0,1.394159,2.904578,0.\H,0,-0.6
 53161,3.062437,0.\O,0,1.3533,4.299412,0.\H,0,2.285249,4.5406,0.\Cl,0,-

 Normal termination of Gaussian 16 at Tue Apr  8 23:11:08 2025.
