 Gaussian 16, Revision C.01,

 ----------------------------------------------------------------------
 #t hf aug-cc-pvdz symm=none int=(grid=ultrafine) guess=(read,tcheck) s
 table=opt
 ----------------------------------------------------------------------
 -----
 title
 -----
 Symbolic Z-matrix:
 Charge =  0 Multiplicity = 2

 SCF Done:  E(UHF) =  -631.164385572     A.U. after   15 cycles

 1\1\GINC-SE367\Stability\UHF\Aug-CC-pVDZ\C6H11S1\OHZDE\08-Apr-2025\0\\
 #t hf aug-cc-pvdz symm=none int=(grid=ultrafine) guess=(read,tcheck) s
 table=opt\\title\\0,2\S,0,2.455327,-0.000001,-0.052446\C,0,0.672786,-0
 .000006,0.3173\C,0,-0.038556,-1.275023,-0.170336\C,0,-1.528917,-1.2663
 24,0.208231\H,0,0.461271,-2.154952,0.241564\H,0,0.061156,-1.337398,-1.
 260597\C,0,-2.236469,0.000005,-0.291871\H,0,-1.623807,-1.3265,1.300239
 \H,0,-2.014717,-2.160504,-0.194786\C,0,-1.528908,1.266329,0.20823\H,0,
 -3.283017,0.000009,0.028552\H,0,-2.245624,0.000004,-1.389392\C,0,-0.03

 Normal termination of Gaussian 16 at Tue Apr  8 22:54:30 2025.
 Gaussian 16:  ES64L-G16RevC.01  3-Jul-2019

 ----------------------------------------------------------------------
 #t hf aug-cc-pvdz iop(5/13=1,5/36=2,99/5=2) pseudo=read geom=check gue
 ss=(read,tcheck) scf=(maxcycle=1)
 ----------------------------------------------------------------------
 -----
 title
 -----
 Structure from the checkpoint file:  "BDE49_expt_1822_mol2.chk"
 Charge =  0 Multiplicity = 2

                         Standard orientation:
 ---------------------------------------------------------------------
 Center     Atomic      Atomic             Coordinates (Angstroms)
 Number     Number       Type             X           Y           Z
 ---------------------------------------------------------------------
      1         16           0        2.455327   -0.000001   -0.052446
      2          6           0        0.672786   -0.000006    0.317300
      3          6           0       -0.038556   -1.275023   -0.170336
      4          6           0       -1.528917   -1.266324    0.208231
      5          1           0        0.461271   -2.154952    0.241564
      6          1           0        0.061156   -1.337398   -1.260597
      7          6           0       -2.236469    0.000005   -0.291871
      8          1           0       -1.623807   -1.326500    1.300239
      9          1           0       -2.014717   -2.160504   -0.194786
     10          6           0       -1.528908    1.266329    0.208230
     11          1           0       -3.283017    0.000008    0.028552
     12          1           0       -2.245624    0.000004   -1.389392
     13          6           0       -0.038547    1.275019   -0.170334
     14          1           0       -1.623798    1.326507    1.300238
     15          1           0       -2.014702    2.160512   -0.194789
     16          1           0        0.061165    1.337396   -1.260596
     17          1           0        0.461286    2.154944    0.241569
     18          1           0        0.667222   -0.000001    1.419816
 ---------------------------------------------------------------------

 SCF Done:  E(UHF) =  -631.474601977     A.U. after    2 cycles

 The electronic state is 2-A.
 Alpha  occ. eigenvalues --  -93.95822 -11.27328 -11.23636 -11.23617 -11.23311
 Alpha  occ. eigenvalues --  -11.23296 -11.23126  -8.23851  -6.23031  -6.21262
 Alpha  occ. eigenvalues --   -6.20965  -1.13904  -1.05501  -1.01265  -0.94891
 Alpha  occ. eigenvalues --   -0.84615  -0.81605  -0.76743  -0.66051  -0.62346
 Alpha  occ. eigenvalues --   -0.61595  -0.60787  -0.55087  -0.54471  -0.52715
 Alpha  occ. eigenvalues --   -0.51122  -0.50003  -0.46991  -0.45446  -0.44004
 Alpha  occ. eigenvalues --   -0.42429  -0.37012
 Alpha virt. eigenvalues --    0.03347   0.03489   0.03541   0.04429   0.05934
 Alpha virt. eigenvalues --    0.06100   0.06500   0.06612   0.06814   0.09255
 Alpha virt. eigenvalues --    0.09408   0.09542   0.13052   0.13573   0.13929

  Beta  occ. eigenvalues --  -93.94934 -11.27456 -11.23602 -11.23584 -11.23315
  Beta  occ. eigenvalues --  -11.23299 -11.23125  -8.22832  -6.20734  -6.20432
  Beta  occ. eigenvalues --   -6.19083  -1.13341  -1.03513  -1.01240  -0.90178
  Beta  occ. eigenvalues --   -0.84566  -0.79663  -0.75957  -0.65669  -0.61961
  Beta  occ. eigenvalues --   -0.61598  -0.60159  -0.54944  -0.54450  -0.51946
  Beta  occ. eigenvalues --   -0.49997  -0.49956  -0.46685  -0.45345  -0.43221
  Beta  occ. eigenvalues --   -0.34890
  Beta virt. eigenvalues --    0.01091   0.03481   0.03544   0.03645   0.04486
  Beta virt. eigenvalues --    0.05951   0.06110   0.06514   0.06883   0.07158
  Beta virt. eigenvalues --    0.09276   0.09416   0.09669   0.13068   0.13637

 Mulliken charges and spin densities:
               1          2
     1  S    0.263184   1.088678
     2  C   -0.558666  -0.136659
     3  C   -0.242415   0.019857
     4  C   -0.288206   0.001567
     5  H    0.118805  -0.011676
     6  H    0.199238   0.005665
     7  C   -0.252398  -0.000117
     8  H    0.145112  -0.001148
     9  H    0.103310  -0.000512
    10  C   -0.288210   0.001568
    11  H    0.119752   0.000127
    12  H    0.149717  -0.000773
    13  C   -0.242410   0.019859
    14  H    0.145113  -0.001148
    15  H    0.103312  -0.000512
    16  H    0.199239   0.005665
    17  H    0.118805  -0.011677
    18  H    0.206720   0.021236
 Sum of Mulliken charges =  -0.00000   1.00000

 Dipole moment (field-independent basis, Debye):
    X=             -2.1509    Y=              0.0000    Z=              0.3538  Tot=              2.1798
                          Isotropic Fermi Contact Couplings
        Atom                 a.u.       MegaHertz       Gauss      10(-4) cm-1
     1  S(33)              0.16909      58.07757      20.72352      19.37259
     2  C(13)             -0.02636     -29.63107     -10.57310      -9.88386
     3  C(13)              0.00703       7.90279       2.81991       2.63609
     4  C(13)             -0.00101      -1.13451      -0.40482      -0.37843
     5  H(1)              -0.00033      -1.45908      -0.52064      -0.48670
     6  H(1)              -0.00043      -1.94236      -0.69308      -0.64790
     7  C(13)              0.00022       0.24410       0.08710       0.08142
     8  H(1)               0.00008       0.34332       0.12251       0.11452

 Normal termination of Gaussian 16 at Tue Apr  8 22:54:38 2025.
