 Gaussian 16, Revision C.01,

 ----------------------------------------------------------------------
 #t hf aug-cc-pvdz symm=none int=(grid=ultrafine) guess=(read,tcheck) s
 table=(opt,rrhf)
 ----------------------------------------------------------------------
 -----
 title
 -----
 Symbolic Z-matrix:
 Charge =  0 Multiplicity = 1

 SCF Done:  E(RHF) =  -1368.41329119     A.U. after   17 cycles
 Normal termination of Gaussian 16 at Wed Apr  9 00:33:02 2025.
 Gaussian 16:  ES64L-G16RevC.01  3-Jul-2019

 ----------------------------------------------------------------------
 #t hf aug-cc-pvdz iop(5/13=1,5/36=2,99/5=2) pseudo=read geom=check gue
 ss=(read,tcheck) scf=(maxcycle=1)
 ----------------------------------------------------------------------
 -----
 title
 -----
 Structure from the checkpoint file:  "BDE49_nonexpt_2725_mol1.chk"
 Charge =  0 Multiplicity = 1

                         Standard orientation:
 ---------------------------------------------------------------------
 Center     Atomic      Atomic             Coordinates (Angstroms)
 Number     Number       Type             X           Y           Z
 ---------------------------------------------------------------------
      1          6           0        0.853991    0.039005   -0.442206
      2          8           0        0.152256    0.917789   -0.860145
      3         16           0        0.177375   -1.635271   -0.040611
      4         16           0       -1.756735   -1.446134   -0.734607
      5          6           0       -2.561680   -0.477462    0.604130
      6          8           0       -1.982271   -0.087804    1.573408
      7          6           0        2.308865    0.195900   -0.155080
      8          6           0        2.824893    1.498945   -0.152773
      9          6           0        4.172184    1.715197    0.104967
     10          6           0        5.017427    0.634053    0.355768
     11          6           0        4.511873   -0.664519    0.346606
     12          6           0        3.162216   -0.885621    0.092312
     13          1           0        2.783544   -1.900398    0.072298
     14          1           0        2.152771    2.323648   -0.353098
     15          1           0        4.565260    2.725246    0.110483
     16          1           0        6.069450    0.803379    0.555614
     17          1           0        5.169027   -1.505645    0.533456
     18          6           0       -4.031025   -0.228248    0.306952
     19          6           0       -4.406122    1.252380    0.492769
     20          1           0       -4.591937   -0.851519    1.012788
     21          1           0       -4.282232   -0.573355   -0.700889
     22          6           0       -3.773125    2.172612   -0.554871
     23          1           0       -4.098249    1.558031    1.496184
     24          1           0       -5.496765    1.335543    0.454549
     25          1           0       -2.681745    2.115848   -0.532091
     26          1           0       -4.057253    3.213012   -0.378424
     27          1           0       -4.098969    1.905365   -1.564914
 ---------------------------------------------------------------------

 SCF Done:  E(RHF) =  -1369.11266927     A.U. after    2 cycles

 The electronic state is 1-A.
 Alpha  occ. eigenvalues --  -93.99044 -93.99011 -20.55652 -20.55503 -11.38514
 Alpha  occ. eigenvalues --  -11.37782 -11.27142 -11.27043 -11.26804 -11.26521
 Alpha  occ. eigenvalues --  -11.26087 -11.26047 -11.25903 -11.24244 -11.22411
 Alpha  occ. eigenvalues --   -8.27062  -8.27014  -6.24857  -6.24798  -6.24635
 Alpha  occ. eigenvalues --   -6.24579  -6.24422  -6.24378  -1.50009  -1.49748
 Alpha  occ. eigenvalues --   -1.17980  -1.12018  -1.08794  -1.05844  -1.03888
 Alpha  occ. eigenvalues --   -0.99202  -0.94521  -0.88416  -0.85605  -0.83323
 Alpha  occ. eigenvalues --   -0.78326  -0.74444  -0.72572  -0.68349  -0.67267
 Alpha  occ. eigenvalues --   -0.66877  -0.65240  -0.64138  -0.63285  -0.62075
 Alpha  occ. eigenvalues --   -0.61000  -0.60029  -0.58093  -0.56492  -0.54934
 Alpha  occ. eigenvalues --   -0.54492  -0.52491  -0.51943  -0.51121  -0.49450
 Alpha  occ. eigenvalues --   -0.49278  -0.48179  -0.43006  -0.42308  -0.38933
 Alpha  occ. eigenvalues --   -0.38052  -0.36433  -0.36386
 Alpha virt. eigenvalues --    0.02952   0.03496   0.03590   0.04128   0.04522
 Alpha virt. eigenvalues --    0.04670   0.05126   0.05860   0.06322   0.07096
 Alpha virt. eigenvalues --    0.07413   0.07725   0.08668   0.09243   0.09524

 Mulliken charges:
               1
     1  C   -0.107418
     2  O   -1.412166
     3  S   -0.061469
     4  S    0.063142
     5  C    1.293222
     6  O   -1.318997
     7  C    2.350583
     8  C   -0.425202
     9  C    0.499671
    10  C   -0.042361
    11  C    0.183018
    12  C    0.078642
    13  H   -0.171389
    14  H   -0.330641
    15  H   -0.218809
    16  H   -0.209705
    17  H   -0.243400
    18  C   -0.491319
    19  C   -0.306587
    20  H    0.283163
    21  H    0.213149
    22  C   -0.290046
    23  H    0.139597
    24  H    0.128968
    25  H    0.134724
    26  H    0.114999
    27  H    0.146632
 Sum of Mulliken charges =   0.00000

 Dipole moment (field-independent basis, Debye):
    X=              1.0524    Y=              0.1147    Z=             -0.2051  Tot=              1.0783

 Test job not archived.
 1\1\GINC-SE165\SP\RHF\Aug-CC-pVDZ\C11H12O2S2\OHZDE\09-Apr-2025\0\\#t h
 f aug-cc-pvdz iop(5/13=1,5/36=2,99/5=2) pseudo=read geom=check guess=(
 read,tcheck) scf=(maxcycle=1)\\title\\0,1\C,0,0.853991,0.039005,-0.442
 206\O,0,0.152256,0.917789,-0.860145\S,0,0.177375,-1.635271,-0.040611\S
 ,0,-1.756735,-1.446134,-0.734607\C,0,-2.56168,-0.477462,0.60413\O,0,-1
 .982271,-0.087804,1.573408\C,0,2.308865,0.1959,-0.15508\C,0,2.824893,1
 .498945,-0.152773\C,0,4.172184,1.715197,0.104967\C,0,5.017427,0.634053
 ,0.355768\C,0,4.511873,-0.664519,0.346606\C,0,3.162216,-0.885621,0.092

 Normal termination of Gaussian 16 at Wed Apr  9 00:33:31 2025.
