 Gaussian 16, Revision C.01,

 ----------------------------------------------------------------------
 #t hf aug-cc-pvdz symm=none int=(grid=ultrafine) guess=(read,tcheck) s
 table=(opt,rrhf)
 ----------------------------------------------------------------------
 -----
 title
 -----
 Symbolic Z-matrix:
 Charge =  0 Multiplicity = 1

 SCF Done:  E(RHF) =  -441.917786231     A.U. after   14 cycles
 Normal termination of Gaussian 16 at Wed Apr  9 00:40:00 2025.
 Gaussian 16:  ES64L-G16RevC.01  3-Jul-2019

 ----------------------------------------------------------------------
 #t hf aug-cc-pvdz iop(5/13=1,5/36=2,99/5=2) pseudo=read geom=check gue
 ss=(read,tcheck) scf=(maxcycle=1)
 ----------------------------------------------------------------------
 -----
 title
 -----
 Structure from the checkpoint file:  "BDE49_nonexpt_621_mol1.chk"
 Charge =  0 Multiplicity = 1

                         Standard orientation:
 ---------------------------------------------------------------------
 Center     Atomic      Atomic             Coordinates (Angstroms)
 Number     Number       Type             X           Y           Z
 ---------------------------------------------------------------------
      1          8           0       -0.562559    0.555845    0.463654
      2          5           0       -1.735714   -0.055363    0.008361
      3          8           0       -1.795408   -1.337428   -0.435447
      4          8           0       -2.824489    0.754743    0.048593
      5          8           0        0.517459   -0.405299    0.422851
      6          6           0        1.689254    0.182576   -0.022310
      7          6           0        1.814798    1.444120   -0.418838
      8          6           0        2.769812   -0.855382    0.041590
      9          1           0        3.713020   -0.428318   -0.297404
     10          1           0        2.528212   -1.714716   -0.591265
     11          1           0        2.894261   -1.220518    1.064808
     12          1           0        0.981666    2.129230   -0.416578
     13          1           0        2.783260    1.799290   -0.741512
     14          1           0       -3.612272    0.305089   -0.269671
     15          1           0       -0.932782   -1.764016   -0.390032
 ---------------------------------------------------------------------

 SCF Done:  E(RHF) =  -442.360426891     A.U. after    2 cycles

 The electronic state is 1-A.
 Alpha  occ. eigenvalues --  -20.64606 -20.61967 -20.56696 -20.56268 -11.31763
 Alpha  occ. eigenvalues --  -11.25269 -11.22644  -7.68080  -1.61734  -1.49021
 Alpha  occ. eigenvalues --   -1.45493  -1.32935  -1.06212  -0.96386  -0.80234
 Alpha  occ. eigenvalues --   -0.76981  -0.75709  -0.71188  -0.68521  -0.66878
 Alpha  occ. eigenvalues --   -0.61767  -0.60215  -0.57360  -0.57095  -0.56684
 Alpha  occ. eigenvalues --   -0.56237  -0.54246  -0.51925  -0.50535  -0.48262
 Alpha  occ. eigenvalues --   -0.35994
 Alpha virt. eigenvalues --    0.03330   0.04098   0.04325   0.04900   0.05663
 Alpha virt. eigenvalues --    0.06240   0.06899   0.08552   0.08890   0.09525
 Alpha virt. eigenvalues --    0.11100   0.11604   0.12688   0.14067   0.15816

 Mulliken charges:
               1
     1  O   -0.435424
     2  B    1.962490
     3  O   -1.164865
     4  O   -1.105900
     5  O   -1.524195
     6  C    1.580734
     7  C   -0.104799
     8  C   -0.643504
     9  H    0.128203
    10  H    0.211341
    11  H    0.230572
    12  H   -0.090315
    13  H   -0.109504
    14  H    0.438544
    15  H    0.626623
 Sum of Mulliken charges =  -0.00000

 Dipole moment (field-independent basis, Debye):
    X=              1.2301    Y=             -1.6278    Z=             -0.8711  Tot=              2.2185

 Test job not archived.
 1\1\GINC-SE132\SP\RHF\Aug-CC-pVDZ\C3H7B1O4\OHZDE\09-Apr-2025\0\\#t hf
 aug-cc-pvdz iop(5/13=1,5/36=2,99/5=2) pseudo=read geom=check guess=(re
 ad,tcheck) scf=(maxcycle=1)\\title\\0,1\O,0,-0.562559,0.555845,0.46365
 4\B,0,-1.735714,-0.055363,0.008361\O,0,-1.795408,-1.337428,-0.435447\O
 ,0,-2.824489,0.754743,0.048593\O,0,0.517459,-0.405299,0.422851\C,0,1.6
 89254,0.182576,-0.02231\C,0,1.814798,1.44412,-0.418838\C,0,2.769812,-0
 .855382,0.04159\H,0,3.71302,-0.428318,-0.297404\H,0,2.528212,-1.714716
 ,-0.591265\H,0,2.894261,-1.220518,1.064808\H,0,0.981666,2.12923,-0.416

 Normal termination of Gaussian 16 at Wed Apr  9 00:40:06 2025.
