 Gaussian 16, Revision C.01,

 ----------------------------------------------------------------------
 #t hf aug-cc-pvdz symm=none int=(grid=ultrafine) guess=(read,tcheck) s
 table=opt
 ----------------------------------------------------------------------
 -----
 title
 -----
 Symbolic Z-matrix:
 Charge =  0 Multiplicity = 2

 SCF Done:  E(UHF) =  -103.846415202     A.U. after   16 cycles
 Normal termination of Gaussian 16 at Wed Apr  9 00:28:13 2025.
 Gaussian 16:  ES64L-G16RevC.01  3-Jul-2019

 ----------------------------------------------------------------------
 #t hf aug-cc-pvdz iop(5/13=1,5/36=2,99/5=2) pseudo=read geom=check gue
 ss=(read,tcheck) scf=(maxcycle=1)
 ----------------------------------------------------------------------
 -----
 title
 -----
 Structure from the checkpoint file:  "BDE49_nonexpt_2_mol2.chk"
 Charge =  0 Multiplicity = 2

                         Standard orientation:
 ---------------------------------------------------------------------
 Center     Atomic      Atomic             Coordinates (Angstroms)
 Number     Number       Type             X           Y           Z
 ---------------------------------------------------------------------
      1          5           0        1.525439   -0.248684   -0.092168
      2          6           0        0.202541    0.535796    0.013853
      3          6           0       -1.118956   -0.263275   -0.010967
      4          1           0        0.321558    1.023215    1.002428
      5          1           0        0.164000    1.377669   -0.687581
      6          1           0       -1.116642   -1.055213    0.741868
      7          1           0       -1.271609   -0.735194   -0.984918
      8          1           0       -1.980399    0.383378    0.180262
      9          1           0        1.754393   -1.385560    0.191466
 ---------------------------------------------------------------------

 SCF Done:  E(UHF) =  -103.960101922     A.U. after    2 cycles

 The electronic state is 2-A.
 Alpha  occ. eigenvalues --  -11.23233 -11.22051  -7.61407  -1.03219  -0.86578
 Alpha  occ. eigenvalues --   -0.67473  -0.60900  -0.57294  -0.54030  -0.50353
 Alpha  occ. eigenvalues --   -0.47479  -0.32416
 Alpha virt. eigenvalues --    0.03415   0.03716   0.04131   0.04730   0.06365
 Alpha virt. eigenvalues --    0.06729   0.07362   0.07730   0.11002   0.11069
 Alpha virt. eigenvalues --    0.13102   0.14330   0.15267   0.16996   0.17253

  Beta  occ. eigenvalues --  -11.23089 -11.22077  -7.59637  -1.02668  -0.85831
  Beta  occ. eigenvalues --   -0.64337  -0.60640  -0.55643  -0.52837  -0.50085
  Beta  occ. eigenvalues --   -0.46655
  Beta virt. eigenvalues --    0.03631   0.03689   0.03944   0.04378   0.06763
  Beta virt. eigenvalues --    0.06943   0.07246   0.07613   0.10157   0.11609
  Beta virt. eigenvalues --    0.12467   0.13760   0.15131   0.15390   0.17246

 Mulliken charges and spin densities:
               1          2
     1  B   -0.270091   0.995846
     2  C   -0.274033  -0.042832
     3  C   -0.461368   0.043513
     4  H    0.169316  -0.013571
     5  H    0.116979  -0.000803
     6  H    0.124919  -0.000517
     7  H    0.137601  -0.003365
     8  H    0.143033   0.005341
     9  H    0.313644   0.016388
 Sum of Mulliken charges =  -0.00000   1.00000

 Dipole moment (field-independent basis, Debye):
    X=             -0.9940    Y=              0.1213    Z=              0.2360  Tot=              1.0288
                          Isotropic Fermi Contact Couplings
        Atom                 a.u.       MegaHertz       Gauss      10(-4) cm-1
     1  B(11)              0.24417     350.22739     124.96984     116.82328
     2  C(13)              0.00662       7.44323       2.65593       2.48280
     3  C(13)              0.03474      39.05560      13.93601      13.02755
     4  H(1)              -0.00120      -5.35819      -1.91193      -1.78730
     5  H(1)               0.00552      24.69392       8.81141       8.23701
     6  H(1)              -0.00070      -3.12808      -1.11618      -1.04341
     7  H(1)              -0.00087      -3.89707      -1.39057      -1.29992
     8  H(1)               0.00171       7.64097       2.72649       2.54875

 Normal termination of Gaussian 16 at Wed Apr  9 00:28:15 2025.
