 Gaussian 16, Revision C.01,

 ----------------------------------------------------------------------
 #t hf aug-cc-pvdz symm=none int=(grid=ultrafine) guess=(read,tcheck) s
 table=(opt,rrhf)
 ----------------------------------------------------------------------
 -----
 title
 -----
 Symbolic Z-matrix:
 Charge =  0 Multiplicity = 1

 SCF Done:  E(RHF) =  -256.192852466     A.U. after   12 cycles
 Normal termination of Gaussian 16 at Tue Apr  8 22:44:41 2025.
 Gaussian 16:  ES64L-G16RevC.01  3-Jul-2019

 ----------------------------------------------------------------------
 #t hf aug-cc-pvdz iop(5/13=1,5/36=2,99/5=2) pseudo=read geom=check gue
 ss=(read,tcheck) scf=(maxcycle=1)
 ----------------------------------------------------------------------
 -----
 title
 -----
 Structure from the checkpoint file:  "BDE49_expt_1523_mol1.chk"
 Charge =  0 Multiplicity = 1

                         Standard orientation:
 ---------------------------------------------------------------------
 Center     Atomic      Atomic             Coordinates (Angstroms)
 Number     Number       Type             X           Y           Z
 ---------------------------------------------------------------------
      1          6           0        0.000005   -0.000014   -0.006964
      2          6           0       -0.344730    1.421591   -0.435798
      3          9           0       -0.000044    0.000053    1.416153
      4          1           0        0.396591    2.123452   -0.047508
      5          1           0       -1.325064    1.706048   -0.047241
      6          6           0        1.403556   -0.412267   -0.435681
      7          1           0        2.139976    0.294735   -0.047382
      8          1           0        1.486475   -0.436850   -1.525543
      9          1           0        1.640839   -1.405026   -0.047020
     10          1           0       -0.365240    1.505462   -1.525668
     11          6           0       -1.058788   -1.009368   -0.435715
     12          1           0       -2.037218   -0.718327   -0.047255
     13          1           0       -0.814884   -2.000600   -0.047239
     14          1           0       -1.121340   -1.069023   -1.525577
 ---------------------------------------------------------------------

 SCF Done:  E(RHF) =  -256.461560105     A.U. after    2 cycles

 The electronic state is 1-A.
 Alpha  occ. eigenvalues --  -26.42566 -11.32163 -11.23171 -11.23171 -11.23133
 Alpha  occ. eigenvalues --   -1.54350  -1.08501  -0.95277  -0.95277  -0.78127
 Alpha  occ. eigenvalues --   -0.66003  -0.65907  -0.65907  -0.58440  -0.58439
 Alpha  occ. eigenvalues --   -0.54930  -0.53879  -0.53879  -0.53147  -0.47982
 Alpha  occ. eigenvalues --   -0.47982
 Alpha virt. eigenvalues --    0.03605   0.04120   0.04120   0.04975   0.06840
 Alpha virt. eigenvalues --    0.06840   0.07376   0.07377   0.09640   0.10229
 Alpha virt. eigenvalues --    0.14895   0.14895   0.15521   0.15923   0.15923

 Mulliken charges:
               1
     1  C   -0.210570
     2  C   -0.197442
     3  F   -0.929041
     4  H    0.172728
     5  H    0.172760
     6  C   -0.197424
     7  H    0.172754
     8  H    0.231786
     9  H    0.172749
    10  H    0.231790
    11  C   -0.197389
    12  H    0.172780
    13  H    0.172768
    14  H    0.231751
 Sum of Mulliken charges =  -0.00000

 Dipole moment (field-independent basis, Debye):
    X=              0.0001    Y=             -0.0001    Z=             -2.0474  Tot=              2.0474

 Test job not archived.
 1\1\GINC-SE343\SP\RHF\Aug-CC-pVDZ\C4H9F1\OHZDE\08-Apr-2025\0\\#t hf au
 g-cc-pvdz iop(5/13=1,5/36=2,99/5=2) pseudo=read geom=check guess=(read
 ,tcheck) scf=(maxcycle=1)\\title\\0,1\C,0,-0.000005,0.000014,-0.006964
 \C,0,0.345549,-1.421392,-0.435798\F,0,0.000044,-0.000053,1.416153\H,0,
 -0.395367,-2.12368,-0.047508\H,0,1.326047,-1.705284,-0.047241\C,0,-1.4
 03793,0.411458,-0.435681\H,0,-2.139806,-0.295968,-0.047382\H,0,-1.4867
 26,0.435993,-1.525543\H,0,-1.641648,1.40408,-0.04702\H,0,0.366108,-1.5
 05251,-1.525668\C,0,1.058206,1.009978,-0.435715\H,0,2.036804,0.719501,

 Normal termination of Gaussian 16 at Tue Apr  8 22:44:45 2025.
