 Gaussian 16, Revision C.01,

 ----------------------------------------------------------------------
 #t hf aug-cc-pvdz symm=none int=(grid=ultrafine) guess=(read,tcheck) s
 table=(opt,rrhf)
 ----------------------------------------------------------------------
 -----
 title
 -----
 Symbolic Z-matrix:
 Charge =  0 Multiplicity = 1

 SCF Done:  E(RHF) =  -544.475317983     A.U. after   12 cycles
 Normal termination of Gaussian 16 at Wed Apr  9 00:45:13 2025.
 Gaussian 16:  ES64L-G16RevC.01  3-Jul-2019

 ----------------------------------------------------------------------
 #t hf aug-cc-pvdz iop(5/13=1,5/36=2,99/5=2) pseudo=read geom=check gue
 ss=(read,tcheck) scf=(maxcycle=1)
 ----------------------------------------------------------------------
 -----
 title
 -----
 Structure from the checkpoint file:  "BDE49_nonexpt_784_mol1.chk"
 Charge =  0 Multiplicity = 1

                         Standard orientation:
 ---------------------------------------------------------------------
 Center     Atomic      Atomic             Coordinates (Angstroms)
 Number     Number       Type             X           Y           Z
 ---------------------------------------------------------------------
      1         14           0        0.751101   -0.000002   -0.446623
      2          5           0       -1.234006   -0.000011    0.022176
      3          8           0       -2.257714   -0.000007   -0.892102
      4          8           0       -1.575603    0.000007    1.342901
      5          6           0        1.603872   -1.547970    0.219572
      6          1           0        1.166994   -2.456971   -0.203185
      7          1           0        1.499557   -1.603492    1.306945
      8          6           0        1.603858    1.547979    0.219559
      9          1           0        1.499543    1.603509    1.306932
     10          1           0        1.166972    2.456972   -0.203205
     11          1           0        2.671378    1.546012   -0.019448
     12          1           0        2.671391   -1.545995   -0.019435
     13          1           0       -1.951459   -0.000007   -1.802601
     14          1           0       -2.533643    0.000010    1.470674
     15          1           0        0.884041   -0.000008   -1.936011
 ---------------------------------------------------------------------

 SCF Done:  E(RHF) =  -544.773836445     A.U. after    2 cycles

 The electronic state is 1-A.
 Alpha  occ. eigenvalues --  -69.50419 -20.56238 -20.55505 -11.21131 -11.21126
 Alpha  occ. eigenvalues --   -7.63457  -6.17601  -3.92956  -3.92934  -3.92906
 Alpha  occ. eigenvalues --   -1.48190  -1.43736  -0.96128  -0.92609  -0.77516
 Alpha  occ. eigenvalues --   -0.73637  -0.67875  -0.60169  -0.57032  -0.56941
 Alpha  occ. eigenvalues --   -0.56574  -0.55563  -0.54688  -0.54566  -0.49106
 Alpha  occ. eigenvalues --   -0.45180  -0.44371  -0.40619
 Alpha virt. eigenvalues --    0.03289   0.03935   0.04067   0.04241   0.06277
 Alpha virt. eigenvalues --    0.06423   0.06592   0.07038   0.07196   0.09637
 Alpha virt. eigenvalues --    0.09930   0.10038   0.10048   0.11486   0.11790

 Mulliken charges:
               1
     1  Si   1.425512
     2  B    1.520958
     3  O   -1.388900
     4  O   -1.265390
     5  C   -0.621387
     6  H   -0.060784
     7  H    0.117378
     8  C   -0.621389
     9  H    0.117379
    10  H   -0.060787
    11  H   -0.011910
    12  H   -0.011913
    13  H    0.546060
    14  H    0.515574
    15  H   -0.200400
 Sum of Mulliken charges =  -0.00000

 Dipole moment (field-independent basis, Debye):
    X=             -0.2307    Y=             -0.0000    Z=             -0.7559  Tot=              0.7903

 Test job not archived.
 1\1\GINC-SE461\SP\RHF\Aug-CC-pVDZ\C2H9B1O2Si1\OHZDE\09-Apr-2025\0\\#t
 hf aug-cc-pvdz iop(5/13=1,5/36=2,99/5=2) pseudo=read geom=check guess=
 (read,tcheck) scf=(maxcycle=1)\\title\\0,1\Si,0,0.751101,-0.000002,-0.
 446623\B,0,-1.234006,-0.000011,0.022176\O,0,-2.257714,-0.000007,-0.892
 102\O,0,-1.575603,0.000007,1.342901\C,0,1.603872,-1.54797,0.219572\H,0
 ,1.166994,-2.456971,-0.203185\H,0,1.499557,-1.603492,1.306945\C,0,1.60
 3858,1.547979,0.219559\H,0,1.499543,1.603509,1.306932\H,0,1.166972,2.4
 56972,-0.203205\H,0,2.671378,1.546012,-0.019448\H,0,2.671391,-1.545995

 Normal termination of Gaussian 16 at Wed Apr  9 00:45:18 2025.
