 Gaussian 16, Revision C.01,

 ----------------------------------------------------------------------
 #t hf aug-cc-pvdz symm=none int=(grid=ultrafine) guess=(read,tcheck) s
 table=(opt,rrhf)
 ----------------------------------------------------------------------
 -----
 title
 -----
 Symbolic Z-matrix:
 Charge =  0 Multiplicity = 1

 SCF Done:  E(RHF) =  -1016.72505471     A.U. after   13 cycles
 Normal termination of Gaussian 16 at Wed Apr  9 00:12:35 2025.
 Gaussian 16:  ES64L-G16RevC.01  3-Jul-2019

 ----------------------------------------------------------------------
 #t hf aug-cc-pvdz iop(5/13=1,5/36=2,99/5=2) pseudo=read geom=check gue
 ss=(read,tcheck) scf=(maxcycle=1)
 ----------------------------------------------------------------------
 -----
 title
 -----
 Structure from the checkpoint file:  "BDE49_nonexpt_2430_mol1.chk"
 Charge =  0 Multiplicity = 1

                         Standard orientation:
 ---------------------------------------------------------------------
 Center     Atomic      Atomic             Coordinates (Angstroms)
 Number     Number       Type             X           Y           Z
 ---------------------------------------------------------------------
      1         14           0        1.851148   -0.763962    0.000002
      2         14           0        0.506720    1.170807    0.000019
      3          1           0        3.269601   -0.327296   -0.000007
      4          1           0        1.603123   -1.576447   -1.211820
      5          1           0        1.603144   -1.576458    1.211822
      6          6           0       -1.340141    0.743923    0.000003
      7          1           0        0.762349    2.019462   -1.194026
      8          1           0        0.762326    2.019423    1.194096
      9         16           0       -1.932306   -0.768311   -0.000020
     10          1           0       -2.052952    1.574932   -0.000058
 ---------------------------------------------------------------------

 SCF Done:  E(RHF) =  -1016.89048255     A.U. after    2 cycles

 The electronic state is 1-A.
 Alpha  occ. eigenvalues --  -93.95513 -69.54519 -69.53258 -11.31794  -8.23648
 Alpha  occ. eigenvalues --   -6.21704  -6.21432  -6.21315  -6.21020  -6.20446
 Alpha  occ. eigenvalues --   -3.97058  -3.97026  -3.97012  -3.95804  -3.95798
 Alpha  occ. eigenvalues --   -3.95794  -1.08779  -0.83794  -0.77042  -0.69403
 Alpha  occ. eigenvalues --   -0.59226  -0.52378  -0.52104  -0.48989  -0.48741
 Alpha  occ. eigenvalues --   -0.42372  -0.42253  -0.35096
 Alpha virt. eigenvalues --    0.02249   0.03257   0.03859   0.04904   0.05879
 Alpha virt. eigenvalues --    0.06441   0.07105   0.07327   0.08031   0.09080
 Alpha virt. eigenvalues --    0.09832   0.10266   0.10271   0.10978   0.13407

 Mulliken charges:
               1
     1  Si   0.297628
     2  Si   1.028750
     3  H   -0.141456
     4  H   -0.104711
     5  H   -0.104717
     6  C   -0.784240
     7  H   -0.180401
     8  H   -0.180405
     9  S    0.184040
    10  H   -0.014489
 Sum of Mulliken charges =  -0.00000

 Dipole moment (field-independent basis, Debye):
    X=              0.7983    Y=              1.6246    Z=             -0.0000  Tot=              1.8102

 Test job not archived.
 1\1\GINC-SE345\SP\RHF\Aug-CC-pVDZ\C1H6S1Si2\OHZDE\09-Apr-2025\0\\#t hf
  aug-cc-pvdz iop(5/13=1,5/36=2,99/5=2) pseudo=read geom=check guess=(r
 ead,tcheck) scf=(maxcycle=1)\\title\\0,1\Si,0,1.851148,-0.763962,0.000
 002\Si,0,0.50672,1.170807,0.000019\H,0,3.269601,-0.327296,-0.000007\H,
 0,1.603123,-1.576447,-1.21182\H,0,1.603144,-1.576458,1.211822\C,0,-1.3
 40141,0.743923,0.000003\H,0,0.762349,2.019462,-1.194026\H,0,0.762326,2
 .019423,1.194096\S,0,-1.932306,-0.768311,-0.00002\H,0,-2.052952,1.5749
 32,-0.000058\\Version=ES64L-G16RevC.01\State=1-A\HF=-1016.8904825\RMSD

 Normal termination of Gaussian 16 at Wed Apr  9 00:12:39 2025.
