 Gaussian 16, Revision C.01,

 ----------------------------------------------------------------------
 #t hf aug-cc-pvdz symm=none int=(grid=ultrafine) guess=(read,tcheck) s
 table=(opt,rrhf)
 ----------------------------------------------------------------------
 -----
 title
 -----
 Symbolic Z-matrix:
 Charge =  0 Multiplicity = 1

 SCF Done:  E(RHF) =  -1195.96405417     A.U. after   15 cycles
 Normal termination of Gaussian 16 at Tue Apr  8 23:17:58 2025.
 Gaussian 16:  ES64L-G16RevC.01  3-Jul-2019

 ----------------------------------------------------------------------
 #t hf aug-cc-pvdz iop(5/13=1,5/36=2,99/5=2) pseudo=read geom=check gue
 ss=(read,tcheck) scf=(maxcycle=1)
 ----------------------------------------------------------------------
 -----
 title
 -----
 Structure from the checkpoint file:  "BDE49_nonexpt_1063_mol1.chk"
 Charge =  0 Multiplicity = 1

                         Standard orientation:
 ---------------------------------------------------------------------
 Center     Atomic      Atomic             Coordinates (Angstroms)
 Number     Number       Type             X           Y           Z
 ---------------------------------------------------------------------
      1         17           0        2.159633    0.424893   -0.016325
      2          8           0        0.747873   -0.044057    0.886298
      3         16           0       -0.521822   -0.607368   -0.027572
      4          8           0       -1.454262   -0.933168    1.003577
      5          8           0       -0.968548    0.700720   -0.806675
      6          6           0       -1.559970    1.784304   -0.033178
      7          1           0       -1.851560    2.520469   -0.777708
      8          1           0       -0.816853    2.199766    0.647584
      9          1           0       -2.427132    1.418504    0.514169
     10          8           0       -0.063719   -1.517226   -1.016488
 ---------------------------------------------------------------------

 SCF Done:  E(RHF) =  -1196.43186006     A.U. after    2 cycles

 The electronic state is 1-A.
 Alpha  occ. eigenvalues -- -105.66187 -94.29797 -20.68322 -20.64196 -20.58495
 Alpha  occ. eigenvalues --  -20.58493 -11.33645 -10.70328  -8.54017  -7.87326
 Alpha  occ. eigenvalues --   -7.86735  -7.86711  -6.52155  -6.51992  -6.51959
 Alpha  occ. eigenvalues --   -1.67138  -1.52815  -1.50934  -1.49741  -1.07677
 Alpha  occ. eigenvalues --   -1.02009  -0.88894  -0.79033  -0.76047  -0.73128
 Alpha  occ. eigenvalues --   -0.68916  -0.66715  -0.64084  -0.63350  -0.58964
 Alpha  occ. eigenvalues --   -0.56385  -0.55110  -0.52871  -0.51813  -0.50508
 Alpha  occ. eigenvalues --   -0.49804  -0.48581
 Alpha virt. eigenvalues --    0.03039   0.03299   0.05022   0.05634   0.07843
 Alpha virt. eigenvalues --    0.10180   0.10877   0.11718   0.12582   0.14133
 Alpha virt. eigenvalues --    0.14731   0.15378   0.16145   0.17131   0.18145

 Mulliken charges:
               1
     1  Cl   0.375874
     2  O   -1.218596
     3  S    4.289938
     4  O   -1.289185
     5  O   -1.468874
     6  C    0.180355
     7  H    0.031433
     8  H    0.199389
     9  H    0.202517
    10  O   -1.302852
 Sum of Mulliken charges =  -0.00000

 Dipole moment (field-independent basis, Debye):
    X=             -0.2539    Y=              4.0415    Z=              0.0900  Tot=              4.0505

 Test job not archived.
 1\1\GINC-SE461\SP\RHF\Aug-CC-pVDZ\C1H3Cl1O4S1\OHZDE\08-Apr-2025\0\\#t
 hf aug-cc-pvdz iop(5/13=1,5/36=2,99/5=2) pseudo=read geom=check guess=
 (read,tcheck) scf=(maxcycle=1)\\title\\0,1\Cl,0,2.159633,0.424892,-0.0
 16325\O,0,0.747873,-0.044057,0.886298\S,0,-0.521822,-0.607368,-0.02757
 2\O,0,-1.454262,-0.933168,1.003577\O,0,-0.968548,0.70072,-0.806675\C,0
 ,-1.55997,1.784304,-0.033178\H,0,-1.851559,2.520469,-0.777708\H,0,-0.8
 16852,2.199766,0.647584\H,0,-2.427132,1.418505,0.514169\O,0,-0.063719,
 -1.517226,-1.016488\\Version=ES64L-G16RevC.01\State=1-A\HF=-1196.43186

 Normal termination of Gaussian 16 at Tue Apr  8 23:18:01 2025.
