 Gaussian 16, Revision C.01,

 ----------------------------------------------------------------------
 #t hf aug-cc-pvdz symm=none int=(grid=ultrafine) guess=(read,tcheck) s
 table=(opt,rrhf)
 ----------------------------------------------------------------------
 -----
 title
 -----
 Symbolic Z-matrix:
 Charge =  0 Multiplicity = 1

 SCF Done:  E(RHF) =  -749.727541766     A.U. after   12 cycles
 Normal termination of Gaussian 16 at Tue Apr  8 23:40:31 2025.
 Gaussian 16:  ES64L-G16RevC.01  3-Jul-2019

 ----------------------------------------------------------------------
 #t hf aug-cc-pvdz iop(5/13=1,5/36=2,99/5=2) pseudo=read geom=check gue
 ss=(read,tcheck) scf=(maxcycle=1)
 ----------------------------------------------------------------------
 -----
 title
 -----
 Structure from the checkpoint file:  "BDE49_nonexpt_1638_mol1.chk"
 Charge =  0 Multiplicity = 1

                         Standard orientation:
 ---------------------------------------------------------------------
 Center     Atomic      Atomic             Coordinates (Angstroms)
 Number     Number       Type             X           Y           Z
 ---------------------------------------------------------------------
      1         15           0       -1.917349   -0.136421   -0.000000
      2         14           0        0.371442    0.008678    0.000000
      3          6           0        0.984261    1.790731    0.000000
      4          1           0        0.632899    2.330950    0.883537
      5          1           0        0.632899    2.330950   -0.883537
      6          6           0        0.984261   -0.879582   -1.544943
      7          1           0        2.079247    1.823805    0.000000
      8          1           0        2.078689   -0.879641   -1.579767
      9          1           0        0.648918   -1.920258   -1.565949
     10          1           0        0.623849   -0.393051   -2.456027
     11          6           0        0.984261   -0.879582    1.544943
     12          1           0        0.623849   -0.393051    2.456027
     13          1           0        2.078689   -0.879641    1.579767
     14          1           0        0.648918   -1.920258    1.565949
     15          1           0       -2.102302    0.817809   -1.036336
     16          1           0       -2.102302    0.817809    1.036336
 ---------------------------------------------------------------------

 SCF Done:  E(RHF) =  -749.946362948     A.U. after    2 cycles

 The electronic state is 1-A'.
 Alpha  occ. eigenvalues --  -84.25134 -69.52540 -11.21590 -11.21496 -11.21493
 Alpha  occ. eigenvalues --   -6.72397  -6.19476  -4.24837  -4.24691  -4.24125
 Alpha  occ. eigenvalues --   -3.94812  -3.94763  -3.94753  -0.98366  -0.93249
 Alpha  occ. eigenvalues --   -0.93234  -0.84577  -0.64068  -0.57933  -0.57381
 Alpha  occ. eigenvalues --   -0.57255  -0.55357  -0.55296  -0.54168  -0.49749
 Alpha  occ. eigenvalues --   -0.45279  -0.44442  -0.40779  -0.33094
 Alpha virt. eigenvalues --    0.03190   0.04103   0.04138   0.04536   0.06393
 Alpha virt. eigenvalues --    0.06480   0.06547   0.07198   0.07307   0.09218
 Alpha virt. eigenvalues --    0.09750   0.10161   0.11441   0.11687   0.11838

 Mulliken charges:
               1
     1  P   -1.399219
     2  Si   2.429005
     3  C   -0.534778
     4  H   -0.047082
     5  H   -0.047082
     6  C   -0.521678
     7  H   -0.014339
     8  H   -0.015233
     9  H   -0.044480
    10  H   -0.028767
    11  C   -0.521678
    12  H   -0.028767
    13  H   -0.015233
    14  H   -0.044480
    15  H    0.416904
    16  H    0.416904
 Sum of Mulliken charges =  -0.00000

 Dipole moment (field-independent basis, Debye):
    X=              1.1137    Y=              0.3775    Z=              0.0000  Tot=              1.1760

 Test job not archived.
 1\1\GINC-SE458\SP\RHF\Aug-CC-pVDZ\C3H11P1Si1\OHZDE\08-Apr-2025\0\\#t h
 f aug-cc-pvdz iop(5/13=1,5/36=2,99/5=2) pseudo=read geom=check guess=(
 read,tcheck) scf=(maxcycle=1)\\title\\0,1\P,0,-1.917349,-0.136421,0.\S
 i,0,0.371442,0.008678,0.\C,0,0.984261,1.790731,0.\H,0,0.632899,2.33095
 ,0.883537\H,0,0.632899,2.33095,-0.883537\C,0,0.984261,-0.879582,-1.544
 943\H,0,2.079247,1.823805,0.\H,0,2.078689,-0.879641,-1.579767\H,0,0.64
 8918,-1.920258,-1.565949\H,0,0.623849,-0.393051,-2.456027\C,0,0.984261
 ,-0.879582,1.544943\H,0,0.623849,-0.393051,2.456027\H,0,2.078689,-0.87

 Normal termination of Gaussian 16 at Tue Apr  8 23:40:35 2025.
