 Gaussian 16, Revision C.01,

 ----------------------------------------------------------------------
 #t hf aug-cc-pvdz symm=none int=(grid=ultrafine) guess=(read,tcheck) s
 table=opt
 ----------------------------------------------------------------------
 -----
 title
 -----
 Symbolic Z-matrix:
 Charge =  0 Multiplicity = 2

 SCF Done:  E(UHF) =  -416.731723464     A.U. after   18 cycles
 Normal termination of Gaussian 16 at Tue Apr  8 23:16:47 2025.
 Gaussian 16:  ES64L-G16RevC.01  3-Jul-2019

 ----------------------------------------------------------------------
 #t hf aug-cc-pvdz iop(5/13=1,5/36=2,99/5=2) pseudo=read geom=check gue
 ss=(read,tcheck) scf=(maxcycle=1)
 ----------------------------------------------------------------------
 -----
 title
 -----
 Structure from the checkpoint file:  "BDE49_nonexpt_1028_mol2.chk"
 Charge =  0 Multiplicity = 2

                         Standard orientation:
 ---------------------------------------------------------------------
 Center     Atomic      Atomic             Coordinates (Angstroms)
 Number     Number       Type             X           Y           Z
 ---------------------------------------------------------------------
      1          8           0       -1.067278   -0.000001    0.056654
      2         15           0        0.426706   -0.000002   -0.100517
      3          1           0        1.068837   -1.102160    0.527272
      4          1           0        1.068803    1.102195    0.527254
 ---------------------------------------------------------------------

 SCF Done:  E(UHF) =  -416.844951044     A.U. after    2 cycles

 The electronic state is 2-A.
 Alpha  occ. eigenvalues --  -84.35996 -20.56807  -6.82676  -4.36232  -4.34557
 Alpha  occ. eigenvalues --   -4.34512  -1.44926  -0.86420  -0.61431  -0.60698
 Alpha  occ. eigenvalues --   -0.56608  -0.47929  -0.37189
 Alpha virt. eigenvalues --    0.03315   0.06102   0.06922   0.09052   0.10507
 Alpha virt. eigenvalues --    0.15735   0.17768   0.20559   0.20825   0.24032
 Alpha virt. eigenvalues --    0.25108   0.25847   0.32191   0.33236   0.37162

  Beta  occ. eigenvalues --  -84.35663 -20.54417  -6.82197  -4.35974  -4.34390
  Beta  occ. eigenvalues --   -4.33138  -1.38143  -0.81728  -0.59213  -0.55659
  Beta  occ. eigenvalues --   -0.45200  -0.42315
  Beta virt. eigenvalues --    0.02689   0.03432   0.06135   0.07101   0.10895
  Beta virt. eigenvalues --    0.11036   0.16261   0.18486   0.21478   0.22619
  Beta virt. eigenvalues --    0.24935   0.26434   0.26516   0.33449   0.34326

 Mulliken charges and spin densities:
               1          2
     1  O   -1.121688   0.481975
     2  P    0.712775   0.468150
     3  H    0.204465   0.024936
     4  H    0.204449   0.024939
 Sum of Mulliken charges =  -0.00000   1.00000

 Dipole moment (field-independent basis, Debye):
    X=              3.2293    Y=             -0.0000    Z=              0.1803  Tot=              3.2344
                          Isotropic Fermi Contact Couplings
        Atom                 a.u.       MegaHertz       Gauss      10(-4) cm-1
     1  O(17)              0.16086     -97.51358     -34.79527     -32.52703
     2  P(31)              0.39863     721.95327     257.61088     240.81769
     3  H(1)               0.01974      88.24245      31.48710      29.43451
     4  H(1)               0.01974      88.24085      31.48653      29.43398
 --------------------------------------------------------
       Center         ----  Spin Dipole Couplings  ----
                      3XX-RR        3YY-RR        3ZZ-RR
 --------------------------------------------------------

 Normal termination of Gaussian 16 at Tue Apr  8 23:16:49 2025.
