 Gaussian 16, Revision C.01,

 ----------------------------------------------------------------------
 #t hf aug-cc-pvdz symm=none int=(grid=ultrafine) guess=(read,tcheck) s
 table=opt
 ----------------------------------------------------------------------
 -----
 title
 -----
 Symbolic Z-matrix:
 Charge =  0 Multiplicity = 2

 SCF Done:  E(UHF) =  -262.605529622     A.U. after   15 cycles
 Normal termination of Gaussian 16 at Wed Apr  9 00:30:42 2025.
 Gaussian 16:  ES64L-G16RevC.01  3-Jul-2019

 ----------------------------------------------------------------------
 #t hf aug-cc-pvdz iop(5/13=1,5/36=2,99/5=2) pseudo=read geom=check gue
 ss=(read,tcheck) scf=(maxcycle=1)
 ----------------------------------------------------------------------
 -----
 title
 -----
 Structure from the checkpoint file:  "BDE49_nonexpt_357_mol2.chk"
 Charge =  0 Multiplicity = 2

                         Standard orientation:
 ---------------------------------------------------------------------
 Center     Atomic      Atomic             Coordinates (Angstroms)
 Number     Number       Type             X           Y           Z
 ---------------------------------------------------------------------
      1          9           0       -1.589934   -0.359277   -0.000002
      2          5           0       -0.803181    0.684463    0.000002
      3          6           0        0.764110    0.619940    0.000002
      4          9           0        1.270467   -0.689160   -0.000002
      5          1           0        1.153225    1.146986    0.880580
      6          1           0        1.153225    1.146992   -0.880571
 ---------------------------------------------------------------------

 SCF Done:  E(UHF) =  -262.848578582     A.U. after    2 cycles

 The electronic state is 2-A.
 Alpha  occ. eigenvalues --  -26.49607 -26.45437 -11.32472  -7.69893  -1.62943
 Alpha  occ. eigenvalues --   -1.57094  -0.98018  -0.79544  -0.72394  -0.69943
 Alpha  occ. eigenvalues --   -0.68278  -0.66873  -0.66161  -0.54284  -0.53800
 Alpha  occ. eigenvalues --   -0.37478
 Alpha virt. eigenvalues --    0.03440   0.03749   0.05197   0.05635   0.07076
 Alpha virt. eigenvalues --    0.10204   0.10907   0.11918   0.14993   0.16083
 Alpha virt. eigenvalues --    0.17292   0.21871   0.24276   0.24639   0.26528

  Beta  occ. eigenvalues --  -26.49292 -26.45240 -11.32140  -7.67996  -1.62077
  Beta  occ. eigenvalues --   -1.56511  -0.96722  -0.78271  -0.69938  -0.69718
  Beta  occ. eigenvalues --   -0.66908  -0.66889  -0.64212  -0.53640  -0.51851
  Beta virt. eigenvalues --    0.02525   0.04023   0.04862   0.05647   0.07613
  Beta virt. eigenvalues --    0.07847   0.11154   0.13405   0.13529   0.16547
  Beta virt. eigenvalues --    0.16873   0.17405   0.22903   0.25416   0.25581

 Mulliken charges and spin densities:
               1          2
     1  F   -0.497025  -0.031013
     2  B    0.614002   0.988308
     3  C    0.321403   0.043833
     4  F   -0.704334   0.026025
     5  H    0.132978  -0.013576
     6  H    0.132976  -0.013576
 Sum of Mulliken charges =  -0.00000   1.00000

 Dipole moment (field-independent basis, Debye):
    X=              0.3327    Y=              1.8956    Z=              0.0000  Tot=              1.9246
                          Isotropic Fermi Contact Couplings
        Atom                 a.u.       MegaHertz       Gauss      10(-4) cm-1
     1  F(19)              0.06572     276.49423      98.66002      92.22855
     2  B(11)              0.31832     456.58479     162.92081     152.30029
     3  C(13)              0.10688     120.15346      42.87374      40.07888
     4  F(19)              0.02870     120.77191      43.09442      40.28517
     5  H(1)              -0.00220      -9.81178      -3.50109      -3.27286
     6  H(1)              -0.00220      -9.81175      -3.50108      -3.27285
 --------------------------------------------------------
       Center         ----  Spin Dipole Couplings  ----

 Normal termination of Gaussian 16 at Wed Apr  9 00:30:44 2025.
