 Gaussian 16, Revision C.01,

 ----------------------------------------------------------------------
 #t hf aug-cc-pvdz symm=none int=(grid=ultrafine) guess=(read,tcheck) s
 table=opt
 ----------------------------------------------------------------------
 -----
 title
 -----
 Symbolic Z-matrix:
 Charge =  0 Multiplicity = 2

 SCF Done:  E(UHF) =  -375.204676709     A.U. after   16 cycles
 Normal termination of Gaussian 16 at Tue Apr  8 22:38:26 2025.
 Gaussian 16:  ES64L-G16RevC.01  3-Jul-2019

 ----------------------------------------------------------------------
 #t hf aug-cc-pvdz iop(5/13=1,5/36=2,99/5=2) pseudo=read geom=check gue
 ss=(read,tcheck) scf=(maxcycle=1)
 ----------------------------------------------------------------------
 -----
 title
 -----
 Structure from the checkpoint file:  "BDE49_expt_122_mol2.chk"
 Charge =  0 Multiplicity = 2

                         Standard orientation:
 ---------------------------------------------------------------------
 Center     Atomic      Atomic             Coordinates (Angstroms)
 Number     Number       Type             X           Y           Z
 ---------------------------------------------------------------------
      1          6           0        0.430829    0.000133    0.309486
      2          9           0        1.420867   -0.898004    0.024566
      3          6           0       -0.819405   -0.442860   -0.344629
      4          9           0        0.852109    1.222618   -0.178569
      5          1           0        0.323916    0.099320    1.392338
      6          9           0       -1.952931    0.043279    0.176071
      7          1           0       -0.872871   -0.754004   -1.380087
 ---------------------------------------------------------------------

 SCF Done:  E(UHF) =  -375.551939597     A.U. after    2 cycles

 The electronic state is 2-A.
 Alpha  occ. eigenvalues --  -26.50759 -26.49448 -26.48666 -11.44143 -11.36429
 Alpha  occ. eigenvalues --   -1.65632  -1.63934  -1.58646  -1.06866  -0.90678
 Alpha  occ. eigenvalues --   -0.79424  -0.77876  -0.76709  -0.72855  -0.71264
 Alpha  occ. eigenvalues --   -0.65831  -0.64927  -0.61347  -0.60534  -0.54395
 Alpha  occ. eigenvalues --   -0.42288
 Alpha virt. eigenvalues --    0.03992   0.04138   0.08096   0.09347   0.11548
 Alpha virt. eigenvalues --    0.11975   0.12155   0.14919   0.16702   0.20089
 Alpha virt. eigenvalues --    0.22654   0.24139   0.26327   0.28155   0.28544

  Beta  occ. eigenvalues --  -26.50289 -26.49417 -26.48361 -11.44395 -11.33741
  Beta  occ. eigenvalues --   -1.65156  -1.62620  -1.58078  -1.02793  -0.87724
  Beta  occ. eigenvalues --   -0.78901  -0.77171  -0.74734  -0.71713  -0.66128
  Beta  occ. eigenvalues --   -0.64617  -0.64323  -0.61072  -0.59922  -0.53633
  Beta virt. eigenvalues --    0.04052   0.04140   0.06283   0.08305   0.11444
  Beta virt. eigenvalues --    0.11740   0.12104   0.13574   0.15277   0.17167
  Beta virt. eigenvalues --    0.20692   0.22824   0.24476   0.26696   0.28779

 Mulliken charges and spin densities:
               1          2
     1  C    1.375405  -0.142126
     2  F   -0.678714  -0.000599
     3  C    0.485133   1.173021
     4  F   -0.679764   0.021909
     5  H    0.068266   0.001504
     6  F   -0.682870   0.027476
     7  H    0.112543  -0.081185
 Sum of Mulliken charges =  -0.00000   1.00000

 Dipole moment (field-independent basis, Debye):
    X=             -0.7056    Y=             -0.7247    Z=              0.1881  Tot=              1.0288
                          Isotropic Fermi Contact Couplings
        Atom                 a.u.       MegaHertz       Gauss      10(-4) cm-1
     1  C(13)             -0.03708     -41.68950     -14.87585     -13.90612
     2  F(19)              0.00411      17.29638       6.17178       5.76945
     3  C(13)              0.27079     304.41973     108.62453     101.54349
     4  F(19)              0.05328     224.18020      79.99307      74.77847
     5  H(1)               0.00252      11.27136       4.02190       3.75972
     6  F(19)              0.06173     259.71782      92.67377      86.63254
     7  H(1)              -0.02201     -98.36629     -35.09954     -32.81146
 --------------------------------------------------------

 Normal termination of Gaussian 16 at Tue Apr  8 22:38:28 2025.
