 Gaussian 16, Revision C.01,

 ----------------------------------------------------------------------
 #t hf aug-cc-pvdz symm=none int=(grid=ultrafine) guess=(read,tcheck) s
 table=(opt,rrhf)
 ----------------------------------------------------------------------
 -----
 title
 -----
 Symbolic Z-matrix:
 Charge =  0 Multiplicity = 1

 SCF Done:  E(RHF) =  -458.515808419     A.U. after   15 cycles

 1\1\GINC-SE455\Stability\RHF\Aug-CC-pVDZ\C8H10O2\OHZDE\08-Apr-2025\0\\
 #t hf aug-cc-pvdz symm=none int=(grid=ultrafine) guess=(read,tcheck) s
 table=(opt,rrhf)\\title\\0,1\C,0,-1.403648,0.260454,0.\C,0,-0.690752,1
 .468495,0.\C,0,0.690752,1.468495,0.\C,0,-0.700851,-0.940574,0.\C,0,0.7
 00851,-0.940574,-0.000001\C,0,1.403648,0.260454,-0.000001\H,0,-1.21852
 2,-1.890384,-0.000001\H,0,1.218522,-1.890384,-0.000001\O,0,2.767531,0.
 374435,-0.000001\C,0,3.537322,-0.815177,-0.000002\H,0,4.579395,-0.4985
 ,-0.000003\H,0,3.345339,-1.421333,-0.89362\H,0,3.34534,-1.421334,0.893

 Normal termination of Gaussian 16 at Tue Apr  8 22:42:57 2025.
 Gaussian 16:  ES64L-G16RevC.01  3-Jul-2019

 ----------------------------------------------------------------------
 #t hf aug-cc-pvdz iop(5/13=1,5/36=2,99/5=2) pseudo=read geom=check gue
 ss=(read,tcheck) scf=(maxcycle=1)
 ----------------------------------------------------------------------
 -----
 title
 -----
 Structure from the checkpoint file:  "BDE49_expt_1412_mol1.chk"
 Charge =  0 Multiplicity = 1

                         Standard orientation:
 ---------------------------------------------------------------------
 Center     Atomic      Atomic             Coordinates (Angstroms)
 Number     Number       Type             X           Y           Z
 ---------------------------------------------------------------------
      1          6           0       -1.403648    0.260454    0.000000
      2          6           0       -0.690752    1.468495    0.000000
      3          6           0        0.690752    1.468495    0.000000
      4          6           0       -0.700851   -0.940574    0.000000
      5          6           0        0.700851   -0.940574   -0.000001
      6          6           0        1.403648    0.260454   -0.000001
      7          1           0       -1.218522   -1.890384   -0.000001
      8          1           0        1.218522   -1.890384   -0.000001
      9          8           0        2.767531    0.374435   -0.000001
     10          6           0        3.537322   -0.815177   -0.000002
     11          1           0        4.579395   -0.498500   -0.000003
     12          1           0        3.345339   -1.421333   -0.893620
     13          1           0        3.345340   -1.421334    0.893615
     14          1           0       -1.248992    2.396880    0.000001
     15          1           0        1.248992    2.396880    0.000000
     16          8           0       -2.767531    0.374435    0.000000
     17          6           0       -3.537322   -0.815177    0.000004
     18          1           0       -4.579395   -0.498500    0.000006
     19          1           0       -3.345338   -1.421332    0.893622
     20          1           0       -3.345342   -1.421335   -0.893614
 ---------------------------------------------------------------------

 SCF Done:  E(RHF) =  -458.986442278     A.U. after    2 cycles

 The electronic state is 1-A.
 Alpha  occ. eigenvalues --  -20.56656 -20.56652 -11.29702 -11.29667 -11.29285
 Alpha  occ. eigenvalues --  -11.29282 -11.24172 -11.24114 -11.23884 -11.23807
 Alpha  occ. eigenvalues --   -1.49019  -1.48949  -1.14746  -1.02489  -1.02201
 Alpha  occ. eigenvalues --   -0.95620  -0.92975  -0.84403  -0.80772  -0.73414
 Alpha  occ. eigenvalues --   -0.69679  -0.69398  -0.65454  -0.65079  -0.63514
 Alpha  occ. eigenvalues --   -0.61552  -0.60689  -0.58055  -0.56388  -0.53739
 Alpha  occ. eigenvalues --   -0.53125  -0.50173  -0.50126  -0.48051  -0.44086
 Alpha  occ. eigenvalues --   -0.35114  -0.29658
 Alpha virt. eigenvalues --    0.03314   0.03513   0.04004   0.04843   0.04885
 Alpha virt. eigenvalues --    0.05256   0.06146   0.07123   0.08487   0.09298
 Alpha virt. eigenvalues --    0.10133   0.10358   0.11160   0.12751   0.13315

 Mulliken charges:
               1
     1  C    1.694065
     2  C    0.480887
     3  C    0.480887
     4  C    0.010898
     5  C    0.010898
     6  C    1.694065
     7  H   -0.426516
     8  H   -0.426516
     9  O   -1.877967
    10  C    0.100225
    11  H   -0.043938
    12  H    0.175574
    13  H    0.175573
    14  H   -0.288801
    15  H   -0.288801
    16  O   -1.877966
    17  C    0.100224
    18  H   -0.043938
    19  H    0.175573
    20  H    0.175575
 Sum of Mulliken charges =  -0.00000

 Dipole moment (field-independent basis, Debye):
    X=             -0.0000    Y=             -2.3237    Z=              0.0000  Tot=              2.3237

 Test job not archived.
 1\1\GINC-SE455\SP\RHF\Aug-CC-pVDZ\C8H10O2\OHZDE\08-Apr-2025\0\\#t hf a
 ug-cc-pvdz iop(5/13=1,5/36=2,99/5=2) pseudo=read geom=check guess=(rea
 d,tcheck) scf=(maxcycle=1)\\title\\0,1\C,0,-1.403648,0.260454,0.\C,0,-
 0.690752,1.468495,0.\C,0,0.690752,1.468495,0.\C,0,-0.700851,-0.940574,
 0.\C,0,0.700851,-0.940574,-0.000001\C,0,1.403648,0.260454,-0.000001\H,
 0,-1.218522,-1.890384,-0.000001\H,0,1.218522,-1.890384,-0.000001\O,0,2
 .767531,0.374435,-0.000001\C,0,3.537322,-0.815177,-0.000002\H,0,4.5793
 95,-0.4985,-0.000003\H,0,3.345339,-1.421333,-0.89362\H,0,3.34534,-1.42

 Normal termination of Gaussian 16 at Tue Apr  8 22:43:06 2025.
