 Gaussian 16, Revision C.01,

 ----------------------------------------------------------------------
 #t hf aug-cc-pvdz symm=none int=(grid=ultrafine) guess=(read,tcheck) s
 table=opt
 ----------------------------------------------------------------------
 -----
 title
 -----
 Symbolic Z-matrix:
 Charge =  0 Multiplicity = 2

 SCF Done:  E(UHF) =  -365.522495638     A.U. after   17 cycles

 1\1\GINC-SE073\Stability\UHF\Aug-CC-pVDZ\H3O1Si1\OHZDE\08-Apr-2025\0\\
 #t hf aug-cc-pvdz symm=none int=(grid=ultrafine) guess=(read,tcheck) s
 table=opt\\title\\0,2\O,0,1.184211,0.,0.02779\Si,0,-0.474283,0.,0.0017
 69\H,0,-1.061081,1.214897,0.611354\H,0,-1.06108,-1.214904,0.611341\H,0
 ,-0.711568,0.000008,-1.469784\\Version=ES64L-G16RevC.01\HF=-365.522495
 6\S2=0.75813\S2-1=0.\S2A=0.750052\RMSD=8.808e-09\Dipole=-0.6110235,-0.
 0000004,0.0955788\Quadrupole=-1.1443858,0.1149305,1.0294553,-0.000001,
 0.1619716,-0.000005\PG=Unknown\\@

 Normal termination of Gaussian 16 at Tue Apr  8 22:56:34 2025.
 Gaussian 16:  ES64L-G16RevC.01  3-Jul-2019

 ----------------------------------------------------------------------
 #t hf aug-cc-pvdz iop(5/13=1,5/36=2,99/5=2) pseudo=read geom=check gue
 ss=(read,tcheck) scf=(maxcycle=1)
 ----------------------------------------------------------------------
 -----
 title
 -----
 Structure from the checkpoint file:  "BDE49_expt_1906_mol2.chk"
 Charge =  0 Multiplicity = 2

                         Standard orientation:
 ---------------------------------------------------------------------
 Center     Atomic      Atomic             Coordinates (Angstroms)
 Number     Number       Type             X           Y           Z
 ---------------------------------------------------------------------
      1          8           0        1.184211    0.000000   -0.027790
      2         14           0       -0.474283    0.000000   -0.001769
      3          1           0       -1.061081   -1.214897   -0.611354
      4          1           0       -1.061080    1.214904   -0.611341
      5          1           0       -0.711568   -0.000008    1.469784
 ---------------------------------------------------------------------

 SCF Done:  E(UHF) =  -365.625112038     A.U. after    2 cycles

 The electronic state is 2-A.
 Alpha  occ. eigenvalues --  -69.57266 -20.61440  -6.24055  -3.99553  -3.99388
 Alpha  occ. eigenvalues --   -3.99364  -1.46082  -0.75846  -0.66298  -0.58806
 Alpha  occ. eigenvalues --   -0.58468  -0.49602  -0.48326
 Alpha virt. eigenvalues --    0.03958   0.04948   0.05657   0.05875   0.08878
 Alpha virt. eigenvalues --    0.09019   0.13835   0.15204   0.18127   0.18767
 Alpha virt. eigenvalues --    0.21103   0.22398   0.24471   0.26220   0.27566

  Beta  occ. eigenvalues --  -69.57333 -20.57631  -6.24154  -3.99703  -3.99511
  Beta  occ. eigenvalues --   -3.99421  -1.30636  -0.74447  -0.55717  -0.55252
  Beta  occ. eigenvalues --   -0.50792  -0.46236
  Beta virt. eigenvalues --    0.03661   0.04106   0.05248   0.05885   0.06192
  Beta virt. eigenvalues --    0.09033   0.09440   0.14015   0.15408   0.18249
  Beta virt. eigenvalues --    0.18731   0.21572   0.24930   0.26524   0.27013

 Mulliken charges and spin densities:
               1          2
     1  O   -0.859343   1.032748
     2  Si   1.593420  -0.114783
     3  H   -0.233413   0.005829
     4  H   -0.233413   0.005829
     5  H   -0.267250   0.070377
 Sum of Mulliken charges =   0.00000   1.00000

 Dipole moment (field-independent basis, Debye):
    X=             -1.5101    Y=              0.0000    Z=             -0.2271  Tot=              1.5271
                          Isotropic Fermi Contact Couplings
        Atom                 a.u.       MegaHertz       Gauss      10(-4) cm-1
     1  O(17)              0.20762    -125.85546     -44.90836     -41.98086
     2  Si(29)            -0.07392      65.69708      23.44235      21.91419
     3  H(1)               0.00236      10.53210       3.75811       3.51313
     4  H(1)               0.00236      10.53213       3.75812       3.51314
     5  H(1)               0.01907      85.25606      30.42148      28.43836
 --------------------------------------------------------
       Center         ----  Spin Dipole Couplings  ----
                      3XX-RR        3YY-RR        3ZZ-RR

 Normal termination of Gaussian 16 at Tue Apr  8 22:56:35 2025.
