 Gaussian 16, Revision C.01,

 ----------------------------------------------------------------------
 #t hf aug-cc-pvdz symm=none int=(grid=ultrafine) guess=(read,tcheck) s
 table=(opt,rrhf)
 ----------------------------------------------------------------------
 -----
 title
 -----
 Symbolic Z-matrix:
 Charge =  0 Multiplicity = 1

 SCF Done:  E(RHF) =  -795.727268131     A.U. after   11 cycles

 1\1\GINC-SE090\Stability\RHF\Aug-CC-pVDZ\C1Cl1F3\OHZDE\08-Apr-2025\0\\
 #t hf aug-cc-pvdz symm=none int=(grid=ultrafine) guess=(read,tcheck) s
 table=(opt,rrhf)\\title\\0,1\C,0,-0.357698,0.000029,-0.000006\F,0,-0.8
 1452,-0.649193,-1.067563\Cl,0,1.419864,-0.000004,-0.000009\F,0,-0.8144
 83,-0.600015,1.095968\F,0,-0.814497,1.249195,-0.028384\\Version=ES64L-
 G16RevC.01\HF=-795.7272681\RMSD=8.208e-09\Dipole=0.1908158,0.0000503,-
 0.0000197\Quadrupole=0.9613894,-0.4807415,-0.4806479,-0.0001305,0.0000
 283,0.000013\PG=Unknown\\@

 Normal termination of Gaussian 16 at Tue Apr  8 22:43:38 2025.
 Gaussian 16:  ES64L-G16RevC.01  3-Jul-2019

 ----------------------------------------------------------------------
 #t hf aug-cc-pvdz iop(5/13=1,5/36=2,99/5=2) pseudo=read geom=check gue
 ss=(read,tcheck) scf=(maxcycle=1)
 ----------------------------------------------------------------------
 -----
 title
 -----
 Structure from the checkpoint file:  "BDE49_expt_1500_mol1.chk"
 Charge =  0 Multiplicity = 1

                         Standard orientation:
 ---------------------------------------------------------------------
 Center     Atomic      Atomic             Coordinates (Angstroms)
 Number     Number       Type             X           Y           Z
 ---------------------------------------------------------------------
      1          6           0       -0.357698    0.000029   -0.000006
      2          9           0       -0.814520   -0.649193   -1.067563
      3         17           0        1.419864   -0.000004   -0.000009
      4          9           0       -0.814483   -0.600015    1.095968
      5          9           0       -0.814497    1.249195   -0.028384
 ---------------------------------------------------------------------

 SCF Done:  E(RHF) =  -796.107340839     A.U. after    2 cycles

 The electronic state is 1-A.
 Alpha  occ. eigenvalues -- -105.61645 -26.54067 -26.54067 -26.54062 -11.59863
 Alpha  occ. eigenvalues --  -10.66551  -7.83498  -7.83046  -7.83046  -1.75755
 Alpha  occ. eigenvalues --   -1.65285  -1.65284  -1.14473  -0.95988  -0.85096
 Alpha  occ. eigenvalues --   -0.85095  -0.81335  -0.71949  -0.71948  -0.67180
 Alpha  occ. eigenvalues --   -0.67179  -0.65193  -0.59298  -0.51513  -0.51513
 Alpha virt. eigenvalues --    0.07094   0.08814   0.09838   0.09838   0.10975
 Alpha virt. eigenvalues --    0.14944   0.14944   0.19685   0.23335   0.23336
 Alpha virt. eigenvalues --    0.28069   0.30041   0.30041   0.31148   0.31149

 Mulliken charges:
               1
     1  C    1.840682
     2  F   -0.573896
     3  Cl  -0.118982
     4  F   -0.573900
     5  F   -0.573904
 Sum of Mulliken charges =  -0.00000

 Dipole moment (field-independent basis, Debye):
    X=              0.2892    Y=              0.0001    Z=             -0.0000  Tot=              0.2892

 Test job not archived.
 1\1\GINC-SE090\SP\RHF\Aug-CC-pVDZ\C1Cl1F3\OHZDE\08-Apr-2025\0\\#t hf a
 ug-cc-pvdz iop(5/13=1,5/36=2,99/5=2) pseudo=read geom=check guess=(rea
 d,tcheck) scf=(maxcycle=1)\\title\\0,1\C,0,-0.357698,0.000029,-0.00000
 6\F,0,-0.81452,-0.649193,-1.067563\Cl,0,1.419864,-0.000004,-0.000009\F
 ,0,-0.814483,-0.600015,1.095968\F,0,-0.814497,1.249195,-0.028384\\Vers
 ion=ES64L-G16RevC.01\State=1-A\HF=-796.1073408\RMSD=3.121e-03\Dipole=0
 .113799,0.0000452,-0.0000181\Quadrupole=0.8601598,-0.4300975,-0.430062
 4,-0.0001224,0.0000309,0.0000139\PG=C01 [X(C1Cl1F3)]\\@

 Normal termination of Gaussian 16 at Tue Apr  8 22:43:40 2025.
