 Gaussian 16, Revision C.01,

 ----------------------------------------------------------------------
 #t hf aug-cc-pvdz symm=none int=(grid=ultrafine) guess=(read,tcheck) s
 table=(opt,rrhf)
 ----------------------------------------------------------------------
 -----
 title
 -----
 Symbolic Z-matrix:
 Charge =  0 Multiplicity = 1

 SCF Done:  E(RHF) =  -686.753488131     A.U. after   13 cycles
 Normal termination of Gaussian 16 at Tue Apr  8 22:36:24 2025.
 Gaussian 16:  ES64L-G16RevC.01  3-Jul-2019

 ----------------------------------------------------------------------
 #t hf aug-cc-pvdz iop(5/13=1,5/36=2,99/5=2) pseudo=read geom=check gue
 ss=(read,tcheck) scf=(maxcycle=1)
 ----------------------------------------------------------------------
 -----
 title
 -----
 Structure from the checkpoint file:  "BDE49_expt_1109_mol1.chk"
 Charge =  0 Multiplicity = 1

                         Standard orientation:
 ---------------------------------------------------------------------
 Center     Atomic      Atomic             Coordinates (Angstroms)
 Number     Number       Type             X           Y           Z
 ---------------------------------------------------------------------
      1          6           0       -0.225918   -0.787706    0.000016
      2          6           0        0.964161    0.175412    0.000068
      3          8           0        0.903032    1.363608    0.000008
      4          8           0        2.162880   -0.468855   -0.000018
      5          1           0        2.048853   -1.427354   -0.000033
      6         17           0       -1.802141    0.046410   -0.000024
      7          1           0       -0.184627   -1.422951    0.886725
      8          1           0       -0.184572   -1.422932   -0.886704
 ---------------------------------------------------------------------

 SCF Done:  E(RHF) =  -687.053970331     A.U. after    2 cycles

 The electronic state is 1-A.
 Alpha  occ. eigenvalues -- -105.58018 -20.62339 -20.55602 -11.41935 -11.34703
 Alpha  occ. eigenvalues --  -10.62795  -7.79755  -7.79337  -7.79336  -1.56428
 Alpha  occ. eigenvalues --   -1.47901  -1.13722  -0.97686  -0.85091  -0.75597
 Alpha  occ. eigenvalues --   -0.69750  -0.68386  -0.62619  -0.61311  -0.56970
 Alpha  occ. eigenvalues --   -0.49448  -0.47789  -0.46668  -0.45935
 Alpha virt. eigenvalues --    0.01911   0.04177   0.04805   0.07508   0.09501
 Alpha virt. eigenvalues --    0.11254   0.11591   0.12813   0.13308   0.14893
 Alpha virt. eigenvalues --    0.15213   0.15894   0.17163   0.18234   0.18836

 Mulliken charges:
               1
     1  C   -0.771304
     2  C    2.050843
     3  O   -1.096355
     4  O   -1.241014
     5  H    0.428046
     6  Cl  -0.000412
     7  H    0.315112
     8  H    0.315083
 Sum of Mulliken charges =  -0.00000

 Dipole moment (field-independent basis, Debye):
    X=              0.3904    Y=             -4.8611    Z=              0.0001  Tot=              4.8767

 Test job not archived.
 1\1\GINC-SE102\SP\RHF\Aug-CC-pVDZ\C2H3Cl1O2\OHZDE\08-Apr-2025\0\\#t hf
  aug-cc-pvdz iop(5/13=1,5/36=2,99/5=2) pseudo=read geom=check guess=(r
 ead,tcheck) scf=(maxcycle=1)\\title\\0,1\C,0,0.225918,-0.787706,-0.000
 016\C,0,-0.964161,0.175412,-0.000068\O,0,-0.903032,1.363608,-0.000008\
 O,0,-2.16288,-0.468855,0.000018\H,0,-2.048853,-1.427354,0.000033\Cl,0,
 1.802141,0.04641,0.000024\H,0,0.184627,-1.422951,-0.886725\H,0,0.18457
 2,-1.422932,0.886704\\Version=ES64L-G16RevC.01\State=1-A\HF=-687.05397
 03\RMSD=9.352e-03\Dipole=-0.1535882,-1.9125015,-0.0000454\Quadrupole=-

 Normal termination of Gaussian 16 at Tue Apr  8 22:36:27 2025.
