 Gaussian 16, Revision C.01,

 ----------------------------------------------------------------------
 #t hf aug-cc-pvdz symm=none int=(grid=ultrafine) guess=(read,tcheck) s
 table=(opt,rrhf)
 ----------------------------------------------------------------------
 -----
 title
 -----
 Symbolic Z-matrix:
 Charge =  0 Multiplicity = 1

 SCF Done:  E(RHF) =  -429.144077031     A.U. after   11 cycles
 Normal termination of Gaussian 16 at Tue Apr  8 23:56:19 2025.
 Gaussian 16:  ES64L-G16RevC.01  3-Jul-2019

 ----------------------------------------------------------------------
 #t hf aug-cc-pvdz iop(5/13=1,5/36=2,99/5=2) pseudo=read geom=check gue
 ss=(read,tcheck) scf=(maxcycle=1)
 ----------------------------------------------------------------------
 -----
 title
 -----
 Structure from the checkpoint file:  "BDE49_nonexpt_2016_mol1.chk"
 Charge =  0 Multiplicity = 1

                         Standard orientation:
 ---------------------------------------------------------------------
 Center     Atomic      Atomic             Coordinates (Angstroms)
 Number     Number       Type             X           Y           Z
 ---------------------------------------------------------------------
      1         14           0        1.093808   -0.097220    0.000001
      2          6           0       -0.663253    0.619657    0.000002
      3          9           0       -1.586412   -0.444099   -0.000004
      4          1           0       -0.853594    1.233558   -0.886057
      5          1           0       -0.853597    1.233551    0.886064
      6          1           0        1.293391   -0.925642   -1.209180
      7          1           0        1.293387   -0.925652    1.209177
      8          1           0        2.064334    1.024218    0.000008
 ---------------------------------------------------------------------

 SCF Done:  E(RHF) =  -429.314813709     A.U. after    2 cycles

 The electronic state is 1-A.
 Alpha  occ. eigenvalues --  -69.53765 -26.44660 -11.31214  -6.20928  -3.96300
 Alpha  occ. eigenvalues --   -3.96287  -3.96275  -1.56068  -0.94944  -0.75048
 Alpha  occ. eigenvalues --   -0.68438  -0.67000  -0.62667  -0.53514  -0.49862
 Alpha  occ. eigenvalues --   -0.48925  -0.46071
 Alpha virt. eigenvalues --    0.03510   0.04224   0.04531   0.06150   0.07431
 Alpha virt. eigenvalues --    0.08258   0.09023   0.09456   0.11119   0.15188
 Alpha virt. eigenvalues --    0.15770   0.16298   0.16468   0.19200   0.19744

 Mulliken charges:
               1
     1  Si   1.175527
     2  C    0.096459
     3  F   -0.680204
     4  H    0.048141
     5  H    0.048139
     6  H   -0.236632
     7  H   -0.236633
     8  H   -0.214799
 Sum of Mulliken charges =  -0.00000

 Dipole moment (field-independent basis, Debye):
    X=              1.0234    Y=              1.4360    Z=              0.0000  Tot=              1.7634

 Test job not archived.
 1\1\GINC-SE345\SP\RHF\Aug-CC-pVDZ\C1H5F1Si1\OHZDE\08-Apr-2025\0\\#t hf
  aug-cc-pvdz iop(5/13=1,5/36=2,99/5=2) pseudo=read geom=check guess=(r
 ead,tcheck) scf=(maxcycle=1)\\title\\0,1\Si,0,-1.093808,-0.09722,-0.00
 0001\C,0,0.663253,0.619657,-0.000002\F,0,1.586412,-0.444099,0.000004\H
 ,0,0.853594,1.233558,0.886057\H,0,0.853597,1.233551,-0.886064\H,0,-1.2
 93391,-0.925642,1.20918\H,0,-1.293387,-0.925652,-1.209177\H,0,-2.06433
 4,1.024218,-0.000008\\Version=ES64L-G16RevC.01\State=1-A\HF=-429.31481
 37\RMSD=4.691e-03\Dipole=-0.4026428,0.5649577,-0.0000017\Quadrupole=-1

 Normal termination of Gaussian 16 at Tue Apr  8 23:56:21 2025.
