 Gaussian 16, Revision C.01,

 ----------------------------------------------------------------------
 #t hf aug-cc-pvdz symm=none int=(grid=ultrafine) guess=(read,tcheck) s
 table=opt
 ----------------------------------------------------------------------
 -----
 title
 -----
 Symbolic Z-matrix:
 Charge =  0 Multiplicity = 2

 SCF Done:  E(UHF) =  -568.535945806     A.U. after   20 cycles
 Normal termination of Gaussian 16 at Tue Apr  8 23:34:10 2025.
 Gaussian 16:  ES64L-G16RevC.01  3-Jul-2019

 ----------------------------------------------------------------------
 #t hf aug-cc-pvdz iop(5/13=1,5/36=2,99/5=2) pseudo=read geom=check gue
 ss=(read,tcheck) scf=(maxcycle=1)
 ----------------------------------------------------------------------
 -----
 title
 -----
 Structure from the checkpoint file:  "BDE49_nonexpt_1469_mol2.chk"
 Charge =  0 Multiplicity = 2

                         Standard orientation:
 ---------------------------------------------------------------------
 Center     Atomic      Atomic             Coordinates (Angstroms)
 Number     Number       Type             X           Y           Z
 ---------------------------------------------------------------------
      1          6           0       -0.056859    0.298722    0.000056
      2         15           0       -1.845247   -0.220018   -0.000041
      3          8           0        0.823482   -0.723334    0.000032
      4          8           0        0.257245    1.464802   -0.000014
      5          6           0        2.216011   -0.338790    0.000011
      6          1           0        2.447695    0.249979    0.888772
      7          1           0        2.447662    0.250005   -0.888743
      8          1           0        2.772406   -1.272880   -0.000013
      9          1           0       -1.589781   -1.618173    0.000058
 ---------------------------------------------------------------------

 SCF Done:  E(UHF) =  -568.798407826     A.U. after    2 cycles

 The electronic state is 2-A.
 Alpha  occ. eigenvalues --  -84.30785 -20.60126 -20.55550 -11.39754 -11.30451
 Alpha  occ. eigenvalues --   -6.78012  -4.30314  -4.30168  -4.29389  -1.55276
 Alpha  occ. eigenvalues --   -1.46716  -1.00230  -0.90582  -0.78365  -0.69772
 Alpha  occ. eigenvalues --   -0.67959  -0.66778  -0.58446  -0.57346  -0.53617
 Alpha  occ. eigenvalues --   -0.47606  -0.44797  -0.40634  -0.35957
 Alpha virt. eigenvalues --    0.03508   0.04836   0.05540   0.05791   0.07568
 Alpha virt. eigenvalues --    0.09798   0.09940   0.11256   0.13386   0.13689
 Alpha virt. eigenvalues --    0.14216   0.14840   0.16224   0.17395   0.17606

  Beta  occ. eigenvalues --  -84.30109 -20.60150 -20.54913 -11.40150 -11.30453
  Beta  occ. eigenvalues --   -6.77154  -4.29640  -4.28969  -4.27016  -1.55044
  Beta  occ. eigenvalues --   -1.45672  -0.99658  -0.86502  -0.77538  -0.69243
  Beta  occ. eigenvalues --   -0.67809  -0.65704  -0.58185  -0.55759  -0.53497
  Beta  occ. eigenvalues --   -0.45430  -0.43708  -0.39140
  Beta virt. eigenvalues --    0.01349   0.03531   0.04937   0.05551   0.05954
  Beta virt. eigenvalues --    0.07699   0.10048   0.11314   0.11601   0.13564
  Beta virt. eigenvalues --    0.14085   0.15097   0.15274   0.16763   0.17875

 Mulliken charges and spin densities:
               1          2
     1  C    0.938921  -0.219475
     2  P    0.385438   1.224959
     3  O   -1.127762   0.006362
     4  O   -1.007257   0.157083
     5  C    0.292011   0.005340
     6  H    0.164299   0.000423
     7  H    0.164297   0.000423
     8  H    0.000570  -0.000357
     9  H    0.189484  -0.174758
 Sum of Mulliken charges =  -0.00000   1.00000

 Dipole moment (field-independent basis, Debye):
    X=              0.7283    Y=             -2.0941    Z=              0.0001  Tot=              2.2171
                          Isotropic Fermi Contact Couplings
        Atom                 a.u.       MegaHertz       Gauss      10(-4) cm-1
     1  C(13)             -0.05828     -65.51721     -23.37817     -21.85419
     2  P(31)              0.19096     345.85120     123.40831     115.36354
     3  O(17)             -0.00679       4.11516       1.46839       1.37267
     4  O(17)              0.04701     -28.49542     -10.16788      -9.50505
     5  C(13)             -0.00044      -0.49003      -0.17485      -0.16346
     6  H(1)               0.00022       0.96710       0.34509       0.32259
     7  H(1)               0.00022       0.96679       0.34498       0.32249
     8  H(1)               0.00005       0.21685       0.07738       0.07233

 Normal termination of Gaussian 16 at Tue Apr  8 23:34:13 2025.
