 Gaussian 16, Revision C.01,

 ----------------------------------------------------------------------
 #t hf aug-cc-pvdz symm=none int=(grid=ultrafine) guess=(read,tcheck) s
 table=(opt,rrhf)
 ----------------------------------------------------------------------
 -----
 title
 -----
 Symbolic Z-matrix:
 Charge =  0 Multiplicity = 1

 SCF Done:  E(RHF) =  -627.083754805     A.U. after   15 cycles
 Normal termination of Gaussian 16 at Tue Apr  8 23:38:53 2025.
 Gaussian 16:  ES64L-G16RevC.01  3-Jul-2019

 ----------------------------------------------------------------------
 #t hf aug-cc-pvdz iop(5/13=1,5/36=2,99/5=2) pseudo=read geom=check gue
 ss=(read,tcheck) scf=(maxcycle=1)
 ----------------------------------------------------------------------
 -----
 title
 -----
 Structure from the checkpoint file:  "BDE49_nonexpt_1574_mol1.chk"
 Charge =  0 Multiplicity = 1

                         Standard orientation:
 ---------------------------------------------------------------------
 Center     Atomic      Atomic             Coordinates (Angstroms)
 Number     Number       Type             X           Y           Z
 ---------------------------------------------------------------------
      1         15           0        2.795132    0.148601    0.000062
      2          7           0        1.342130   -0.752975    0.000030
      3          6           0        0.004866   -0.334679    0.000001
      4          6           0       -0.353188    1.019661   -0.000075
      5          6           0       -1.015415   -1.300757    0.000046
      6          6           0       -2.350353   -0.920076    0.000015
      7          6           0       -2.703947    0.429444   -0.000059
      8          6           0       -1.696335    1.388991   -0.000104
      9          1           0       -3.746243    0.724853   -0.000082
     10          1           0       -1.951679    2.443031   -0.000162
     11          1           0        0.412943    1.783837   -0.000112
     12          1           0       -0.751998   -2.354254    0.000105
     13          1           0       -3.119961   -1.684140    0.000051
     14          1           0        2.525021    1.093002    1.030631
     15          1           0        2.525110    1.092933   -1.030595
     16          1           0        1.471142   -1.752963    0.000084
 ---------------------------------------------------------------------

 SCF Done:  E(RHF) =  -627.424443804     A.U. after    2 cycles

 The electronic state is 1-A.
 Alpha  occ. eigenvalues --  -84.30376 -15.51752 -11.29150 -11.24673 -11.24605
 Alpha  occ. eigenvalues --  -11.23745 -11.23484 -11.23146  -6.77039  -4.30154
 Alpha  occ. eigenvalues --   -4.29116  -4.28869  -1.23416  -1.13596  -1.01910
 Alpha  occ. eigenvalues --   -1.00279  -0.88620  -0.84502  -0.80831  -0.73947
 Alpha  occ. eigenvalues --   -0.68788  -0.65206  -0.62085  -0.59890  -0.59172
 Alpha  occ. eigenvalues --   -0.58776  -0.52571  -0.50935  -0.50266  -0.45362
 Alpha  occ. eigenvalues --   -0.36306  -0.34935  -0.31413
 Alpha virt. eigenvalues --    0.03454   0.03816   0.03925   0.04876   0.05695
 Alpha virt. eigenvalues --    0.06911   0.07534   0.08172   0.09114   0.09307
 Alpha virt. eigenvalues --    0.10786   0.11372   0.12009   0.12822   0.13253

 Mulliken charges:
               1
     1  P   -0.326723
     2  N    0.947589
     3  C   -1.441976
     4  C    0.731796
     5  C    0.267695
     6  C    0.437007
     7  C   -0.086360
     8  C    0.436032
     9  H   -0.225124
    10  H   -0.221491
    11  H   -0.316374
    12  H   -0.325315
    13  H   -0.221133
    14  H    0.253046
    15  H    0.253043
    16  H   -0.161711
 Sum of Mulliken charges =   0.00000

 Dipole moment (field-independent basis, Debye):
    X=              0.0137    Y=             -0.2554    Z=              0.0001  Tot=              0.2557

 Test job not archived.
 1\1\GINC-SE252\SP\RHF\Aug-CC-pVDZ\C6H8N1P1\OHZDE\08-Apr-2025\0\\#t hf
 aug-cc-pvdz iop(5/13=1,5/36=2,99/5=2) pseudo=read geom=check guess=(re
 ad,tcheck) scf=(maxcycle=1)\\title\\0,1\P,0,2.795132,0.148601,0.000062
 \N,0,1.34213,-0.752975,0.00003\C,0,0.004866,-0.334679,0.000001\C,0,-0.
 353188,1.019661,-0.000075\C,0,-1.015415,-1.300757,0.000046\C,0,-2.3503
 53,-0.920076,0.000015\C,0,-2.703947,0.429444,-0.000059\C,0,-1.696335,1
 .388991,-0.000104\H,0,-3.746243,0.724853,-0.000082\H,0,-1.951679,2.443
 031,-0.000162\H,0,0.412943,1.783837,-0.000112\H,0,-0.751998,-2.354254,

 Normal termination of Gaussian 16 at Tue Apr  8 23:39:00 2025.
