 Gaussian 16, Revision C.01,

 ----------------------------------------------------------------------
 #t hf aug-cc-pvdz symm=none int=(grid=ultrafine) guess=(read,tcheck) s
 table=(opt,rrhf)
 ----------------------------------------------------------------------
 -----
 title
 -----
 Symbolic Z-matrix:
 Charge =  0 Multiplicity = 1

 SCF Done:  E(RHF) =  -588.331421876     A.U. after   15 cycles
 Normal termination of Gaussian 16 at Tue Apr  8 23:38:29 2025.
 Gaussian 16:  ES64L-G16RevC.01  3-Jul-2019

 ----------------------------------------------------------------------
 #t hf aug-cc-pvdz iop(5/13=1,5/36=2,99/5=2) pseudo=read geom=check gue
 ss=(read,tcheck) scf=(maxcycle=1)
 ----------------------------------------------------------------------
 -----
 title
 -----
 Structure from the checkpoint file:  "BDE49_nonexpt_1576_mol1.chk"
 Charge =  0 Multiplicity = 1

                         Standard orientation:
 ---------------------------------------------------------------------
 Center     Atomic      Atomic             Coordinates (Angstroms)
 Number     Number       Type             X           Y           Z
 ---------------------------------------------------------------------
      1          7           0       -1.703410   -0.310200   -0.236387
      2          6           0       -2.061114    0.847482    0.586386
      3          1           0       -1.515178    1.753761    0.308180
      4          1           0       -1.849112    0.620728    1.634774
      5          1           0       -3.134346    1.034120    0.499444
      6          6           0        1.084769    0.279627   -0.145902
      7          6           0        2.423535   -0.052086    0.490730
      8          1           0        2.351044    0.101183    1.572574
      9          1           0        3.191565    0.613057    0.093418
     10          1           0        2.704243   -1.095685    0.323099
     11          8           0        0.858098    1.352406   -0.660313
     12         15           0       -0.208047   -1.093592   -0.207299
     13          1           0       -0.113965   -1.404470    1.175452
     14          1           0       -2.137598   -0.316802   -1.147527
 ---------------------------------------------------------------------

 SCF Done:  E(RHF) =  -588.632373388     A.U. after    2 cycles

 The electronic state is 1-A.
 Alpha  occ. eigenvalues --  -84.30071 -20.54284 -15.50126 -11.34094 -11.26307
 Alpha  occ. eigenvalues --  -11.25070  -6.76873  -4.29860  -4.29229  -4.28662
 Alpha  occ. eigenvalues --   -1.47452  -1.19705  -1.02438  -0.94235  -0.86477
 Alpha  occ. eigenvalues --   -0.74444  -0.67859  -0.64632  -0.63603  -0.61412
 Alpha  occ. eigenvalues --   -0.60688  -0.58122  -0.54725  -0.53129  -0.50492
 Alpha  occ. eigenvalues --   -0.44978  -0.39232  -0.33745
 Alpha virt. eigenvalues --    0.03494   0.04144   0.04779   0.05351   0.05672
 Alpha virt. eigenvalues --    0.06672   0.07190   0.08046   0.09038   0.10019
 Alpha virt. eigenvalues --    0.11659   0.12286   0.12435   0.13986   0.14231

 Mulliken charges:
               1
     1  N    0.095824
     2  C   -0.514888
     3  H    0.172471
     4  H    0.098646
     5  H    0.032592
     6  C    0.725804
     7  C   -0.517624
     8  H    0.230515
     9  H    0.151327
    10  H    0.229314
    11  O   -1.276215
    12  P    0.151983
    13  H    0.315189
    14  H    0.105061
 Sum of Mulliken charges =  -0.00000

 Dipole moment (field-independent basis, Debye):
    X=              0.0451    Y=             -1.0657    Z=              1.2991  Tot=              1.6809

 Test job not archived.
 1\1\GINC-SE339\SP\RHF\Aug-CC-pVDZ\C3H8N1O1P1\OHZDE\08-Apr-2025\0\\#t h
 f aug-cc-pvdz iop(5/13=1,5/36=2,99/5=2) pseudo=read geom=check guess=(
 read,tcheck) scf=(maxcycle=1)\\title\\0,1\N,0,-1.70341,-0.3102,-0.2363
 87\C,0,-2.061114,0.847482,0.586386\H,0,-1.515178,1.753761,0.30818\H,0,
 -1.849112,0.620728,1.634774\H,0,-3.134346,1.03412,0.499444\C,0,1.08476
 9,0.279627,-0.145902\C,0,2.423535,-0.052085,0.49073\H,0,2.351044,0.101
 184,1.572574\H,0,3.191565,0.613058,0.093418\H,0,2.704243,-1.095684,0.3
 23099\O,0,0.858098,1.352406,-0.660313\P,0,-0.208047,-1.093592,-0.20729

 Normal termination of Gaussian 16 at Tue Apr  8 23:38:34 2025.
