 Gaussian 16, Revision C.01,

 ----------------------------------------------------------------------
 #t hf aug-cc-pvdz symm=none int=(grid=ultrafine) guess=(read,tcheck) s
 table=opt
 ----------------------------------------------------------------------
 -----
 title
 -----
 Symbolic Z-matrix:
 Charge =  0 Multiplicity = 2

 SCF Done:  E(UHF) =  -1145.83484833     A.U. after   17 cycles
 Normal termination of Gaussian 16 at Wed Apr  9 00:01:43 2025.
 Gaussian 16:  ES64L-G16RevC.01  3-Jul-2019

 ----------------------------------------------------------------------
 #t hf aug-cc-pvdz iop(5/13=1,5/36=2,99/5=2) pseudo=read geom=check gue
 ss=(read,tcheck) scf=(maxcycle=1)
 ----------------------------------------------------------------------
 -----
 title
 -----
 Structure from the checkpoint file:  "BDE49_nonexpt_212_mol2.chk"
 Charge =  0 Multiplicity = 2

                         Standard orientation:
 ---------------------------------------------------------------------
 Center     Atomic      Atomic             Coordinates (Angstroms)
 Number     Number       Type             X           Y           Z
 ---------------------------------------------------------------------
      1         17           0       -2.599347   -0.448309   -0.049688
      2          5           0       -0.934149   -0.783998   -0.213873
      3         16           0        0.420478    0.482306    0.064700
      4          8           0        0.662261    0.430978    1.491010
      5          8           0        1.690393   -0.151273   -0.706642
      6          6           0        2.388734   -1.257576   -0.084603
      7          1           0        3.257466   -1.429626   -0.716343
      8          1           0        1.756868   -2.149082   -0.071279
      9          1           0        2.694856   -0.991419    0.925975
     10          8           0        0.158647    1.712786   -0.628354
 ---------------------------------------------------------------------

 SCF Done:  E(UHF) =  -1146.25215950     A.U. after    2 cycles

 The electronic state is 2-A.
 Alpha  occ. eigenvalues -- -105.62514 -94.23632 -20.61851 -20.56400 -20.56018
 Alpha  occ. eigenvalues --  -11.32465 -10.67506  -8.48552  -7.84436  -7.84120
 Alpha  occ. eigenvalues --   -7.84040  -7.75256  -6.46637  -6.46508  -6.46392
 Alpha  occ. eigenvalues --   -1.61686  -1.49278  -1.46699  -1.13952  -1.01603
 Alpha  occ. eigenvalues --   -0.92899  -0.78806  -0.73385  -0.70000  -0.68761
 Alpha  occ. eigenvalues --   -0.65589  -0.63866  -0.58070  -0.56534  -0.54850
 Alpha  occ. eigenvalues --   -0.53138  -0.51603  -0.50464  -0.49785  -0.48350
 Alpha  occ. eigenvalues --   -0.39568
 Alpha virt. eigenvalues --    0.00678   0.03017   0.04077   0.05016   0.05384
 Alpha virt. eigenvalues --    0.06766   0.07229   0.08173   0.11705   0.12495
 Alpha virt. eigenvalues --    0.13159   0.14593   0.15105   0.15517   0.16152

  Beta  occ. eigenvalues -- -105.62449 -94.23570 -20.61903 -20.56348 -20.55824
  Beta  occ. eigenvalues --  -11.32451 -10.67432  -8.48463  -7.84343  -7.84093
  Beta  occ. eigenvalues --   -7.83842  -7.73132  -6.46620  -6.46479  -6.46171
  Beta  occ. eigenvalues --   -1.61490  -1.49246  -1.46347  -1.13035  -1.01328
  Beta  occ. eigenvalues --   -0.91683  -0.77888  -0.72841  -0.69844  -0.67444
  Beta  occ. eigenvalues --   -0.64583  -0.63546  -0.57563  -0.54918  -0.53841
  Beta  occ. eigenvalues --   -0.53013  -0.50698  -0.50226  -0.48253  -0.46750
  Beta virt. eigenvalues --    0.01004   0.03174   0.03680   0.04878   0.05492
  Beta virt. eigenvalues --    0.05627   0.06881   0.07248   0.08749   0.12219
  Beta virt. eigenvalues --    0.12635   0.13379   0.14944   0.15329   0.15795

 Mulliken charges and spin densities:
               1          2
     1  Cl  -0.127215   0.011463
     2  B    0.298338   0.973131
     3  S    3.505211  -0.007204
     4  O   -1.406081   0.012320
     5  O   -1.469356  -0.017179
     6  C    0.225974  -0.001524
     7  H    0.025164  -0.001326
     8  H    0.181665  -0.007159
     9  H    0.189533   0.000479
    10  O   -1.423233   0.036998
 Sum of Mulliken charges =   0.00000   1.00000

 Dipole moment (field-independent basis, Debye):
    X=              0.1391    Y=             -4.2274    Z=             -0.6705  Tot=              4.2825
                          Isotropic Fermi Contact Couplings
        Atom                 a.u.       MegaHertz       Gauss      10(-4) cm-1
     1  Cl(35)             0.05385      23.61067       8.42487       7.87567
     2  B(11)              0.36424     522.44805     186.42246     174.26991
     3  S(33)              0.11882      40.81204      14.56275      13.61343
     4  O(17)              0.00320      -1.93714      -0.69122      -0.64616
     5  O(17)             -0.00797       4.83272       1.72444       1.61202
     6  C(13)              0.00273       3.06984       1.09540       1.02399
     7  H(1)               0.00006       0.27244       0.09721       0.09088
     8  H(1)              -0.00004      -0.17046      -0.06082      -0.05686

 Normal termination of Gaussian 16 at Wed Apr  9 00:01:47 2025.
