 Gaussian 16, Revision C.01,

 ----------------------------------------------------------------------
 #t hf aug-cc-pvdz symm=none int=(grid=ultrafine) guess=(read,tcheck) s
 table=opt
 ----------------------------------------------------------------------
 -----
 title
 -----
 Symbolic Z-matrix:
 Charge =  0 Multiplicity = 2

 SCF Done:  E(UHF) =  -276.346489513     A.U. after   15 cycles
 Normal termination of Gaussian 16 at Tue Apr  8 22:31:20 2025.
 Gaussian 16:  ES64L-G16RevC.01  3-Jul-2019

 ----------------------------------------------------------------------
 #t hf aug-cc-pvdz iop(5/13=1,5/36=2,99/5=2) pseudo=read geom=check gue
 ss=(read,tcheck) scf=(maxcycle=1)
 ----------------------------------------------------------------------
 -----
 title
 -----
 Structure from the checkpoint file:  "BDE49_expt_1046_mol3.chk"
 Charge =  0 Multiplicity = 2

                         Standard orientation:
 ---------------------------------------------------------------------
 Center     Atomic      Atomic             Coordinates (Angstroms)
 Number     Number       Type             X           Y           Z
 ---------------------------------------------------------------------
      1          6           0       -1.396591   -0.106197   -0.087878
      2          6           0        0.006296    0.005861    0.357342
      3          1           0       -2.187076    0.365044    0.479435
      4          1           0       -1.599688   -0.515207   -1.068467
      5          9           0        0.596892    1.139290   -0.177180
      6          9           0        0.736423   -1.062867   -0.097206
      7          1           0        0.128695    0.064382    1.441719
 ---------------------------------------------------------------------

 SCF Done:  E(UHF) =  -276.608198801     A.U. after    2 cycles

 The electronic state is 2-A.
 Alpha  occ. eigenvalues --  -26.47493 -26.47107 -11.42355 -11.27864  -1.63511
 Alpha  occ. eigenvalues --   -1.56880  -1.06438  -0.88688  -0.76826  -0.74143
 Alpha  occ. eigenvalues --   -0.72203  -0.63968  -0.62620  -0.59810  -0.59055
 Alpha  occ. eigenvalues --   -0.53403  -0.42351
 Alpha virt. eigenvalues --    0.03434   0.04333   0.05442   0.09791   0.10986
 Alpha virt. eigenvalues --    0.11817   0.12353   0.14804   0.16311   0.17883
 Alpha virt. eigenvalues --    0.21073   0.22995   0.25170   0.27726   0.28778

  Beta  occ. eigenvalues --  -26.47431 -26.46802 -11.42635 -11.25410  -1.63113
  Beta  occ. eigenvalues --   -1.56301  -1.01326  -0.85423  -0.76407  -0.72763
  Beta  occ. eigenvalues --   -0.71004  -0.63453  -0.61371  -0.59449  -0.57898
  Beta  occ. eigenvalues --   -0.52637
  Beta virt. eigenvalues --    0.03527   0.04389   0.05170   0.05591   0.10782
  Beta virt. eigenvalues --    0.11582   0.11899   0.14729   0.15668   0.16714
  Beta virt. eigenvalues --    0.18174   0.21422   0.23811   0.25483   0.27947

 Mulliken charges and spin densities:
               1          2
     1  C   -0.216636   1.307836
     2  C    1.465633  -0.141520
     3  H    0.043005  -0.096770
     4  H    0.054430  -0.087880
     5  F   -0.682679   0.012412
     6  F   -0.692123   0.002651
     7  H    0.028370   0.003272
 Sum of Mulliken charges =  -0.00000   1.00000

 Dipole moment (field-independent basis, Debye):
    X=             -2.0489    Y=             -0.0346    Z=              1.1084  Tot=              2.3298
                          Isotropic Fermi Contact Couplings
        Atom                 a.u.       MegaHertz       Gauss      10(-4) cm-1
     1  C(13)              0.20643     232.06525      82.80665      77.40864
     2  C(13)             -0.04863     -54.66781     -19.50683     -18.23522
     3  H(1)              -0.02420    -108.18632     -38.60357     -36.08707
     4  H(1)              -0.02370    -105.93994     -37.80200     -35.33776
     5  F(19)              0.05783     243.32701      86.82513      81.16515
     6  F(19)              0.00843      35.45854      12.65249      11.82770
     7  H(1)               0.00293      13.10901       4.67762       4.37269
 --------------------------------------------------------

 Normal termination of Gaussian 16 at Tue Apr  8 22:31:22 2025.
