 Gaussian 16, Revision C.01,

 ----------------------------------------------------------------------
 #t hf aug-cc-pvdz symm=none int=(grid=ultrafine) guess=(read,tcheck) s
 table=opt
 ----------------------------------------------------------------------
 -----
 title
 -----
 Symbolic Z-matrix:
 Charge =  0 Multiplicity = 2

 SCF Done:  E(UHF) =  -633.537673836     A.U. after   21 cycles
 Normal termination of Gaussian 16 at Tue Apr  8 23:36:13 2025.
 Gaussian 16:  ES64L-G16RevC.01  3-Jul-2019

 ----------------------------------------------------------------------
 #t hf aug-cc-pvdz iop(5/13=1,5/36=2,99/5=2) pseudo=read geom=check gue
 ss=(read,tcheck) scf=(maxcycle=1)
 ----------------------------------------------------------------------
 -----
 title
 -----
 Structure from the checkpoint file:  "BDE49_nonexpt_1518_mol2.chk"
 Charge =  0 Multiplicity = 2

                         Standard orientation:
 ---------------------------------------------------------------------
 Center     Atomic      Atomic             Coordinates (Angstroms)
 Number     Number       Type             X           Y           Z
 ---------------------------------------------------------------------
      1         15           0       -0.684646   -0.817639   -0.224115
      2          6           0       -1.959755    0.442049    0.192703
      3          1           0       -2.939501    0.010311   -0.022001
      4          1           0       -1.826252    1.346733   -0.405045
      5          1           0       -1.909682    0.708537    1.251766
      6          7           0        0.681565    0.122070    0.450881
      7          9           0        0.819955    1.335054   -0.290468
      8          9           0        1.839232   -0.591475    0.093203
 ---------------------------------------------------------------------

 SCF Done:  E(UHF) =  -633.851371814     A.U. after    2 cycles

 The electronic state is 2-A.
 Alpha  occ. eigenvalues --  -84.33576 -26.50436 -26.50342 -15.70042 -11.26675
 Alpha  occ. eigenvalues --   -6.80606  -4.33017  -4.32907  -4.32041  -1.65557
 Alpha  occ. eigenvalues --   -1.57581  -1.13036  -1.00513  -0.84385  -0.75715
 Alpha  occ. eigenvalues --   -0.74599  -0.69826  -0.65409  -0.62192  -0.61501
 Alpha  occ. eigenvalues --   -0.60046  -0.57541  -0.50288  -0.42984  -0.34872
 Alpha virt. eigenvalues --    0.03332   0.05055   0.05651   0.07118   0.08669
 Alpha virt. eigenvalues --    0.10241   0.10895   0.13050   0.14515   0.14916
 Alpha virt. eigenvalues --    0.16059   0.16872   0.18349   0.19119   0.20777

  Beta  occ. eigenvalues --  -84.32873 -26.50437 -26.49936 -15.70140 -11.26809
  Beta  occ. eigenvalues --   -6.79712  -4.32426  -4.31644  -4.29520  -1.65211
  Beta  occ. eigenvalues --   -1.56884  -1.12189  -0.99913  -0.81630  -0.74928
  Beta  occ. eigenvalues --   -0.74374  -0.67168  -0.65140  -0.61276  -0.60979
  Beta  occ. eigenvalues --   -0.59224  -0.56858  -0.49693  -0.40721
  Beta virt. eigenvalues --    0.02761   0.03398   0.05106   0.05892   0.07349
  Beta virt. eigenvalues --    0.09018   0.11050   0.12107   0.13529   0.15032
  Beta virt. eigenvalues --    0.15545   0.16277   0.17679   0.18576   0.19826

 Mulliken charges and spin densities:
               1          2
     1  P    0.949285   1.101115
     2  C   -0.932150  -0.102321
     3  H    0.109700  -0.004388
     4  H    0.147516   0.015109
     5  H    0.131831   0.013012
     6  N    0.826803  -0.079378
     7  F   -0.616044   0.050041
     8  F   -0.616943   0.006810
 Sum of Mulliken charges =  -0.00000   1.00000

 Dipole moment (field-independent basis, Debye):
    X=             -3.1888    Y=             -0.4761    Z=             -0.3543  Tot=              3.2436
                          Isotropic Fermi Contact Couplings
        Atom                 a.u.       MegaHertz       Gauss      10(-4) cm-1
     1  P(31)              0.23327     422.48235     150.75221     140.92494
     2  C(13)             -0.02442     -27.45060      -9.79505      -9.15653
     3  H(1)               0.00021       0.93577       0.33390       0.31214
     4  H(1)               0.01172      52.38436      18.69204      17.47354
     5  H(1)               0.01014      45.31792      16.17056      15.11643
     6  N(14)              0.06000      19.38770       6.91801       6.46704
     7  F(19)              0.04512     189.85868      67.74630      63.33004
     8  F(19)             -0.00147      -6.19708      -2.21127      -2.06712

 Normal termination of Gaussian 16 at Tue Apr  8 23:36:15 2025.
