 Gaussian 16, Revision C.01,

 ----------------------------------------------------------------------
 #t hf aug-cc-pvdz symm=none int=(grid=ultrafine) guess=(read,tcheck) s
 table=(opt,rrhf)
 ----------------------------------------------------------------------
 -----
 title
 -----
 Symbolic Z-matrix:
 Charge =  0 Multiplicity = 1

 SCF Done:  E(RHF) =  -1103.16856193     A.U. after   16 cycles
 Normal termination of Gaussian 16 at Wed Apr  9 00:19:53 2025.
 Gaussian 16:  ES64L-G16RevC.01  3-Jul-2019

 ----------------------------------------------------------------------
 #t hf aug-cc-pvdz iop(5/13=1,5/36=2,99/5=2) pseudo=read geom=check gue
 ss=(read,tcheck) scf=(maxcycle=1)
 ----------------------------------------------------------------------
 -----
 title
 -----
 Structure from the checkpoint file:  "BDE49_nonexpt_2597_mol1.chk"
 Charge =  0 Multiplicity = 1

                         Standard orientation:
 ---------------------------------------------------------------------
 Center     Atomic      Atomic             Coordinates (Angstroms)
 Number     Number       Type             X           Y           Z
 ---------------------------------------------------------------------
      1         17           0        2.528235    0.129545   -0.826696
      2         16           0        1.436163   -0.156916    0.949663
      3          6           0       -0.235778   -0.042710    0.374849
      4          6           0       -0.895736    1.187627    0.295108
      5          6           0       -0.947603   -1.206652    0.053186
      6          7           0       -2.226211   -1.202276   -0.322427
      7          6           0       -2.226570    1.198201   -0.100657
      8          6           0       -2.842331   -0.017937   -0.396608
      9          1           0       -0.369492    2.102600    0.538526
     10          1           0       -2.780992    2.125699   -0.177621
     11          1           0       -0.453854   -2.171845    0.108125
     12          1           0       -3.882676   -0.043309   -0.708083
 ---------------------------------------------------------------------

 SCF Done:  E(RHF) =  -1103.55292576     A.U. after    2 cycles

 The electronic state is 1-A.
 Alpha  occ. eigenvalues -- -105.58220 -94.02163 -15.52539 -11.30947 -11.30830
 Alpha  occ. eigenvalues --  -11.29578 -11.29430 -11.26956 -10.62894  -8.29775
 Alpha  occ. eigenvalues --   -7.79830  -7.79392  -7.79361  -6.27579  -6.27352
 Alpha  occ. eigenvalues --   -6.27072  -1.28351  -1.15091  -1.09918  -1.05700
 Alpha  occ. eigenvalues --   -0.95576  -0.89817  -0.86171  -0.74983  -0.72020
 Alpha  occ. eigenvalues --   -0.66277  -0.61903  -0.61679  -0.59348  -0.56136
 Alpha  occ. eigenvalues --   -0.53523  -0.51426  -0.48013  -0.45452  -0.42581
 Alpha  occ. eigenvalues --   -0.38340  -0.37949
 Alpha virt. eigenvalues --    0.02517   0.02922   0.03902   0.04730   0.05507
 Alpha virt. eigenvalues --    0.06520   0.07218   0.08153   0.09978   0.10215
 Alpha virt. eigenvalues --    0.11344   0.11973   0.12096   0.13028   0.13768

 Mulliken charges:
               1
     1  Cl  -0.261658
     2  S    0.190180
     3  C    0.619345
     4  C    0.266267
     5  C   -0.798935
     6  N    0.889773
     7  C    0.557246
     8  C   -0.870994
     9  H   -0.117737
    10  H   -0.169547
    11  H   -0.148840
    12  H   -0.155098
 Sum of Mulliken charges =  -0.00000

 Dipole moment (field-independent basis, Debye):
    X=             -1.8177    Y=              2.2609    Z=              0.7571  Tot=              2.9981

 Test job not archived.
 1\1\GINC-SE366\SP\RHF\Aug-CC-pVDZ\C5H4Cl1N1S1\OHZDE\09-Apr-2025\0\\#t
 hf aug-cc-pvdz iop(5/13=1,5/36=2,99/5=2) pseudo=read geom=check guess=
 (read,tcheck) scf=(maxcycle=1)\\title\\0,1\Cl,0,2.528235,0.129545,-0.8
 26696\S,0,1.436163,-0.156916,0.949663\C,0,-0.235778,-0.04271,0.374849\
 C,0,-0.895736,1.187627,0.295108\C,0,-0.947603,-1.206652,0.053186\N,0,-
 2.226211,-1.202276,-0.322427\C,0,-2.22657,1.198201,-0.100657\C,0,-2.84
 2331,-0.017937,-0.396608\H,0,-0.369492,2.1026,0.538526\H,0,-2.780992,2
 .125699,-0.177621\H,0,-0.453854,-2.171845,0.108125\H,0,-3.882676,-0.04

 Normal termination of Gaussian 16 at Wed Apr  9 00:19:58 2025.
