 Gaussian 16, Revision C.01,

 ----------------------------------------------------------------------
 #t hf aug-cc-pvdz symm=none int=(grid=ultrafine) guess=(read,tcheck) s
 table=(opt,rrhf)
 ----------------------------------------------------------------------
 -----
 title
 -----
 Symbolic Z-matrix:
 Charge =  0 Multiplicity = 1

 SCF Done:  E(RHF) =  -374.622554988     A.U. after   12 cycles
 Normal termination of Gaussian 16 at Tue Apr  8 22:40:38 2025.
 Gaussian 16:  ES64L-G16RevC.01  3-Jul-2019

 ----------------------------------------------------------------------
 #t hf aug-cc-pvdz iop(5/13=1,5/36=2,99/5=2) pseudo=read geom=check gue
 ss=(read,tcheck) scf=(maxcycle=1)
 ----------------------------------------------------------------------
 -----
 title
 -----
 Structure from the checkpoint file:  "BDE49_expt_136_mol1.chk"
 Charge =  0 Multiplicity = 1

                         Standard orientation:
 ---------------------------------------------------------------------
 Center     Atomic      Atomic             Coordinates (Angstroms)
 Number     Number       Type             X           Y           Z
 ---------------------------------------------------------------------
      1          6           0        0.748250   -0.638664    0.000005
      2          6           0       -0.430557   -0.038140    0.000008
      3          9           0       -0.618294    1.266906    0.000001
      4          1           0        0.860840   -1.711709   -0.000003
      5          9           0        1.885520    0.077946   -0.000005
      6          9           0       -1.574670   -0.703459   -0.000005
 ---------------------------------------------------------------------

 SCF Done:  E(RHF) =  -374.968863754     A.U. after    2 cycles

 The electronic state is 1-A.
 Alpha  occ. eigenvalues --  -26.52889 -26.52769 -26.49941 -11.44977 -11.35708
 Alpha  occ. eigenvalues --   -1.69938  -1.63445  -1.62480  -1.08358  -0.88793
 Alpha  occ. eigenvalues --   -0.81445  -0.80048  -0.76345  -0.71980  -0.68716
 Alpha  occ. eigenvalues --   -0.67814  -0.67762  -0.65117  -0.59940  -0.40127
 Alpha virt. eigenvalues --    0.03671   0.07116   0.09047   0.09696   0.11552
 Alpha virt. eigenvalues --    0.12038   0.12262   0.15073   0.18204   0.20492
 Alpha virt. eigenvalues --    0.24145   0.26115   0.26745   0.27861   0.29762

 Mulliken charges:
               1
     1  C    0.559685
     2  C    1.494841
     3  F   -0.692470
     4  H    0.062712
     5  F   -0.717983
     6  F   -0.706785
 Sum of Mulliken charges =  -0.00000

 Dipole moment (field-independent basis, Debye):
    X=             -0.0204    Y=             -1.3598    Z=              0.0000  Tot=              1.3600

 Test job not archived.
 1\1\GINC-SE043\SP\RHF\Aug-CC-pVDZ\C2H1F3\OHZDE\08-Apr-2025\0\\#t hf au
 g-cc-pvdz iop(5/13=1,5/36=2,99/5=2) pseudo=read geom=check guess=(read
 ,tcheck) scf=(maxcycle=1)\\title\\0,1\C,0,0.74825,-0.638664,0.000005\C
 ,0,-0.430557,-0.03814,0.000008\F,0,-0.618294,1.266906,0.000001\H,0,0.8
 60839,-1.711709,-0.000003\F,0,1.88552,0.077945,-0.000005\F,0,-1.57467,
 -0.703458,-0.000005\\Version=ES64L-G16RevC.01\State=1-A\HF=-374.968863
 8\RMSD=9.664e-03\Dipole=-0.0080189,-0.5350061,0.0000016\Quadrupole=-1.
 77656,1.3791212,0.3974388,-1.3626387,-0.0000097,0.0000131\PG=C01 [X(C2

 Normal termination of Gaussian 16 at Tue Apr  8 22:40:40 2025.
