 Gaussian 16, Revision C.01,

 ----------------------------------------------------------------------
 #t hf aug-cc-pvdz symm=none int=(grid=ultrafine) guess=(read,tcheck) s
 table=(opt,rrhf)
 ----------------------------------------------------------------------
 -----
 title
 -----
 Symbolic Z-matrix:
 Charge =  0 Multiplicity = 1

 SCF Done:  E(RHF) =  -1187.61205467     A.U. after   15 cycles

 1\1\GINC-SE364\Stability\RHF\Aug-CC-pVDZ\C7H6Cl2\OHZDE\08-Apr-2025\0\\
 #t hf aug-cc-pvdz symm=none int=(grid=ultrafine) guess=(read,tcheck) s
 table=(opt,rrhf)\\title\\0,1\C,0,1.210887,1.438013,0.\C,0,1.473715,0.0
 73766,0.\C,0,0.440118,-0.854762,0.\C,0,-0.870917,-0.390409,0.\C,0,-1.1
 89481,0.973418,0.\C,0,-0.112679,1.866233,0.\H,0,0.647056,-1.915605,0.\
 C,0,-2.611305,1.46708,0.\H,0,-3.155369,1.108812,0.878364\H,0,-3.155368
 ,1.108812,-0.878364\H,0,-2.639366,2.557521,0.000001\H,0,-0.32003,2.930
 634,0.\H,0,2.025216,2.150308,0.\Cl,0,-2.159579,-1.586386,0.\Cl,0,3.133

 Normal termination of Gaussian 16 at Tue Apr  8 23:15:39 2025.
 Gaussian 16:  ES64L-G16RevC.01  3-Jul-2019

 ----------------------------------------------------------------------
 #t hf aug-cc-pvdz iop(5/13=1,5/36=2,99/5=2) pseudo=read geom=check gue
 ss=(read,tcheck) scf=(maxcycle=1)
 ----------------------------------------------------------------------
 -----
 title
 -----
 Structure from the checkpoint file:  "BDE49_expt_91_mol1.chk"
 Charge =  0 Multiplicity = 1

                         Standard orientation:
 ---------------------------------------------------------------------
 Center     Atomic      Atomic             Coordinates (Angstroms)
 Number     Number       Type             X           Y           Z
 ---------------------------------------------------------------------
      1          6           0       -1.210887    1.438013    0.000000
      2          6           0       -1.473715    0.073766    0.000000
      3          6           0       -0.440118   -0.854762    0.000000
      4          6           0        0.870917   -0.390409    0.000000
      5          6           0        1.189481    0.973418    0.000000
      6          6           0        0.112679    1.866233    0.000000
      7          1           0       -0.647056   -1.915605    0.000000
      8          6           0        2.611305    1.467080    0.000000
      9          1           0        3.155369    1.108812   -0.878364
     10          1           0        3.155368    1.108812    0.878364
     11          1           0        2.639366    2.557521   -0.000001
     12          1           0        0.320030    2.930634    0.000000
     13          1           0       -2.025216    2.150308    0.000000
     14         17           0        2.159579   -1.586386    0.000000
     15         17           0       -3.133452   -0.494821    0.000000
 ---------------------------------------------------------------------

 SCF Done:  E(RHF) =  -1188.04018097     A.U. after    2 cycles

 The electronic state is 1-A.
 Alpha  occ. eigenvalues -- -105.57982-105.57894 -11.32172 -11.32071 -11.27558
 Alpha  occ. eigenvalues --  -11.27229 -11.26743 -11.26603 -11.24898 -10.62780
 Alpha  occ. eigenvalues --  -10.62684  -7.79742  -7.79651  -7.79353  -7.79333
 Alpha  occ. eigenvalues --   -7.79251  -7.79233  -1.20875  -1.13407  -1.09191
 Alpha  occ. eigenvalues --   -1.03606  -1.00874  -0.93737  -0.86150  -0.81567
 Alpha  occ. eigenvalues --   -0.70584  -0.70109  -0.65325  -0.61722  -0.60691
 Alpha  occ. eigenvalues --   -0.59488  -0.57317  -0.55913  -0.53958  -0.52872
 Alpha  occ. eigenvalues --   -0.51505  -0.47656  -0.46831  -0.46676  -0.36453
 Alpha  occ. eigenvalues --   -0.34658
 Alpha virt. eigenvalues --    0.03153   0.03674   0.04450   0.05403   0.05427
 Alpha virt. eigenvalues --    0.06928   0.08206   0.08873   0.08874   0.09757
 Alpha virt. eigenvalues --    0.10266   0.11868   0.12721   0.12765   0.13179

 Mulliken charges:
               1
     1  C   -0.126752
     2  C   -0.304463
     3  C    0.584158
     4  C   -0.127710
     5  C    0.682992
     6  C    0.591284
     7  H   -0.120865
     8  C   -0.493361
     9  H    0.262656
    10  H    0.262656
    11  H    0.032460
    12  H   -0.311687
    13  H   -0.191947
    14  Cl  -0.406658
    15  Cl  -0.332764
 Sum of Mulliken charges =  -0.00000

 Dipole moment (field-independent basis, Debye):
    X=              0.9804    Y=              2.0718    Z=             -0.0000  Tot=              2.2921

 Test job not archived.
 1\1\GINC-SE364\SP\RHF\Aug-CC-pVDZ\C7H6Cl2\OHZDE\08-Apr-2025\0\\#t hf a
 ug-cc-pvdz iop(5/13=1,5/36=2,99/5=2) pseudo=read geom=check guess=(rea
 d,tcheck) scf=(maxcycle=1)\\title\\0,1\C,0,1.210887,1.438013,0.\C,0,1.
 473715,0.073766,0.\C,0,0.440118,-0.854762,0.\C,0,-0.870917,-0.390409,0
 .\C,0,-1.189481,0.973418,0.\C,0,-0.112679,1.866233,0.\H,0,0.647056,-1.
 915605,0.\C,0,-2.611305,1.46708,0.\H,0,-3.155369,1.108812,0.878364\H,0
 ,-3.155368,1.108812,-0.878364\H,0,-2.639366,2.557521,0.000001\H,0,-0.3
 2003,2.930634,0.\H,0,2.025216,2.150308,0.\Cl,0,-2.159579,-1.586386,0.\

 Normal termination of Gaussian 16 at Tue Apr  8 23:15:46 2025.
