 Gaussian 16, Revision C.01,

 ----------------------------------------------------------------------
 #t hf aug-cc-pvdz symm=none int=(grid=ultrafine) guess=(read,tcheck) s
 table=opt
 ----------------------------------------------------------------------
 -----
 title
 -----
 Symbolic Z-matrix:
 Charge =  0 Multiplicity = 2

 SCF Done:  E(UHF) =  -634.978957273     A.U. after   23 cycles
 Normal termination of Gaussian 16 at Wed Apr  9 00:32:58 2025.
 Gaussian 16:  ES64L-G16RevC.01  3-Jul-2019

 ----------------------------------------------------------------------
 #t hf aug-cc-pvdz iop(5/13=1,5/36=2,99/5=2) pseudo=read geom=check gue
 ss=(read,tcheck) scf=(maxcycle=1)
 ----------------------------------------------------------------------
 -----
 title
 -----
 Structure from the checkpoint file:  "BDE49_nonexpt_396_mol2.chk"
 Charge =  0 Multiplicity = 2

                         Standard orientation:
 ---------------------------------------------------------------------
 Center     Atomic      Atomic             Coordinates (Angstroms)
 Number     Number       Type             X           Y           Z
 ---------------------------------------------------------------------
      1          9           0       -2.246582   -0.585590   -0.229226
      2          5           0       -1.294744   -0.155010    0.544886
      3          6           0        0.059638    0.517664    0.091638
      4          8           0        0.155019    1.708225   -0.079590
      5         16           0        1.513779   -0.563830   -0.052699
      6          1           0        0.874512   -1.705147    0.268692
 ---------------------------------------------------------------------

 SCF Done:  E(UHF) =  -635.253579797     A.U. after    2 cycles

 The electronic state is 2-A.
 Alpha  occ. eigenvalues --  -93.99484 -26.52635 -20.58284 -11.38822  -8.27638
 Alpha  occ. eigenvalues --   -7.73417  -6.25478  -6.25322  -6.25069  -1.66018
 Alpha  occ. eigenvalues --   -1.51866  -1.07900  -0.88106  -0.80235  -0.73615
 Alpha  occ. eigenvalues --   -0.70611  -0.70393  -0.65308  -0.59508  -0.54940
 Alpha  occ. eigenvalues --   -0.45801  -0.41906  -0.37916
 Alpha virt. eigenvalues --    0.02805   0.04193   0.04979   0.05246   0.07111
 Alpha virt. eigenvalues --    0.07486   0.09590   0.09983   0.11677   0.13274
 Alpha virt. eigenvalues --    0.14472   0.14988   0.16371   0.17528   0.19729

  Beta  occ. eigenvalues --  -93.99473 -26.52317 -20.57689 -11.38774  -8.27627
  Beta  occ. eigenvalues --   -7.71481  -6.25417  -6.25313  -6.25080  -1.65155
  Beta  occ. eigenvalues --   -1.50548  -1.07653  -0.85844  -0.79216  -0.71665
  Beta  occ. eigenvalues --   -0.70565  -0.68263  -0.64567  -0.56846  -0.54780
  Beta  occ. eigenvalues --   -0.42732  -0.40915
  Beta virt. eigenvalues --    0.02045   0.03646   0.05026   0.05338   0.05735
  Beta virt. eigenvalues --    0.07845   0.09251   0.10712   0.11776   0.12399
  Beta virt. eigenvalues --    0.13455   0.14940   0.15477   0.16705   0.19149

 Mulliken charges and spin densities:
               1          2
     1  F   -0.428707  -0.026426
     2  B    0.613595   0.950773
     3  C    0.532330  -0.089339
     4  O   -1.028071   0.149435
     5  S    0.001074   0.017283
     6  H    0.309779  -0.001725
 Sum of Mulliken charges =   0.00000   1.00000

 Dipole moment (field-independent basis, Debye):
    X=             -0.6223    Y=             -2.5445    Z=              0.5515  Tot=              2.6769
                          Isotropic Fermi Contact Couplings
        Atom                 a.u.       MegaHertz       Gauss      10(-4) cm-1
     1  F(19)              0.06531     274.77785      98.04757      91.65603
     2  B(11)              0.33211     476.36208     169.97784     158.89729
     3  C(13)              0.06462      72.64086      25.92007      24.23038
     4  O(17)              0.04338     -26.29401      -9.38236      -8.77074
     5  S(33)             -0.00072      -0.24706      -0.08816      -0.08241
     6  H(1)              -0.00051      -2.29402      -0.81856      -0.76520
 --------------------------------------------------------
       Center         ----  Spin Dipole Couplings  ----

 Normal termination of Gaussian 16 at Wed Apr  9 00:33:01 2025.
