 Gaussian 16, Revision C.01,

 ----------------------------------------------------------------------
 #t hf aug-cc-pvdz symm=none int=(grid=ultrafine) guess=(read,tcheck) s
 table=(opt,rrhf)
 ----------------------------------------------------------------------
 -----
 title
 -----
 Symbolic Z-matrix:
 Charge =  0 Multiplicity = 1

 SCF Done:  E(RHF) =  -487.961157441     A.U. after   13 cycles
 Normal termination of Gaussian 16 at Wed Apr  9 00:33:54 2025.
 Gaussian 16:  ES64L-G16RevC.01  3-Jul-2019

 ----------------------------------------------------------------------
 #t hf aug-cc-pvdz iop(5/13=1,5/36=2,99/5=2) pseudo=read geom=check gue
 ss=(read,tcheck) scf=(maxcycle=1)
 ----------------------------------------------------------------------
 -----
 title
 -----
 Structure from the checkpoint file:  "BDE49_nonexpt_414_mol1.chk"
 Charge =  0 Multiplicity = 1

                         Standard orientation:
 ---------------------------------------------------------------------
 Center     Atomic      Atomic             Coordinates (Angstroms)
 Number     Number       Type             X           Y           Z
 ---------------------------------------------------------------------
      1          9           0        0.399951    1.590428    1.133061
      2          5           0        0.237056    0.930100    0.000000
      3          9           0        0.399951    1.590428   -1.133061
      4          6           0       -0.135040   -0.623834   -0.000000
      5          8           0        0.399951   -1.310296   -1.097401
      6          1           0        0.097070   -0.858274   -1.892552
      7          8           0       -1.545880   -0.657671   -0.000000
      8          1           0       -1.800468   -1.592549   -0.000000
      9          8           0        0.399951   -1.310296    1.097401
     10          1           0        0.097070   -0.858274    1.892552
 ---------------------------------------------------------------------

 SCF Done:  E(RHF) =  -488.426202846     A.U. after    2 cycles

 The electronic state is 1-A'.
 Alpha  occ. eigenvalues --  -26.50213 -26.50212 -20.58528 -20.58142 -20.58139
 Alpha  occ. eigenvalues --  -11.40955  -7.74172  -1.65415  -1.61525  -1.55940
 Alpha  occ. eigenvalues --   -1.45900  -1.45596  -0.93458  -0.83518  -0.80934
 Alpha  occ. eigenvalues --   -0.76896  -0.74153  -0.71027  -0.68612  -0.66662
 Alpha  occ. eigenvalues --   -0.65497  -0.65264  -0.63927  -0.61979  -0.54169
 Alpha  occ. eigenvalues --   -0.52798  -0.48617  -0.46837
 Alpha virt. eigenvalues --    0.03474   0.04256   0.04737   0.05320   0.06795
 Alpha virt. eigenvalues --    0.07758   0.10035   0.12065   0.12883   0.14873
 Alpha virt. eigenvalues --    0.16011   0.18796   0.19171   0.20379   0.21774

 Mulliken charges:
               1
     1  F   -0.657270
     2  B    1.313358
     3  F   -0.657270
     4  C    3.111260
     5  O   -1.327340
     6  H    0.300895
     7  O   -1.229820
     8  H    0.172631
     9  O   -1.327340
    10  H    0.300895
 Sum of Mulliken charges =   0.00000

 Dipole moment (field-independent basis, Debye):
    X=             -1.2680    Y=              0.0746    Z=             -0.0000  Tot=              1.2702

 Test job not archived.
 1\1\GINC-SE083\SP\RHF\Aug-CC-pVDZ\C1H3B1F2O3\OHZDE\09-Apr-2025\0\\#t h
 f aug-cc-pvdz iop(5/13=1,5/36=2,99/5=2) pseudo=read geom=check guess=(
 read,tcheck) scf=(maxcycle=1)\\title\\0,1\F,0,-0.399951,1.590428,-1.13
 3061\B,0,-0.237056,0.9301,0.\F,0,-0.399951,1.590428,1.133061\C,0,0.135
 04,-0.623834,0.\O,0,-0.399951,-1.310296,1.097401\H,0,-0.09707,-0.85827
 4,1.892552\O,0,1.54588,-0.657671,0.\H,0,1.800468,-1.592549,0.\O,0,-0.3
 99951,-1.310296,-1.097401\H,0,-0.09707,-0.858274,-1.892552\\Version=ES
 64L-G16RevC.01\State=1-A'\HF=-488.4262028\RMSD=7.786e-03\Dipole=0.4988

 Normal termination of Gaussian 16 at Wed Apr  9 00:33:59 2025.
