 Gaussian 16, Revision C.01,

 ----------------------------------------------------------------------
 #t hf aug-cc-pvdz symm=none int=(grid=ultrafine) guess=(read,tcheck) s
 table=(opt,rrhf)
 ----------------------------------------------------------------------
 -----
 title
 -----
 Symbolic Z-matrix:
 Charge =  0 Multiplicity = 1

 SCF Done:  E(RHF) =  -246.940795651     A.U. after   14 cycles
 Normal termination of Gaussian 16 at Tue Apr  8 22:38:27 2025.
 Gaussian 16:  ES64L-G16RevC.01  3-Jul-2019

 ----------------------------------------------------------------------
 #t hf aug-cc-pvdz iop(5/13=1,5/36=2,99/5=2) pseudo=read geom=check gue
 ss=(read,tcheck) scf=(maxcycle=1)
 ----------------------------------------------------------------------
 -----
 title
 -----
 Structure from the checkpoint file:  "BDE49_expt_1232_mol1.chk"
 Charge =  0 Multiplicity = 1

                         Standard orientation:
 ---------------------------------------------------------------------
 Center     Atomic      Atomic             Coordinates (Angstroms)
 Number     Number       Type             X           Y           Z
 ---------------------------------------------------------------------
      1          6           0        0.310122    0.000000   -0.326776
      2          7           0       -0.952476    0.000000    0.486172
      3          8           0       -1.958461   -0.000000   -0.172010
      4          6           0        1.071371   -1.275209    0.042815
      5          1           0        0.502136   -2.166182   -0.232231
      6          1           0        1.266916   -1.309718    1.117587
      7          6           0        1.071371    1.275208    0.042815
      8          1           0        0.023138    0.000000   -1.383422
      9          1           0        1.266916    1.309718    1.117587
     10          1           0        0.502136    2.166182   -0.232230
     11          1           0        2.028302    1.304652   -0.483773
     12          1           0        2.028301   -1.304651   -0.483773
 ---------------------------------------------------------------------

 SCF Done:  E(RHF) =  -247.194242816     A.U. after    2 cycles

 The electronic state is 1-A.
 Alpha  occ. eigenvalues --  -20.61299 -15.63469 -11.28083 -11.24591 -11.24570
 Alpha  occ. eigenvalues --   -1.59100  -1.13343  -0.96618  -0.95785  -0.81833
 Alpha  occ. eigenvalues --   -0.71566  -0.68393  -0.63648  -0.62125  -0.57020
 Alpha  occ. eigenvalues --   -0.56893  -0.55512  -0.50918  -0.50783  -0.40728
 Alpha virt. eigenvalues --    0.03599   0.04318   0.04425   0.04980   0.06428
 Alpha virt. eigenvalues --    0.06470   0.07345   0.08266   0.11738   0.12278
 Alpha virt. eigenvalues --    0.13831   0.14787   0.15196   0.16200   0.16683

 Mulliken charges:
               1
     1  C   -1.362556
     2  N    1.275156
     3  O   -1.023337
     4  C   -0.085771
     5  H    0.121894
     6  H    0.245002
     7  C   -0.085772
     8  H    0.111111
     9  H    0.245001
    10  H    0.121893
    11  H    0.218689
    12  H    0.218688
 Sum of Mulliken charges =  -0.00000

 Dipole moment (field-independent basis, Debye):
    X=              2.5510    Y=              0.0000    Z=             -0.9683  Tot=              2.7286

 Test job not archived.
 1\1\GINC-SE250\SP\RHF\Aug-CC-pVDZ\C3H7N1O1\OHZDE\08-Apr-2025\0\\#t hf
 aug-cc-pvdz iop(5/13=1,5/36=2,99/5=2) pseudo=read geom=check guess=(re
 ad,tcheck) scf=(maxcycle=1)\\title\\0,1\C,0,-0.310122,0.,-0.326776\N,0
 ,0.952476,0.,0.486172\O,0,1.958461,0.,-0.17201\C,0,-1.071371,1.275209,
 0.042815\H,0,-0.502136,2.166182,-0.232231\H,0,-1.266916,1.309718,1.117
 587\C,0,-1.071371,-1.275208,0.042815\H,0,-0.023138,0.,-1.383422\H,0,-1
 .266916,-1.309718,1.117587\H,0,-0.502137,-2.166182,-0.23223\H,0,-2.028
 302,-1.304651,-0.483773\H,0,-2.028301,1.304652,-0.483773\\Version=ES64

 Normal termination of Gaussian 16 at Tue Apr  8 22:38:30 2025.
