 Gaussian 16, Revision C.01,

 ----------------------------------------------------------------------
 #t hf aug-cc-pvdz symm=none int=(grid=ultrafine) guess=(read,tcheck) s
 table=(opt,rrhf)
 ----------------------------------------------------------------------
 -----
 title
 -----
 Symbolic Z-matrix:
 Charge =  0 Multiplicity = 1

 SCF Done:  E(RHF) =  -377.517849896     A.U. after   17 cycles
 Normal termination of Gaussian 16 at Tue Apr  8 23:08:35 2025.
 Gaussian 16:  ES64L-G16RevC.01  3-Jul-2019

 ----------------------------------------------------------------------
 #t hf aug-cc-pvdz iop(5/13=1,5/36=2,99/5=2) pseudo=read geom=check gue
 ss=(read,tcheck) scf=(maxcycle=1)
 ----------------------------------------------------------------------
 -----
 title
 -----
 Structure from the checkpoint file:  "BDE49_expt_461_mol1.chk"
 Charge =  0 Multiplicity = 1

                         Standard orientation:
 ---------------------------------------------------------------------
 Center     Atomic      Atomic             Coordinates (Angstroms)
 Number     Number       Type             X           Y           Z
 ---------------------------------------------------------------------
      1          6           0       -0.387824   -1.207980   -0.002378
      2          6           0        0.995468   -1.208894   -0.004298
      3          6           0        1.715590   -0.000001   -0.004099
      4          6           0       -1.103301    0.000001   -0.000890
      5          6           0       -0.387823    1.207981   -0.002378
      6          6           0        0.995468    1.208894   -0.004298
      7          1           0       -0.928027   -2.146829   -0.000662
      8          1           0        1.532887   -2.151190   -0.009464
      9          7           0        3.095745   -0.000001   -0.057448
     10          1           0        3.566981   -0.844484    0.226518
     11          6           0       -2.529523    0.000002    0.003740
     12          7           0       -3.686034   -0.000002    0.008137
     13          1           0        1.532889    2.151189   -0.009464
     14          1           0       -0.928025    2.146830   -0.000662
     15          1           0        3.566981    0.844482    0.226520
 ---------------------------------------------------------------------

 SCF Done:  E(RHF) =  -377.898445504     A.U. after    2 cycles

 The electronic state is 1-A.
 Alpha  occ. eigenvalues --  -15.53621 -15.50292 -11.31922 -11.27864 -11.27852
 Alpha  occ. eigenvalues --  -11.27599 -11.27450 -11.25672 -11.25666  -1.25552
 Alpha  occ. eigenvalues --   -1.22379  -1.16351  -1.04664  -1.03841  -0.88894
 Alpha  occ. eigenvalues --   -0.87561  -0.77323  -0.75218  -0.75153  -0.65367
 Alpha  occ. eigenvalues --   -0.64651  -0.62444  -0.61019  -0.58794  -0.57427
 Alpha  occ. eigenvalues --   -0.54225  -0.53523  -0.48915  -0.47631  -0.37602
 Alpha  occ. eigenvalues --   -0.33534
 Alpha virt. eigenvalues --    0.01843   0.03290   0.03965   0.05138   0.05661
 Alpha virt. eigenvalues --    0.07041   0.08112   0.08665   0.09124   0.10005
 Alpha virt. eigenvalues --    0.10394   0.11438   0.12448   0.12755   0.13172

 Mulliken charges:
               1
     1  C    0.121184
     2  C    0.815129
     3  C   -2.034712
     4  C    2.439041
     5  C    0.121197
     6  C    0.815126
     7  H   -0.305897
     8  H   -0.290745
     9  N    0.905338
    10  H    0.004013
    11  C   -3.045443
    12  N    1.048398
    13  H   -0.290745
    14  H   -0.305898
    15  H    0.004014
 Sum of Mulliken charges =  -0.00000

 Dipole moment (field-independent basis, Debye):
    X=              7.2761    Y=              0.0000    Z=              0.8369  Tot=              7.3240

 Test job not archived.
 1\1\GINC-SE120\SP\RHF\Aug-CC-pVDZ\C7H6N2\OHZDE\08-Apr-2025\0\\#t hf au
 g-cc-pvdz iop(5/13=1,5/36=2,99/5=2) pseudo=read geom=check guess=(read
 ,tcheck) scf=(maxcycle=1)\\title\\0,1\C,0,0.387824,1.20798,-0.002378\C
 ,0,-0.995468,1.208894,-0.004298\C,0,-1.71559,0.000001,-0.004099\C,0,1.
 103301,-0.000001,-0.00089\C,0,0.387823,-1.207981,-0.002378\C,0,-0.9954
 68,-1.208894,-0.004298\H,0,0.928027,2.146829,-0.000662\H,0,-1.532887,2
 .15119,-0.009464\N,0,-3.095745,0.000001,-0.057448\H,0,-3.566981,0.8444
 84,0.226518\C,0,2.529523,-0.000002,0.00374\N,0,3.686034,0.000002,0.008

 Normal termination of Gaussian 16 at Tue Apr  8 23:08:43 2025.
