 Gaussian 16, Revision C.01,

 ----------------------------------------------------------------------
 #t hf aug-cc-pvdz symm=none int=(grid=ultrafine) guess=(read,tcheck) s
 table=(opt,rrhf)
 ----------------------------------------------------------------------
 -----
 title
 -----
 Symbolic Z-matrix:
 Charge =  0 Multiplicity = 1

 SCF Done:  E(RHF) =  -1049.77744470     A.U. after   16 cycles
 Normal termination of Gaussian 16 at Tue Apr  8 23:45:36 2025.
 Gaussian 16:  ES64L-G16RevC.01  3-Jul-2019

 ----------------------------------------------------------------------
 #t hf aug-cc-pvdz iop(5/13=1,5/36=2,99/5=2) pseudo=read geom=check gue
 ss=(read,tcheck) scf=(maxcycle=1)
 ----------------------------------------------------------------------
 -----
 title
 -----
 Structure from the checkpoint file:  "BDE49_nonexpt_1696_mol1.chk"
 Charge =  0 Multiplicity = 1

                         Standard orientation:
 ---------------------------------------------------------------------
 Center     Atomic      Atomic             Coordinates (Angstroms)
 Number     Number       Type             X           Y           Z
 ---------------------------------------------------------------------
      1          6           0        2.213604   -1.132004    0.085723
      2         14           0        2.081741    0.773011    0.407209
      3          8           0        3.296633   -1.644307    0.186987
      4          8           0        1.125190   -1.883515   -0.210606
      5         15           0        0.345258    1.904161   -0.554755
      6          6           0       -1.033141    0.716028   -0.226075
      7          1           0        0.327800   -1.334100   -0.251751
      8          6           0       -1.652130    0.731570    1.034319
      9          6           0       -1.534338   -0.155664   -1.206688
     10          6           0       -2.617571   -0.989779   -0.929092
     11          6           0       -3.212411   -0.973428    0.329654
     12          6           0       -2.724990   -0.110555    1.310253
     13          1           0       -3.185677   -0.087278    2.291296
     14          1           0       -1.297708    1.412148    1.801523
     15          1           0       -1.083887   -0.177898   -2.192877
     16          1           0       -2.991696   -1.653892   -1.699953
     17          1           0       -4.050917   -1.625230    0.544737
     18          1           0        0.645192    1.478652   -1.873303
     19          1           0        3.344578    1.368844   -0.072201
     20          1           0        1.960336    0.939744    1.873312
 ---------------------------------------------------------------------

 SCF Done:  E(RHF) =  -1050.27437033     A.U. after    2 cycles

 The electronic state is 1-A.
 Alpha  occ. eigenvalues --  -84.29075 -69.56428 -20.59592 -20.54045 -11.38132
 Alpha  occ. eigenvalues --  -11.28322 -11.27225 -11.27090 -11.26972 -11.26898
 Alpha  occ. eigenvalues --  -11.26686  -6.76284  -6.23457  -4.29198  -4.28690
 Alpha  occ. eigenvalues --   -4.28119  -3.98801  -3.98763  -3.98750  -1.53698
 Alpha  occ. eigenvalues --   -1.45197  -1.18146  -1.05291  -1.04319  -0.90853
 Alpha  occ. eigenvalues --   -0.86143  -0.85275  -0.82316  -0.78518  -0.72777
 Alpha  occ. eigenvalues --   -0.67357  -0.66759  -0.65867  -0.65289  -0.62504
 Alpha  occ. eigenvalues --   -0.61888  -0.58474  -0.56393  -0.53820  -0.53178
 Alpha  occ. eigenvalues --   -0.52255  -0.49490  -0.46870  -0.45114  -0.42888
 Alpha  occ. eigenvalues --   -0.39700  -0.37382  -0.32794
 Alpha virt. eigenvalues --    0.02740   0.03125   0.03344   0.04505   0.04709
 Alpha virt. eigenvalues --    0.05373   0.06539   0.06893   0.07153   0.07238
 Alpha virt. eigenvalues --    0.07796   0.08345   0.08579   0.09566   0.10206

 Mulliken charges:
               1
     1  C    1.353006
     2  Si   1.184109
     3  O   -1.122351
     4  O   -1.265314
     5  P   -0.675952
     6  C    0.194544
     7  H    0.695042
     8  C   -0.079688
     9  C    0.199362
    10  C    0.258228
    11  C    0.189262
    12  C    0.341664
    13  H   -0.216731
    14  H   -0.292870
    15  H   -0.336764
    16  H   -0.229878
    17  H   -0.203942
    18  H    0.286922
    19  H   -0.141089
    20  H   -0.137560
 Sum of Mulliken charges =  -0.00000

 Dipole moment (field-independent basis, Debye):
    X=             -4.4545    Y=              2.5054    Z=             -0.1949  Tot=              5.1145

 Test job not archived.
 1\1\GINC-SE165\SP\RHF\Aug-CC-pVDZ\C7H9O2P1Si1\OHZDE\08-Apr-2025\0\\#t
 hf aug-cc-pvdz iop(5/13=1,5/36=2,99/5=2) pseudo=read geom=check guess=
 (read,tcheck) scf=(maxcycle=1)\\title\\0,1\C,0,2.213604,-1.132004,0.08
 5723\Si,0,2.081741,0.773011,0.407209\O,0,3.296633,-1.644307,0.186987\O
 ,0,1.12519,-1.883515,-0.210606\P,0,0.345258,1.904161,-0.554755\C,0,-1.
 033141,0.716028,-0.226075\H,0,0.3278,-1.3341,-0.251751\C,0,-1.65213,0.
 73157,1.034319\C,0,-1.534338,-0.155664,-1.206688\C,0,-2.617571,-0.9897
 79,-0.929092\C,0,-3.212411,-0.973428,0.329654\C,0,-2.72499,-0.110555,1

 Normal termination of Gaussian 16 at Tue Apr  8 23:45:54 2025.
