 Gaussian 16, Revision C.01,

 ----------------------------------------------------------------------
 #t hf aug-cc-pvdz symm=none int=(grid=ultrafine) guess=(read,tcheck) s
 table=(opt,rrhf)
 ----------------------------------------------------------------------
 -----
 title
 -----
 Symbolic Z-matrix:
 Charge =  0 Multiplicity = 1

 SCF Done:  E(RHF) =  -1010.22207104     A.U. after   12 cycles
 Normal termination of Gaussian 16 at Tue Apr  8 23:55:11 2025.
 Gaussian 16:  ES64L-G16RevC.01  3-Jul-2019

 ----------------------------------------------------------------------
 #t hf aug-cc-pvdz iop(5/13=1,5/36=2,99/5=2) pseudo=read geom=check gue
 ss=(read,tcheck) scf=(maxcycle=1)
 ----------------------------------------------------------------------
 -----
 title
 -----
 Structure from the checkpoint file:  "BDE49_nonexpt_1956_mol1.chk"
 Charge =  0 Multiplicity = 1

                         Standard orientation:
 ---------------------------------------------------------------------
 Center     Atomic      Atomic             Coordinates (Angstroms)
 Number     Number       Type             X           Y           Z
 ---------------------------------------------------------------------
      1         14           0        2.794707    0.566432   -0.105547
      2          6           0        1.684550   -0.913797    0.331665
      3         15           0       -0.906100   -0.430866    0.057263
      4          8           0       -0.862592    1.113272   -0.310295
      5          8           0       -1.937927   -1.001237   -1.022652
      6          1           0       -2.309529   -1.846719   -0.745124
      7          8           0       -1.209541   -0.762278    1.453071
      8          8           0        0.486709   -0.940441   -0.501645
      9          1           0        3.085171    0.558026   -1.555487
     10          1           0        4.059262    0.409429    0.653900
     11          6           0       -1.921030    1.986342    0.137157
     12          1           0       -1.567426    3.002622   -0.024109
     13          1           0       -2.126016    1.820611    1.195997
     14          1           0       -2.822140    1.809204   -0.453609
     15          1           0        2.150553    1.841310    0.272228
     16          1           0        1.396266   -0.919532    1.386525
     17          1           0        2.205152   -1.851804    0.127628
 ---------------------------------------------------------------------

 SCF Done:  E(RHF) =  -1010.68178280     A.U. after    2 cycles

 The electronic state is 1-A.
 Alpha  occ. eigenvalues --  -84.45132 -69.53432 -20.59305 -20.58098 -20.58033
 Alpha  occ. eigenvalues --  -20.50384 -11.30704 -11.29780  -6.90017  -6.20564
 Alpha  occ. eigenvalues --   -4.44228  -4.43598  -4.43539  -3.95940  -3.95931
 Alpha  occ. eigenvalues --   -3.95919  -1.55664  -1.47544  -1.47252  -1.38684
 Alpha  occ. eigenvalues --   -0.98614  -0.95132  -0.82058  -0.74481  -0.72908
 Alpha  occ. eigenvalues --   -0.70804  -0.66772  -0.64807  -0.64582  -0.63302
 Alpha  occ. eigenvalues --   -0.58829  -0.56801  -0.55121  -0.52959  -0.51490
 Alpha  occ. eigenvalues --   -0.49573  -0.49221  -0.48360  -0.46120  -0.45546
 Alpha  occ. eigenvalues --   -0.43738
 Alpha virt. eigenvalues --    0.03499   0.03963   0.04068   0.05085   0.05321
 Alpha virt. eigenvalues --    0.06203   0.06902   0.07614   0.08037   0.09287
 Alpha virt. eigenvalues --    0.09888   0.10497   0.11972   0.12156   0.13339

 Mulliken charges:
               1
     1  Si   1.049480
     2  C    0.035874
     3  P    4.588278
     4  O   -1.607635
     5  O   -1.276024
     6  H    0.323772
     7  O   -1.468672
     8  O   -1.627819
     9  H   -0.187030
    10  H   -0.193955
    11  C    0.218180
    12  H    0.014887
    13  H    0.147433
    14  H    0.127349
    15  H   -0.171117
    16  H    0.087466
    17  H   -0.060465
 Sum of Mulliken charges =  -0.00000

 Dipole moment (field-independent basis, Debye):
    X=              0.0832    Y=              0.4635    Z=             -0.7991  Tot=              0.9276

 Test job not archived.
 1\1\GINC-SE361\SP\RHF\Aug-CC-pVDZ\C2H9O4P1Si1\OHZDE\08-Apr-2025\0\\#t
 hf aug-cc-pvdz iop(5/13=1,5/36=2,99/5=2) pseudo=read geom=check guess=
 (read,tcheck) scf=(maxcycle=1)\\title\\0,1\Si,0,2.794707,0.566432,-0.1
 05547\C,0,1.68455,-0.913797,0.331665\P,0,-0.9061,-0.430866,0.057263\O,
 0,-0.862592,1.113272,-0.310295\O,0,-1.937927,-1.001237,-1.022652\H,0,-
 2.309529,-1.846719,-0.745124\O,0,-1.209541,-0.762278,1.453071\O,0,0.48
 6709,-0.940441,-0.501645\H,0,3.085171,0.558026,-1.555487\H,0,4.059262,
 0.409429,0.6539\C,0,-1.92103,1.986342,0.137157\H,0,-1.567426,3.002622,

 Normal termination of Gaussian 16 at Tue Apr  8 23:55:18 2025.
