 Gaussian 16, Revision C.01,

 ----------------------------------------------------------------------
 #t hf aug-cc-pvdz symm=none int=(grid=ultrafine) guess=(read,tcheck) s
 table=(opt,rrhf)
 ----------------------------------------------------------------------
 -----
 title
 -----
 Symbolic Z-matrix:
 Charge =  0 Multiplicity = 1

 SCF Done:  E(RHF) =  -835.836590540     A.U. after   14 cycles
 Normal termination of Gaussian 16 at Tue Apr  8 23:21:00 2025.
 Gaussian 16:  ES64L-G16RevC.01  3-Jul-2019

 ----------------------------------------------------------------------
 #t hf aug-cc-pvdz iop(5/13=1,5/36=2,99/5=2) pseudo=read geom=check gue
 ss=(read,tcheck) scf=(maxcycle=1)
 ----------------------------------------------------------------------
 -----
 title
 -----
 Structure from the checkpoint file:  "BDE49_nonexpt_1151_mol1.chk"
 Charge =  0 Multiplicity = 1

                         Standard orientation:
 ---------------------------------------------------------------------
 Center     Atomic      Atomic             Coordinates (Angstroms)
 Number     Number       Type             X           Y           Z
 ---------------------------------------------------------------------
      1          9           0        1.557271    1.471663   -0.043791
      2          8           0        0.893793    0.583749    0.873434
      3         16           0        0.101852   -0.587228   -0.031636
      4          8           0       -0.489342   -1.327329    1.036222
      5          8           0       -0.968219    0.277619   -0.806391
      6          6           0       -2.016680    0.933749   -0.032500
      7          1           0       -2.687651    1.343631   -0.782581
      8          1           0       -1.579771    1.729468    0.570101
      9          1           0       -2.528621    0.203609    0.592100
     10          8           0        0.970149   -1.125105   -1.013806
 ---------------------------------------------------------------------

 SCF Done:  E(RHF) =  -836.319755667     A.U. after    2 cycles

 The electronic state is 1-A.
 Alpha  occ. eigenvalues --  -94.30999 -26.55636 -20.73324 -20.65342 -20.59972
 Alpha  occ. eigenvalues --  -20.59696 -11.34409  -8.55259  -6.53384  -6.53221
 Alpha  occ. eigenvalues --   -6.53196  -1.72519  -1.65307  -1.53490  -1.51272
 Alpha  occ. eigenvalues --   -1.40001  -1.03333  -0.91117  -0.81405  -0.78127
 Alpha  occ. eigenvalues --   -0.75227  -0.73345  -0.70716  -0.69178  -0.66553
 Alpha  occ. eigenvalues --   -0.64224  -0.60739  -0.57425  -0.56799  -0.54631
 Alpha  occ. eigenvalues --   -0.53545  -0.53345  -0.51462
 Alpha virt. eigenvalues --    0.02864   0.04916   0.05308   0.07880   0.09336
 Alpha virt. eigenvalues --    0.10651   0.11054   0.12588   0.13420   0.14727
 Alpha virt. eigenvalues --    0.16148   0.17324   0.18799   0.20244   0.21417

 Mulliken charges:
               1
     1  F   -0.390429
     2  O   -0.504431
     3  S    4.302496
     4  O   -1.284056
     5  O   -1.461145
     6  C    0.190450
     7  H    0.036312
     8  H    0.190286
     9  H    0.206735
    10  O   -1.286216
 Sum of Mulliken charges =  -0.00000

 Dipole moment (field-independent basis, Debye):
    X=             -3.2666    Y=              2.4616    Z=              0.2951  Tot=              4.1009

 Test job not archived.
 1\1\GINC-SE227\SP\RHF\Aug-CC-pVDZ\C1H3F1O4S1\OHZDE\08-Apr-2025\0\\#t h
 f aug-cc-pvdz iop(5/13=1,5/36=2,99/5=2) pseudo=read geom=check guess=(
 read,tcheck) scf=(maxcycle=1)\\title\\0,1\F,0,1.557271,1.471663,-0.043
 791\O,0,0.893793,0.583749,0.873434\S,0,0.101852,-0.587228,-0.031636\O,
 0,-0.489343,-1.327329,1.036222\O,0,-0.968219,0.277619,-0.806391\C,0,-2
 .01668,0.93375,-0.0325\H,0,-2.687651,1.343632,-0.782581\H,0,-1.579771,
 1.729468,0.570101\H,0,-2.528621,0.20361,0.5921\O,0,0.970149,-1.125105,
 -1.013806\\Version=ES64L-G16RevC.01\State=1-A\HF=-836.3197557\RMSD=6.6

 Normal termination of Gaussian 16 at Tue Apr  8 23:21:04 2025.
