 Gaussian 16, Revision C.01,

 ----------------------------------------------------------------------
 #t hf aug-cc-pvdz symm=none int=(grid=ultrafine) guess=(read,tcheck) s
 table=(opt,rrhf)
 ----------------------------------------------------------------------
 -----
 title
 -----
 Symbolic Z-matrix:
 Charge =  0 Multiplicity = 1

 SCF Done:  E(RHF) =  -680.285164613     A.U. after   16 cycles
 Normal termination of Gaussian 16 at Tue Apr  8 22:43:38 2025.
 Gaussian 16:  ES64L-G16RevC.01  3-Jul-2019

 ----------------------------------------------------------------------
 #t hf aug-cc-pvdz iop(5/13=1,5/36=2,99/5=2) pseudo=read geom=check gue
 ss=(read,tcheck) scf=(maxcycle=1)
 ----------------------------------------------------------------------
 -----
 title
 -----
 Structure from the checkpoint file:  "BDE49_expt_1424_mol1.chk"
 Charge =  0 Multiplicity = 1

                         Standard orientation:
 ---------------------------------------------------------------------
 Center     Atomic      Atomic             Coordinates (Angstroms)
 Number     Number       Type             X           Y           Z
 ---------------------------------------------------------------------
      1          6           0       -0.793142    0.024955   -0.030814
      2          6           0       -0.202412    1.294414   -0.020065
      3          6           0        1.173963    1.422994   -0.006667
      4          6           0        0.015104   -1.106049   -0.026404
      5          6           0        1.403782   -0.987509   -0.013438
      6          6           0        1.989739    0.281496   -0.001843
      7          1           0       -0.436365   -2.089759   -0.039978
      8          1           0        2.009797   -1.882809   -0.014718
      9          8           0        3.326885    0.515357    0.010679
     10          6           0        4.215554   -0.596083    0.014564
     11          1           0        5.217927   -0.172315    0.025925
     12          1           0        4.091796   -1.210088   -0.883876
     13          1           0        4.074633   -1.217549    0.905299
     14          1           0       -0.826351    2.179729   -0.031224
     15          1           0        1.649360    2.395829   -0.002548
     16          6           0       -2.286552   -0.096271    0.001028
     17          9           0       -2.885717    0.806327   -0.811003
     18          9           0       -2.789858    0.119709    1.242180
     19          9           0       -2.712435   -1.320879   -0.380340
 ---------------------------------------------------------------------

 SCF Done:  E(RHF) =  -680.942868700     A.U. after    2 cycles

 The electronic state is 1-A.
 Alpha  occ. eigenvalues --  -26.49900 -26.49594 -26.49218 -20.58967 -11.51539
 Alpha  occ. eigenvalues --  -11.33010 -11.30915 -11.27301 -11.27089 -11.26397
 Alpha  occ. eigenvalues --  -11.25674 -11.25322  -1.70173  -1.60345  -1.59719
 Alpha  occ. eigenvalues --   -1.51478  -1.17963  -1.06799  -1.04503  -0.98282
 Alpha  occ. eigenvalues --   -0.93436  -0.87091  -0.85019  -0.79605  -0.79500
 Alpha  occ. eigenvalues --   -0.79029  -0.73830  -0.70193  -0.67777  -0.67150
 Alpha  occ. eigenvalues --   -0.67045  -0.65724  -0.63436  -0.62932  -0.62397
 Alpha  occ. eigenvalues --   -0.61581  -0.60869  -0.60136  -0.55153  -0.54944
 Alpha  occ. eigenvalues --   -0.54243  -0.50602  -0.49057  -0.37078  -0.34252
 Alpha virt. eigenvalues --    0.02848   0.03480   0.04057   0.04787   0.05363
 Alpha virt. eigenvalues --    0.06049   0.08363   0.08915   0.08967   0.09308
 Alpha virt. eigenvalues --    0.09337   0.10475   0.12227   0.12418   0.13408

 Mulliken charges:
               1
     1  C    0.685792
     2  C   -0.035957
     3  C    0.342321
     4  C   -0.029894
     5  C    0.236997
     6  C    1.334509
     7  H   -0.250545
     8  H   -0.409009
     9  O   -1.861831
    10  C    0.099497
    11  H   -0.032312
    12  H    0.181297
    13  H    0.179911
    14  H   -0.284728
    15  H   -0.297505
    16  C    2.563822
    17  F   -0.809804
    18  F   -0.759296
    19  F   -0.853268
 Sum of Mulliken charges =  -0.00000

 Dipole moment (field-independent basis, Debye):
    X=              3.8993    Y=             -1.0012    Z=             -0.0592  Tot=              4.0262

 Test job not archived.
 1\1\GINC-SE118\SP\RHF\Aug-CC-pVDZ\C8H7F3O1\OHZDE\08-Apr-2025\0\\#t hf
 aug-cc-pvdz iop(5/13=1,5/36=2,99/5=2) pseudo=read geom=check guess=(re
 ad,tcheck) scf=(maxcycle=1)\\title\\0,1\C,0,-0.793142,0.024955,-0.0308
 14\C,0,-0.202412,1.294414,-0.020065\C,0,1.173963,1.422994,-0.006667\C,
 0,0.015104,-1.106049,-0.026404\C,0,1.403782,-0.987509,-0.013438\C,0,1.
 989739,0.281496,-0.001843\H,0,-0.436365,-2.089759,-0.039978\H,0,2.0097
 97,-1.882809,-0.014718\O,0,3.326885,0.515357,0.010679\C,0,4.215554,-0.
 596083,0.014564\H,0,5.217927,-0.172315,0.025925\H,0,4.091796,-1.210088

 Normal termination of Gaussian 16 at Tue Apr  8 22:43:50 2025.
