 Gaussian 16, Revision C.01,

 ----------------------------------------------------------------------
 #t hf aug-cc-pvdz symm=none int=(grid=ultrafine) guess=(read,tcheck) s
 table=(opt,rrhf)
 ----------------------------------------------------------------------
 -----
 title
 -----
 Symbolic Z-matrix:
 Charge =  0 Multiplicity = 1

 SCF Done:  E(RHF) =  -814.121300411     A.U. after   15 cycles
 Normal termination of Gaussian 16 at Tue Apr  8 23:31:35 2025.
 Gaussian 16:  ES64L-G16RevC.01  3-Jul-2019

 ----------------------------------------------------------------------
 #t hf aug-cc-pvdz iop(5/13=1,5/36=2,99/5=2) pseudo=read geom=check gue
 ss=(read,tcheck) scf=(maxcycle=1)
 ----------------------------------------------------------------------
 -----
 title
 -----
 Structure from the checkpoint file:  "BDE49_nonexpt_1365_mol1.chk"
 Charge =  0 Multiplicity = 1

                         Standard orientation:
 ---------------------------------------------------------------------
 Center     Atomic      Atomic             Coordinates (Angstroms)
 Number     Number       Type             X           Y           Z
 ---------------------------------------------------------------------
      1          6           0       -1.070487    0.110403    0.742537
      2          6           0        1.009617    0.116707    0.230548
      3          6           0        2.790594   -1.519262    0.115208
      4          6           0        3.200586    0.818627   -0.631925
      5          1           0        3.444899    0.526507   -1.660431
      6          1           0        2.728226    1.796710   -0.644210
      7          1           0        2.870637   -2.008827   -0.863480
      8          1           0        2.100856   -2.086600    0.735986
      9          7           0        0.097152   -0.706180    0.654884
     10          7           0       -0.691077    1.476099    0.378430
     11          7           0        0.520261    1.472890    0.060062
     12         15           0       -2.228028   -0.572031   -0.592754
     13          7           0        2.304900   -0.153958   -0.018392
     14          9           0       -3.650486    0.098932   -0.141959
     15          1           0        4.131249    0.875287   -0.059390
     16          1           0        3.779863   -1.510235    0.580786
     17          1           0       -2.394467   -1.793954    0.110056
     18          1           0       -1.586979    0.110389    1.706527
 ---------------------------------------------------------------------

 SCF Done:  E(RHF) =  -814.634509971     A.U. after    2 cycles

 The electronic state is 1-A.
 Alpha  occ. eigenvalues --  -84.35119 -26.45769 -15.59670 -15.58237 -15.54587
 Alpha  occ. eigenvalues --  -15.49735 -11.36271 -11.31132 -11.28410 -11.28135
 Alpha  occ. eigenvalues --   -6.81354  -4.34211  -4.33484  -4.32803  -1.56816
 Alpha  occ. eigenvalues --   -1.42658  -1.29441  -1.21943  -1.08035  -1.00533
 Alpha  occ. eigenvalues --   -0.95942  -0.91045  -0.84934  -0.80643  -0.75947
 Alpha  occ. eigenvalues --   -0.70765  -0.67870  -0.66648  -0.66459  -0.65391
 Alpha  occ. eigenvalues --   -0.63794  -0.60895  -0.59191  -0.58747  -0.58101
 Alpha  occ. eigenvalues --   -0.56742  -0.51237  -0.51122  -0.50157  -0.47265
 Alpha  occ. eigenvalues --   -0.39940  -0.35900
 Alpha virt. eigenvalues --    0.02993   0.03126   0.04070   0.04246   0.04652
 Alpha virt. eigenvalues --    0.05406   0.06055   0.06658   0.07363   0.07545
 Alpha virt. eigenvalues --    0.09435   0.10048   0.11331   0.11706   0.12419

 Mulliken charges:
               1
     1  C    0.060810
     2  C   -2.226310
     3  C   -0.293448
     4  C   -0.265492
     5  H    0.187962
     6  H    0.064370
     7  H    0.191590
     8  H    0.068354
     9  N    0.799387
    10  N    0.073437
    11  N   -0.112408
    12  P    1.206696
    13  N    0.718017
    14  F   -0.831636
    15  H    0.123528
    16  H    0.138568
    17  H    0.186298
    18  H   -0.089725
 Sum of Mulliken charges =  -0.00000

 Dipole moment (field-independent basis, Debye):
    X=              3.6085    Y=             -1.9718    Z=             -0.2274  Tot=              4.1184

 Test job not archived.
 1\1\GINC-SE212\SP\RHF\Aug-CC-pVDZ\C4H8F1N4P1\OHZDE\08-Apr-2025\0\\#t h
 f aug-cc-pvdz iop(5/13=1,5/36=2,99/5=2) pseudo=read geom=check guess=(
 read,tcheck) scf=(maxcycle=1)\\title\\0,1\C,0,-1.070487,0.110403,0.742
 537\C,0,1.009617,0.116707,0.230548\C,0,2.790594,-1.519262,0.115208\C,0
 ,3.200586,0.818627,-0.631925\H,0,3.444899,0.526507,-1.660431\H,0,2.728
 226,1.79671,-0.64421\H,0,2.870637,-2.008827,-0.86348\H,0,2.100856,-2.0
 866,0.735986\N,0,0.097152,-0.70618,0.654884\N,0,-0.691077,1.476099,0.3
 7843\N,0,0.520261,1.47289,0.060062\P,0,-2.228028,-0.572031,-0.592754\N

 Normal termination of Gaussian 16 at Tue Apr  8 23:31:46 2025.
