 Gaussian 16, Revision C.01,

 ----------------------------------------------------------------------
 #t hf aug-cc-pvdz symm=none int=(grid=ultrafine) guess=(read,tcheck) s
 table=opt
 ----------------------------------------------------------------------
 -----
 title
 -----
 Symbolic Z-matrix:
 Charge =  0 Multiplicity = 2

 SCF Done:  E(UHF) =  -246.399158928     A.U. after   19 cycles
 Normal termination of Gaussian 16 at Tue Apr  8 23:03:53 2025.
 Gaussian 16:  ES64L-G16RevC.01  3-Jul-2019

 ----------------------------------------------------------------------
 #t hf aug-cc-pvdz iop(5/13=1,5/36=2,99/5=2) pseudo=read geom=check gue
 ss=(read,tcheck) scf=(maxcycle=1)
 ----------------------------------------------------------------------
 -----
 title
 -----
 Structure from the checkpoint file:  "BDE49_expt_359_mol2.chk"
 Charge =  0 Multiplicity = 2

                         Standard orientation:
 ---------------------------------------------------------------------
 Center     Atomic      Atomic             Coordinates (Angstroms)
 Number     Number       Type             X           Y           Z
 ---------------------------------------------------------------------
      1          7           0        0.411325   -0.078313    0.000004
      2          6           0       -0.855574   -0.628557    0.000013
      3          8           0       -1.890203    0.006536   -0.000013
      4          6           0        0.544906    1.378253    0.000000
      5          1           0       -0.454928    1.805493   -0.000027
      6          1           0        1.086796    1.704707   -0.890940
      7          1           0        1.086750    1.704718    0.890964
      8          6           0        1.544679   -0.861954    0.000002
      9          1           0        1.434589   -1.934697    0.000005
     10          1           0        2.506997   -0.379434   -0.000005
     11          1           0       -0.821929   -1.731337   -0.000013
 ---------------------------------------------------------------------

 SCF Done:  E(UHF) =  -246.650084285     A.U. after    2 cycles

 The electronic state is 2-A.
 Alpha  occ. eigenvalues --  -20.52776 -15.55196 -11.36370 -11.28116 -11.27571
 Alpha  occ. eigenvalues --   -1.47380  -1.28230  -1.00314  -0.97304  -0.80487
 Alpha  occ. eigenvalues --   -0.73577  -0.68991  -0.67444  -0.61794  -0.59771
 Alpha  occ. eigenvalues --   -0.56797  -0.56053  -0.49851  -0.44134  -0.32057
 Alpha virt. eigenvalues --    0.03150   0.04215   0.04804   0.05410   0.06221
 Alpha virt. eigenvalues --    0.07732   0.08838   0.09797   0.12322   0.13112
 Alpha virt. eigenvalues --    0.14426   0.15380   0.16022   0.16421   0.16465

  Beta  occ. eigenvalues --  -20.52199 -15.55053 -11.36477 -11.27605 -11.25835
  Beta  occ. eigenvalues --   -1.46203  -1.26888  -0.99198  -0.93199  -0.79551
  Beta  occ. eigenvalues --   -0.72124  -0.68162  -0.64911  -0.61263  -0.58927
  Beta  occ. eigenvalues --   -0.56606  -0.54348  -0.43552  -0.43266
  Beta virt. eigenvalues --    0.03262   0.04241   0.04843   0.04990   0.06236
  Beta virt. eigenvalues --    0.07746   0.07910   0.09885   0.10052   0.13151
  Beta virt. eigenvalues --    0.14456   0.14492   0.15552   0.16189   0.16499

 Mulliken charges and spin densities:
               1          2
     1  N    0.835031  -0.040844
     2  C    0.568684  -0.078617
     3  O   -1.062857   0.131091
     4  C   -0.337659  -0.013406
     5  H    0.029803   0.001104
     6  H    0.158681   0.002051
     7  H    0.158694   0.002051
     8  C   -0.334563   1.201451
     9  H   -0.025305  -0.105296
    10  H   -0.046598  -0.099286
    11  H    0.056090  -0.000299
 Sum of Mulliken charges =  -0.00000   1.00000

 Dipole moment (field-independent basis, Debye):
    X=              3.1492    Y=             -0.5041    Z=              0.0000  Tot=              3.1893
                          Isotropic Fermi Contact Couplings
        Atom                 a.u.       MegaHertz       Gauss      10(-4) cm-1
     1  N(14)             -0.01429      -4.61639      -1.64724      -1.53986
     2  C(13)             -0.01168     -13.13019      -4.68518      -4.37976
     3  O(17)              0.04587     -27.80756      -9.92243      -9.27560
     4  C(13)             -0.00422      -4.73927      -1.69109      -1.58085
     5  H(1)              -0.00022      -0.98602      -0.35184      -0.32890
     6  H(1)               0.00078       3.48956       1.24516       1.16399
     7  H(1)               0.00078       3.48971       1.24521       1.16404
     8  C(13)              0.18060     203.02927      72.44589      67.72327

 Normal termination of Gaussian 16 at Tue Apr  8 23:03:56 2025.
