 Gaussian 16, Revision C.01,

 ----------------------------------------------------------------------
 #t hf aug-cc-pvdz symm=none int=(grid=ultrafine) guess=(read,tcheck) s
 table=(opt,rrhf)
 ----------------------------------------------------------------------
 -----
 title
 -----
 Symbolic Z-matrix:
 Charge =  0 Multiplicity = 1

 SCF Done:  E(RHF) =  -1124.39292122     A.U. after   14 cycles
 Normal termination of Gaussian 16 at Tue Apr  8 23:01:11 2025.
 Gaussian 16:  ES64L-G16RevC.01  3-Jul-2019

 ----------------------------------------------------------------------
 #t hf aug-cc-pvdz iop(5/13=1,5/36=2,99/5=2) pseudo=read geom=check gue
 ss=(read,tcheck) scf=(maxcycle=1)
 ----------------------------------------------------------------------
 -----
 title
 -----
 Structure from the checkpoint file:  "BDE49_expt_1982_mol1.chk"
 Charge =  0 Multiplicity = 1

                         Standard orientation:
 ---------------------------------------------------------------------
 Center     Atomic      Atomic             Coordinates (Angstroms)
 Number     Number       Type             X           Y           Z
 ---------------------------------------------------------------------
      1         16           0        0.769459   -0.544706    0.035678
      2          8           0        1.579058   -1.224415   -0.935609
      3          8           0        0.784011   -0.902329    1.426589
      4          6           0       -0.933758   -0.454841   -0.570222
      5         17           0        1.319628    1.513552   -0.063560
      6          6           0       -1.904516    0.235440    0.382968
      7          1           0       -1.179864   -1.511427   -0.719801
      8          1           0       -0.862007    0.027164   -1.546424
      9          6           0       -3.335489    0.200683   -0.167873
     10          1           0       -1.589996    1.270537    0.535615
     11          1           0       -1.861640   -0.259510    1.355582
     12          1           0       -3.406659    0.712798   -1.131481
     13          1           0       -4.019264    0.697273    0.523703
     14          1           0       -3.687570   -0.825670   -0.304582
 ---------------------------------------------------------------------

 SCF Done:  E(RHF) =  -1124.80885175     A.U. after    2 cycles

 The electronic state is 1-A.
 Alpha  occ. eigenvalues -- -105.59165 -94.24503 -20.57765 -20.57709 -11.31787
 Alpha  occ. eigenvalues --  -11.27228 -11.25674 -10.64001  -8.49559  -7.80911
 Alpha  occ. eigenvalues --   -7.80510  -7.80490  -6.47616  -6.47467  -6.47274
 Alpha  occ. eigenvalues --   -1.59720  -1.47845  -1.14007  -1.08557  -1.01109
 Alpha  occ. eigenvalues --   -0.88603  -0.83702  -0.72529  -0.71517  -0.68659
 Alpha  occ. eigenvalues --   -0.67405  -0.62118  -0.59717  -0.57604  -0.54638
 Alpha  occ. eigenvalues --   -0.53406  -0.52439  -0.51879  -0.50511  -0.49146
 Alpha  occ. eigenvalues --   -0.47059  -0.46576
 Alpha virt. eigenvalues --    0.02745   0.03505   0.03773   0.04670   0.06143
 Alpha virt. eigenvalues --    0.07141   0.07240   0.07848   0.09803   0.10931
 Alpha virt. eigenvalues --    0.11763   0.12740   0.13227   0.14509   0.14860

 Mulliken charges:
               1
     1  S    3.621109
     2  O   -1.509880
     3  O   -1.524242
     4  C   -1.024444
     5  Cl  -0.231743
     6  C   -0.212481
     7  H    0.257908
     8  H    0.184885
     9  C   -0.368790
    10  H    0.162479
    11  H    0.188896
    12  H    0.164209
    13  H    0.131068
    14  H    0.161027
 Sum of Mulliken charges =   0.00000

 Dipole moment (field-independent basis, Debye):
    X=             -4.5944    Y=              0.7833    Z=             -1.1330  Tot=              4.7964

 Test job not archived.
 1\1\GINC-SE187\SP\RHF\Aug-CC-pVDZ\C3H7Cl1O2S1\OHZDE\08-Apr-2025\0\\#t
 hf aug-cc-pvdz iop(5/13=1,5/36=2,99/5=2) pseudo=read geom=check guess=
 (read,tcheck) scf=(maxcycle=1)\\title\\0,1\S,0,0.769459,-0.544706,0.03
 5678\O,0,1.579058,-1.224415,-0.935609\O,0,0.784011,-0.902329,1.426589\
 C,0,-0.933758,-0.454841,-0.570222\Cl,0,1.319628,1.513552,-0.06356\C,0,
 -1.904516,0.23544,0.382968\H,0,-1.179864,-1.511427,-0.719801\H,0,-0.86
 2007,0.027164,-1.546424\C,0,-3.335489,0.200683,-0.167873\H,0,-1.589996
 ,1.270537,0.535615\H,0,-1.86164,-0.25951,1.355582\H,0,-3.406659,0.7127

 Normal termination of Gaussian 16 at Tue Apr  8 23:01:17 2025.
