 Gaussian 16, Revision C.01,

 ----------------------------------------------------------------------
 #t hf aug-cc-pvdz symm=none int=(grid=ultrafine) guess=(read,tcheck) s
 table=opt
 ----------------------------------------------------------------------
 -----
 title
 -----
 Symbolic Z-matrix:
 Charge =  0 Multiplicity = 2

 SCF Done:  E(UHF) =  -593.284031810     A.U. after   16 cycles

 1\1\GINC-SE212\Stability\UHF\Aug-CC-pVDZ\C5H11S1\OHZDE\09-Apr-2025\0\\
 #t hf aug-cc-pvdz symm=none int=(grid=ultrafine) guess=(read,tcheck) s
 table=opt\\title\\0,2\S,0,2.117204,0.003017,-0.000007\C,0,0.517026,0.8
 50013,-0.000113\C,0,-0.767031,-0.012837,0.000004\C,0,-1.967084,0.95457
 6,-0.000114\H,0,-1.959779,1.598327,0.885076\H,0,-2.909174,0.398924,-0.
 000038\H,0,-1.959788,1.5981,-0.885468\C,0,-0.817346,-0.893257,1.25962\
 H,0,-0.798442,-0.283841,2.16908\H,0,0.03274,-1.579273,1.293006\H,0,-1.
 734023,-1.489569,1.275881\C,0,-0.81736,-0.893581,-1.259385\H,0,-0.7984

 Normal termination of Gaussian 16 at Wed Apr  9 00:25:37 2025.
 Gaussian 16:  ES64L-G16RevC.01  3-Jul-2019

 ----------------------------------------------------------------------
 #t hf aug-cc-pvdz iop(5/13=1,5/36=2,99/5=2) pseudo=read geom=check gue
 ss=(read,tcheck) scf=(maxcycle=1)
 ----------------------------------------------------------------------
 -----
 title
 -----
 Structure from the checkpoint file:  "BDE49_nonexpt_2711_mol2.chk"
 Charge =  0 Multiplicity = 2

                         Standard orientation:
 ---------------------------------------------------------------------
 Center     Atomic      Atomic             Coordinates (Angstroms)
 Number     Number       Type             X           Y           Z
 ---------------------------------------------------------------------
      1         16           0        2.117204    0.003017   -0.000007
      2          6           0        0.517026    0.850013   -0.000113
      3          6           0       -0.767031   -0.012837    0.000004
      4          6           0       -1.967084    0.954576   -0.000114
      5          1           0       -1.959779    1.598327    0.885076
      6          1           0       -2.909174    0.398924   -0.000038
      7          1           0       -1.959788    1.598100   -0.885468
      8          6           0       -0.817346   -0.893257    1.259620
      9          1           0       -0.798442   -0.283841    2.169080
     10          1           0        0.032740   -1.579273    1.293006
     11          1           0       -1.734023   -1.489569    1.275881
     12          6           0       -0.817360   -0.893581   -1.259385
     13          1           0       -0.798468   -0.284399   -2.169002
     14          1           0       -1.734036   -1.489898   -1.275483
     15          1           0        0.032727   -1.579603   -1.292607
     16          1           0        0.531874    1.516623   -0.872380
     17          1           0        0.531875    1.516856    0.871975
 ---------------------------------------------------------------------

 SCF Done:  E(UHF) =  -593.556462093     A.U. after    2 cycles

 The electronic state is 2-A.
 Alpha  occ. eigenvalues --  -93.96171 -11.26998 -11.25112 -11.22925 -11.22389
 Alpha  occ. eigenvalues --  -11.22366  -8.24197  -6.23377  -6.21613  -6.21313
 Alpha  occ. eigenvalues --   -1.12868  -1.03800  -0.93987  -0.93707  -0.87780
 Alpha  occ. eigenvalues --   -0.74351  -0.64287  -0.63661  -0.60981  -0.58501
 Alpha  occ. eigenvalues --   -0.55822  -0.53579  -0.52434  -0.51003  -0.48796
 Alpha  occ. eigenvalues --   -0.47797  -0.45979  -0.42822  -0.37255
 Alpha virt. eigenvalues --    0.03504   0.03835   0.03849   0.04546   0.06211
 Alpha virt. eigenvalues --    0.06502   0.06706   0.07024   0.07271   0.09534
 Alpha virt. eigenvalues --    0.09736   0.10091   0.12525   0.14023   0.14544

  Beta  occ. eigenvalues --  -93.95280 -11.27125 -11.25112 -11.22930 -11.22386
  Beta  occ. eigenvalues --  -11.22364  -8.23173  -6.21090  -6.20775  -6.19417
  Beta  occ. eigenvalues --   -1.12265  -0.99943  -0.93954  -0.93680  -0.83048
  Beta  occ. eigenvalues --   -0.73654  -0.63567  -0.63373  -0.60704  -0.57400
  Beta  occ. eigenvalues --   -0.55649  -0.53116  -0.52394  -0.50510  -0.48614
  Beta  occ. eigenvalues --   -0.47428  -0.45309  -0.35126
  Beta virt. eigenvalues --    0.01286   0.03515   0.03853   0.04038   0.04588
  Beta virt. eigenvalues --    0.06222   0.06505   0.06735   0.07328   0.07441
  Beta virt. eigenvalues --    0.09543   0.09768   0.10182   0.12585   0.14136

 Mulliken charges and spin densities:
               1          2
     1  S    0.241423   1.117359
     2  C   -0.306846  -0.138637
     3  C   -2.566439  -0.007625
     4  C    0.219555   0.003362
     5  H    0.179852  -0.000823
     6  H    0.185615   0.000016
     7  H    0.179851  -0.000823
     8  C    0.126297   0.010362
     9  H    0.195133   0.001156
    10  H    0.226431  -0.014819
    11  H    0.193804   0.000016
    12  C    0.126301   0.010362
    13  H    0.195131   0.001156
    14  H    0.193803   0.000017
    15  H    0.226431  -0.014819
    16  H    0.191832   0.016871
    17  H    0.191826   0.016871
 Sum of Mulliken charges =  -0.00000   1.00000

 Dipole moment (field-independent basis, Debye):
    X=             -1.7293    Y=              0.6303    Z=             -0.0001  Tot=              1.8405
                          Isotropic Fermi Contact Couplings
        Atom                 a.u.       MegaHertz       Gauss      10(-4) cm-1
     1  S(33)              0.17605      60.46888      21.57680      20.17025
     2  C(13)             -0.02643     -29.71646     -10.60357      -9.91234
     3  C(13)             -0.00046      -0.51385      -0.18335      -0.17140
     4  C(13)             -0.00126      -1.41501      -0.50491      -0.47200
     5  H(1)               0.00001       0.06489       0.02315       0.02164
     6  H(1)              -0.00018      -0.80408      -0.28692      -0.26821
     7  H(1)               0.00001       0.06488       0.02315       0.02164
     8  C(13)             -0.00045      -0.50963      -0.18185      -0.16999

 Normal termination of Gaussian 16 at Wed Apr  9 00:25:45 2025.
