 Gaussian 16, Revision C.01,

 ----------------------------------------------------------------------
 #t hf aug-cc-pvdz symm=none int=(grid=ultrafine) guess=(read,tcheck) s
 table=(opt,rrhf)
 ----------------------------------------------------------------------
 -----
 title
 -----
 Symbolic Z-matrix:
 Charge =  0 Multiplicity = 1

 SCF Done:  E(RHF) =  -1443.83049187     A.U. after   14 cycles
 Normal termination of Gaussian 16 at Wed Apr  9 00:18:39 2025.
 Gaussian 16:  ES64L-G16RevC.01  3-Jul-2019

 ----------------------------------------------------------------------
 #t hf aug-cc-pvdz iop(5/13=1,5/36=2,99/5=2) pseudo=read geom=check gue
 ss=(read,tcheck) scf=(maxcycle=1)
 ----------------------------------------------------------------------
 -----
 title
 -----
 Structure from the checkpoint file:  "BDE49_nonexpt_2579_mol1.chk"
 Charge =  0 Multiplicity = 1

                         Standard orientation:
 ---------------------------------------------------------------------
 Center     Atomic      Atomic             Coordinates (Angstroms)
 Number     Number       Type             X           Y           Z
 ---------------------------------------------------------------------
      1         17           0       -2.236818   -0.420666   -0.077460
      2         16           0       -0.800159    1.023130    0.268376
      3         16           0        1.032017   -0.021719   -0.183569
      4          8           0        1.980116    1.064188   -0.075120
      5          6           0        1.247206   -1.138779    1.204355
      6          8           0        0.887289   -0.812533   -1.377209
      7          1           0        1.322983   -0.547427    2.113972
      8          1           0        2.171837   -1.683748    1.006963
      9          1           0        0.398886   -1.820637    1.231474
 ---------------------------------------------------------------------

 SCF Done:  E(RHF) =  -1444.21974663     A.U. after    2 cycles

 The electronic state is 1-A.
 Alpha  occ. eigenvalues -- -105.61525 -94.23293 -94.05123 -20.57190 -20.57174
 Alpha  occ. eigenvalues --  -11.31386 -10.66205  -8.48502  -8.32867  -7.83152
 Alpha  occ. eigenvalues --   -7.82687  -7.82646  -6.46583  -6.46385  -6.46261
 Alpha  occ. eigenvalues --   -6.30598  -6.30388  -6.30065  -1.58965  -1.47227
 Alpha  occ. eigenvalues --   -1.15680  -1.08532  -0.98493  -0.85047  -0.71904
 Alpha  occ. eigenvalues --   -0.70410  -0.69117  -0.63487  -0.63004  -0.57579
 Alpha  occ. eigenvalues --   -0.54877  -0.53221  -0.51641  -0.50914  -0.49285
 Alpha  occ. eigenvalues --   -0.43844  -0.41380
 Alpha virt. eigenvalues --    0.02835   0.03035   0.04964   0.05537   0.06007
 Alpha virt. eigenvalues --    0.08311   0.10064   0.11434   0.11860   0.12248
 Alpha virt. eigenvalues --    0.13039   0.14257   0.15141   0.15492   0.15863

 Mulliken charges:
               1
     1  Cl  -0.238646
     2  S    0.259749
     3  S    3.042468
     4  O   -1.466895
     5  C   -0.870273
     6  O   -1.470179
     7  H    0.244204
     8  H    0.258051
     9  H    0.241521
 Sum of Mulliken charges =  -0.00000

 Dipole moment (field-independent basis, Debye):
    X=             -0.4859    Y=             -1.7095    Z=              3.4750  Tot=              3.9031

 Test job not archived.
 1\1\GINC-SE343\SP\RHF\Aug-CC-pVDZ\C1H3Cl1O2S2\OHZDE\09-Apr-2025\0\\#t
 hf aug-cc-pvdz iop(5/13=1,5/36=2,99/5=2) pseudo=read geom=check guess=
 (read,tcheck) scf=(maxcycle=1)\\title\\0,1\Cl,0,-2.236818,0.420666,0.0
 7746\S,0,-0.800159,-1.02313,-0.268376\S,0,1.032017,0.021719,0.183569\O
 ,0,1.980116,-1.064188,0.07512\C,0,1.247206,1.138779,-1.204355\O,0,0.88
 7289,0.812533,1.377209\H,0,1.322983,0.547427,-2.113972\H,0,2.171837,1.
 683748,-1.006963\H,0,0.398886,1.820637,-1.231474\\Version=ES64L-G16Rev
 C.01\State=1-A\HF=-1444.2197466\RMSD=6.371e-03\Dipole=-0.191172,0.6725

 Normal termination of Gaussian 16 at Wed Apr  9 00:18:42 2025.
