 Gaussian 16, Revision C.01,

 ----------------------------------------------------------------------
 #t hf aug-cc-pvdz symm=none int=(grid=ultrafine) guess=(read,tcheck) s
 table=(opt,rrhf)
 ----------------------------------------------------------------------
 -----
 title
 -----
 Symbolic Z-matrix:
 Charge =  0 Multiplicity = 1

 SCF Done:  E(RHF) =  -955.975196129     A.U. after   12 cycles

 1\1\GINC-SE366\Stability\RHF\Aug-CC-pVDZ\H6O5Si2\OHZDE\09-Apr-2025\0\\
 #t hf aug-cc-pvdz symm=none int=(grid=ultrafine) guess=(read,tcheck) s
 table=(opt,rrhf)\\title\\0,1\Si,0,0.982077,-0.005525,0.032339\Si,0,-1.
 326948,-0.085214,0.439063\O,0,1.320854,1.458358,-0.650372\H,0,0.601997
 ,2.09833,-0.613524\O,0,-2.074464,-1.364718,-0.292103\H,0,-1.6863,-1.70
 6298,-1.101846\O,0,1.501412,-1.131796,-1.060106\H,0,1.753878,-0.782967
 ,-1.919379\O,0,-1.755618,1.38702,-0.214574\H,0,-2.669038,1.67911,-0.14
 5589\O,0,1.749198,-0.272272,1.453919\H,0,2.690393,-0.467767,1.448477\H

 Normal termination of Gaussian 16 at Wed Apr  9 00:09:50 2025.
 Gaussian 16:  ES64L-G16RevC.01  3-Jul-2019

 ----------------------------------------------------------------------
 #t hf aug-cc-pvdz iop(5/13=1,5/36=2,99/5=2) pseudo=read geom=check gue
 ss=(read,tcheck) scf=(maxcycle=1)
 ----------------------------------------------------------------------
 -----
 title
 -----
 Structure from the checkpoint file:  "BDE49_nonexpt_2333_mol1.chk"
 Charge =  0 Multiplicity = 1

                         Standard orientation:
 ---------------------------------------------------------------------
 Center     Atomic      Atomic             Coordinates (Angstroms)
 Number     Number       Type             X           Y           Z
 ---------------------------------------------------------------------
      1         14           0        0.982077   -0.005525    0.032339
      2         14           0       -1.326948   -0.085214    0.439063
      3          8           0        1.320854    1.458358   -0.650372
      4          1           0        0.601997    2.098330   -0.613524
      5          8           0       -2.074464   -1.364718   -0.292103
      6          1           0       -1.686300   -1.706298   -1.101846
      7          8           0        1.501412   -1.131796   -1.060106
      8          1           0        1.753878   -0.782967   -1.919379
      9          8           0       -1.755618    1.387020   -0.214574
     10          1           0       -2.669038    1.679110   -0.145589
     11          8           0        1.749198   -0.272272    1.453919
     12          1           0        2.690393   -0.467767    1.448477
     13          1           0       -1.793801   -0.162807    1.838101
 ---------------------------------------------------------------------

 SCF Done:  E(RHF) =  -956.414214671     A.U. after    2 cycles

 The electronic state is 1-A.
 Alpha  occ. eigenvalues --  -69.59740 -69.57967 -20.55815 -20.55214 -20.55204
 Alpha  occ. eigenvalues --  -20.55023 -20.54806  -6.25797  -6.24283  -4.01278
 Alpha  occ. eigenvalues --   -4.01260  -4.01074  -3.99781  -3.99649  -3.99547
 Alpha  occ. eigenvalues --   -1.46328  -1.45055  -1.43050  -1.42907  -1.42378
 Alpha  occ. eigenvalues --   -0.80376  -0.76774  -0.71735  -0.70704  -0.70295
 Alpha  occ. eigenvalues --   -0.61021  -0.60051  -0.58042  -0.57049  -0.56604
 Alpha  occ. eigenvalues --   -0.55713  -0.52293  -0.50865  -0.49595  -0.48970
 Alpha  occ. eigenvalues --   -0.48739  -0.41090
 Alpha virt. eigenvalues --    0.03254   0.03790   0.04804   0.05434   0.06773
 Alpha virt. eigenvalues --    0.06856   0.07830   0.07903   0.08305   0.09520
 Alpha virt. eigenvalues --    0.10135   0.10533   0.13123   0.14242   0.15360

 Mulliken charges:
               1
     1  Si   3.141784
     2  Si   2.180952
     3  O   -1.676223
     4  H    0.518998
     5  O   -1.465456
     6  H    0.458769
     7  O   -1.443761
     8  H    0.378693
     9  O   -1.302410
    10  H    0.403220
    11  O   -1.419336
    12  H    0.416271
    13  H   -0.191499
 Sum of Mulliken charges =   0.00000

 Dipole moment (field-independent basis, Debye):
    X=             -0.2745    Y=              0.9081    Z=             -1.3876  Tot=              1.6809

 Test job not archived.
 1\1\GINC-SE366\SP\RHF\Aug-CC-pVDZ\H6O5Si2\OHZDE\09-Apr-2025\0\\#t hf a
 ug-cc-pvdz iop(5/13=1,5/36=2,99/5=2) pseudo=read geom=check guess=(rea
 d,tcheck) scf=(maxcycle=1)\\title\\0,1\Si,0,0.982077,-0.005525,0.03233
 9\Si,0,-1.326948,-0.085214,0.439063\O,0,1.320854,1.458358,-0.650372\H,
 0,0.601997,2.09833,-0.613524\O,0,-2.074464,-1.364718,-0.292103\H,0,-1.
 6863,-1.706298,-1.101846\O,0,1.501412,-1.131796,-1.060106\H,0,1.753878
 ,-0.782967,-1.919379\O,0,-1.755618,1.38702,-0.214574\H,0,-2.669038,1.6
 7911,-0.145589\O,0,1.749198,-0.272272,1.453919\H,0,2.690393,-0.467767,

 Normal termination of Gaussian 16 at Wed Apr  9 00:09:54 2025.
