 Gaussian 16, Revision C.01,

 ----------------------------------------------------------------------
 #t hf aug-cc-pvdz symm=none int=(grid=ultrafine) guess=(read,tcheck) s
 table=(opt,rrhf)
 ----------------------------------------------------------------------
 -----
 title
 -----
 Symbolic Z-matrix:
 Charge =  0 Multiplicity = 1

 SCF Done:  E(RHF) =  -749.496566013     A.U. after   14 cycles
 Normal termination of Gaussian 16 at Tue Apr  8 22:40:04 2025.
 Gaussian 16:  ES64L-G16RevC.01  3-Jul-2019

 ----------------------------------------------------------------------
 #t hf aug-cc-pvdz iop(5/13=1,5/36=2,99/5=2) pseudo=read geom=check gue
 ss=(read,tcheck) scf=(maxcycle=1)
 ----------------------------------------------------------------------
 -----
 title
 -----
 Structure from the checkpoint file:  "BDE49_expt_1267_mol1.chk"
 Charge =  0 Multiplicity = 1

                         Standard orientation:
 ---------------------------------------------------------------------
 Center     Atomic      Atomic             Coordinates (Angstroms)
 Number     Number       Type             X           Y           Z
 ---------------------------------------------------------------------
      1          6           0        0.000003    0.000006    0.395571
      2          7           0        1.443979   -0.172035   -0.137167
      3          7           0       -0.870945   -1.164476   -0.137249
      4          7           0       -0.572939    1.336518   -0.137278
      5          9           0       -0.000049    0.000033    1.702106
      6          8           0       -1.252824    1.267212   -1.133637
      7          8           0       -1.864167   -1.375551    0.516627
      8          8           0        1.723753    0.450889   -1.133898
      9          8           0       -0.471190   -1.718345   -1.133844
     10          8           0        2.123410   -0.926471    0.516896
     11          8           0       -0.259012    2.302218    0.516540
 ---------------------------------------------------------------------

 SCF Done:  E(RHF) =  -750.190234449     A.U. after    2 cycles

 The electronic state is 1-A.
 Alpha  occ. eigenvalues --  -26.61058 -20.67232 -20.67230 -20.67230 -20.67129
 Alpha  occ. eigenvalues --  -20.67129 -20.67129 -15.87784 -15.87784 -15.87706
 Alpha  occ. eigenvalues --  -11.58742  -1.78435  -1.75366  -1.75366  -1.74332
 Alpha  occ. eigenvalues --   -1.60171  -1.60171  -1.60074  -1.25449  -1.09183
 Alpha  occ. eigenvalues --   -1.09182  -0.93434  -0.90825  -0.90825  -0.89678
 Alpha  occ. eigenvalues --   -0.82580  -0.82580  -0.81555  -0.81555  -0.81547
 Alpha  occ. eigenvalues --   -0.80097  -0.76109  -0.76109  -0.60866  -0.57538
 Alpha  occ. eigenvalues --   -0.57268  -0.57267  -0.54937  -0.54937  -0.52979
 Alpha  occ. eigenvalues --   -0.51328  -0.51328
 Alpha virt. eigenvalues --   -0.01353  -0.01352  -0.00457   0.06670   0.09313
 Alpha virt. eigenvalues --    0.09433   0.09433   0.12333   0.12333   0.13433
 Alpha virt. eigenvalues --    0.13502   0.13503   0.17391   0.18821   0.19629

 Mulliken charges:
               1
     1  C    0.731048
     2  N    2.700952
     3  N    2.701005
     4  N    2.700990
     5  F   -0.858867
     6  O   -1.322222
     7  O   -1.336102
     8  O   -1.322345
     9  O   -1.322265
    10  O   -1.336060
    11  O   -1.336134
 Sum of Mulliken charges =  -0.00000

 Dipole moment (field-independent basis, Debye):
    X=             -0.0000    Y=             -0.0000    Z=              1.2480  Tot=              1.2480

 Test job not archived.
 1\1\GINC-SE090\SP\RHF\Aug-CC-pVDZ\C1F1N3O6\OHZDE\08-Apr-2025\0\\#t hf
 aug-cc-pvdz iop(5/13=1,5/36=2,99/5=2) pseudo=read geom=check guess=(re
 ad,tcheck) scf=(maxcycle=1)\\title\\0,1\C,0,-0.000003,-0.000006,0.3955
 71\N,0,-1.444104,0.170982,-0.137167\N,0,0.870095,1.165111,-0.137249\N,
 0,0.573914,-1.3361,-0.137278\F,0,0.000049,-0.000033,1.702106\O,0,1.253
 748,-1.266298,-1.133637\O,0,1.863163,1.376911,0.516627\O,0,-1.723424,-
 0.452146,-1.133898\O,0,0.469936,1.718688,-1.133844\O,0,-2.124085,0.924
 922,0.516896\O,0,0.260692,-2.302028,0.51654\\Version=ES64L-G16RevC.01\

 Normal termination of Gaussian 16 at Tue Apr  8 22:40:11 2025.
