 Gaussian 16, Revision C.01,

 ----------------------------------------------------------------------
 #t hf aug-cc-pvdz symm=none int=(grid=ultrafine) guess=(read,tcheck) s
 table=(opt,rrhf)
 ----------------------------------------------------------------------
 -----
 title
 -----
 Symbolic Z-matrix:
 Charge =  0 Multiplicity = 1

 SCF Done:  E(RHF) =  -796.230114255     A.U. after   12 cycles
 Normal termination of Gaussian 16 at Tue Apr  8 22:58:34 2025.
 Gaussian 16:  ES64L-G16RevC.01  3-Jul-2019

 ----------------------------------------------------------------------
 #t hf aug-cc-pvdz iop(5/13=1,5/36=2,99/5=2) pseudo=read geom=check gue
 ss=(read,tcheck) scf=(maxcycle=1)
 ----------------------------------------------------------------------
 -----
 title
 -----
 Structure from the checkpoint file:  "BDE49_expt_1951_mol1.chk"
 Charge =  0 Multiplicity = 1

                         Standard orientation:
 ---------------------------------------------------------------------
 Center     Atomic      Atomic             Coordinates (Angstroms)
 Number     Number       Type             X           Y           Z
 ---------------------------------------------------------------------
      1         16           0        0.000000    1.048144   -0.055145
      2         16           0       -0.000000   -1.048144   -0.055145
      3          1           0       -0.949508    1.239945    0.882315
      4          1           0        0.949508   -1.239945    0.882315
 ---------------------------------------------------------------------

 SCF Done:  E(RHF) =  -796.353266815     A.U. after    2 cycles

 The electronic state is 1-A.
 Alpha  occ. eigenvalues --  -93.98996 -93.98990  -8.26936  -8.26913  -6.24767
 Alpha  occ. eigenvalues --   -6.24732  -6.24574  -6.24566  -6.24318  -6.24318
 Alpha  occ. eigenvalues --   -1.09499  -0.92521  -0.60650  -0.56207  -0.48789
 Alpha  occ. eigenvalues --   -0.39423  -0.39280
 Alpha virt. eigenvalues --    0.03792   0.04144   0.07099   0.10810   0.11621
 Alpha virt. eigenvalues --    0.11626   0.13536   0.13844   0.16014   0.17995
 Alpha virt. eigenvalues --    0.19523   0.24293   0.25057   0.26438   0.30495

 Mulliken charges:
               1
     1  S   -0.408216
     2  S   -0.408216
     3  H    0.408216
     4  H    0.408216
 Sum of Mulliken charges =  -0.00000

 Dipole moment (field-independent basis, Debye):
    X=             -0.0000    Y=             -0.0000    Z=              1.3640  Tot=              1.3640

 Test job not archived.
 1\1\GINC-SE072\SP\RHF\Aug-CC-pVDZ\H2S2\OHZDE\08-Apr-2025\0\\#t hf aug-
 cc-pvdz iop(5/13=1,5/36=2,99/5=2) pseudo=read geom=check guess=(read,t
 check) scf=(maxcycle=1)\\title\\0,1\S,0,0.,1.048144,-0.055145\S,0,0.,-
 1.048144,-0.055145\H,0,-0.949508,1.239945,0.882315\H,0,0.949508,-1.239
 945,0.882315\\Version=ES64L-G16RevC.01\State=1-A\HF=-796.3532668\RMSD=
 4.571e-03\Dipole=0.,0.,0.5366533\Quadrupole=-0.2302321,0.6608,-0.43056
 79,-1.8195498,0.,0.\PG=C02 [X(H2S2)]\\@

 Normal termination of Gaussian 16 at Tue Apr  8 22:58:35 2025.
