 Gaussian 16, Revision C.01,

 ----------------------------------------------------------------------
 #t hf aug-cc-pvdz symm=none int=(grid=ultrafine) guess=(read,tcheck) s
 table=(opt,rrhf)
 ----------------------------------------------------------------------
 -----
 title
 -----
 Symbolic Z-matrix:
 Charge =  0 Multiplicity = 1

 SCF Done:  E(RHF) =  -279.388935395     A.U. after   11 cycles
 Normal termination of Gaussian 16 at Wed Apr  9 00:30:41 2025.
 Gaussian 16:  ES64L-G16RevC.01  3-Jul-2019

 ----------------------------------------------------------------------
 #t hf aug-cc-pvdz iop(5/13=1,5/36=2,99/5=2) pseudo=read geom=check gue
 ss=(read,tcheck) scf=(maxcycle=1)
 ----------------------------------------------------------------------
 -----
 title
 -----
 Structure from the checkpoint file:  "BDE49_nonexpt_351_mol1.chk"
 Charge =  0 Multiplicity = 1

                         Standard orientation:
 ---------------------------------------------------------------------
 Center     Atomic      Atomic             Coordinates (Angstroms)
 Number     Number       Type             X           Y           Z
 ---------------------------------------------------------------------
      1          9           0        0.729248    1.142028    0.000012
      2          9           0        0.729251   -1.142027    0.000007
      3          7           0       -1.358348   -0.000001   -0.000003
      4          5           0        0.035049   -0.000000   -0.000035
      5          1           0       -1.896650    0.849610    0.000016
      6          1           0       -1.896648   -0.849614    0.000012
 ---------------------------------------------------------------------

 SCF Done:  E(RHF) =  -279.650690391     A.U. after    2 cycles

 The electronic state is 1-A.
 Alpha  occ. eigenvalues --  -26.46456 -26.46455 -15.51202  -7.71328  -1.61407
 Alpha  occ. eigenvalues --   -1.57651  -1.19037  -0.80564  -0.76585  -0.75050
 Alpha  occ. eigenvalues --   -0.69221  -0.68526  -0.62307  -0.62104  -0.60901
 Alpha  occ. eigenvalues --   -0.49324
 Alpha virt. eigenvalues --    0.02935   0.05417   0.05806   0.06294   0.07492
 Alpha virt. eigenvalues --    0.09559   0.16233   0.17540   0.19726   0.20042
 Alpha virt. eigenvalues --    0.22057   0.24286   0.25458   0.27956   0.28081

 Mulliken charges:
               1
     1  F   -0.650566
     2  F   -0.650566
     3  N    0.062312
     4  B    1.256470
     5  H   -0.008825
     6  H   -0.008825
 Sum of Mulliken charges =  -0.00000

 Dipole moment (field-independent basis, Debye):
    X=             -2.5918    Y=             -0.0000    Z=             -0.0001  Tot=              2.5918

 Test job not archived.
 1\1\GINC-SE332\SP\RHF\Aug-CC-pVDZ\B1F2H2N1\OHZDE\09-Apr-2025\0\\#t hf
 aug-cc-pvdz iop(5/13=1,5/36=2,99/5=2) pseudo=read geom=check guess=(re
 ad,tcheck) scf=(maxcycle=1)\\title\\0,1\F,0,-0.729249,-1.142028,0.0000
 12\F,0,-0.72925,1.142027,0.000007\N,0,1.358348,0.,-0.000003\B,0,-0.035
 049,0.,-0.000035\H,0,1.896649,-0.849612,0.000016\H,0,1.896649,0.849612
 ,0.000012\\Version=ES64L-G16RevC.01\State=1-A\HF=-279.6506904\RMSD=6.9
 36e-03\Dipole=1.0197062,0.0000011,-0.0000456\Quadrupole=1.7455873,-1.0
 970841,-0.6485031,-0.0000003,0.0001411,0.0000005\PG=C01 [X(B1F2H2N1)]\

 Normal termination of Gaussian 16 at Wed Apr  9 00:30:42 2025.
