 Gaussian 16, Revision C.01,

 ----------------------------------------------------------------------
 #t hf aug-cc-pvdz symm=none int=(grid=ultrafine) guess=(read,tcheck) s
 table=opt
 ----------------------------------------------------------------------
 -----
 title
 -----
 Symbolic Z-matrix:
 Charge =  0 Multiplicity = 2

 SCF Done:  E(UHF) =  -230.398763913     A.U. after   21 cycles
 Normal termination of Gaussian 16 at Tue Apr  8 22:42:45 2025.
 Gaussian 16:  ES64L-G16RevC.01  3-Jul-2019

 ----------------------------------------------------------------------
 #t hf aug-cc-pvdz iop(5/13=1,5/36=2,99/5=2) pseudo=read geom=check gue
 ss=(read,tcheck) scf=(maxcycle=1)
 ----------------------------------------------------------------------
 -----
 title
 -----
 Structure from the checkpoint file:  "BDE49_expt_1445_mol2.chk"
 Charge =  0 Multiplicity = 2

                         Standard orientation:
 ---------------------------------------------------------------------
 Center     Atomic      Atomic             Coordinates (Angstroms)
 Number     Number       Type             X           Y           Z
 ---------------------------------------------------------------------
      1          6           0       -1.219210   -0.101172   -0.378018
      2          8           0       -2.249459   -0.473167    0.061190
      3          6           0       -0.180927    0.795771    0.285874
      4          6           0        1.240848    0.574744   -0.238049
      5          1           0       -0.249385    0.651341    1.371834
      6          1           0       -0.518003    1.817071    0.069010
      7          6           0        1.795516   -0.810478    0.103201
      8          1           0        1.890100    1.348952    0.182520
      9          1           0        1.242978    0.718521   -1.323163
     10          1           0        1.828961   -0.967844    1.185750
     11          1           0        2.809658   -0.935803   -0.283788
     12          1           0        1.174003   -1.600093   -0.329732
 ---------------------------------------------------------------------

 SCF Done:  E(UHF) =  -230.637399060     A.U. after    2 cycles

 The electronic state is 2-A.
 Alpha  occ. eigenvalues --  -20.58289 -11.34672 -11.27256 -11.25087 -11.23720
 Alpha  occ. eigenvalues --   -1.52207  -1.09895  -0.98266  -0.85387  -0.76927
 Alpha  occ. eigenvalues --   -0.67766  -0.65883  -0.65025  -0.59936  -0.57705
 Alpha  occ. eigenvalues --   -0.55215  -0.51189  -0.50538  -0.50251  -0.35660
 Alpha virt. eigenvalues --    0.03327   0.03788   0.03983   0.05071   0.06599
 Alpha virt. eigenvalues --    0.07185   0.07351   0.09360   0.11105   0.12329
 Alpha virt. eigenvalues --    0.13894   0.14509   0.15068   0.15389   0.15832

  Beta  occ. eigenvalues --  -20.57193 -11.32783 -11.26690 -11.25118 -11.23713
  Beta  occ. eigenvalues --   -1.49486  -1.08857  -0.96787  -0.84296  -0.72800
  Beta  occ. eigenvalues --   -0.66190  -0.64634  -0.60139  -0.58416  -0.55259
  Beta  occ. eigenvalues --   -0.52748  -0.50540  -0.50290  -0.48062
  Beta virt. eigenvalues --    0.03086   0.03778   0.04027   0.04633   0.06500
  Beta virt. eigenvalues --    0.07212   0.07305   0.09249   0.10033   0.11903
  Beta virt. eigenvalues --    0.13490   0.14162   0.14539   0.15218   0.15497

 Mulliken charges and spin densities:
               1          2
     1  C    0.894417   0.756955
     2  O   -0.985617   0.158562
     3  C   -0.425631   0.125405
     4  C   -0.351419  -0.031023
     5  H    0.162605   0.020892
     6  H    0.271779  -0.012436
     7  C   -0.327048   0.005096
     8  H    0.156612  -0.004414
     9  H    0.140554  -0.008913
    10  H    0.171808  -0.002310
    11  H    0.123141   0.001087
    12  H    0.168800  -0.008901
 Sum of Mulliken charges =  -0.00000   1.00000

 Dipole moment (field-independent basis, Debye):
    X=              2.6117    Y=              1.4466    Z=              0.2802  Tot=              2.9987
                          Isotropic Fermi Contact Couplings
        Atom                 a.u.       MegaHertz       Gauss      10(-4) cm-1
     1  C(13)              0.31252     351.33047     125.36345     117.19123
     2  O(17)              0.10324     -62.58642     -22.33239     -20.87658
     3  C(13)              0.11632     130.76098      46.65877      43.61717
     4  C(13)             -0.00404      -4.53915      -1.61968      -1.51410
     5  H(1)               0.00516      23.08280       8.23652       7.69959
     6  H(1)              -0.00243     -10.84775      -3.87075      -3.61842
     7  C(13)              0.00052       0.58810       0.20985       0.19617
     8  H(1)               0.00001       0.04878       0.01741       0.01627

 Normal termination of Gaussian 16 at Tue Apr  8 22:42:49 2025.
