 Gaussian 16, Revision C.01,

 ----------------------------------------------------------------------
 #t hf aug-cc-pvdz symm=none int=(grid=ultrafine) guess=(read,tcheck) s
 table=(opt,rrhf)
 ----------------------------------------------------------------------
 -----
 title
 -----
 Symbolic Z-matrix:
 Charge =  0 Multiplicity = 1

 SCF Done:  E(RHF) =  -969.786341912     A.U. after   18 cycles
 Normal termination of Gaussian 16 at Tue Apr  8 23:20:51 2025.
 Gaussian 16:  ES64L-G16RevC.01  3-Jul-2019

 ----------------------------------------------------------------------
 #t hf aug-cc-pvdz iop(5/13=1,5/36=2,99/5=2) pseudo=read geom=check gue
 ss=(read,tcheck) scf=(maxcycle=1)
 ----------------------------------------------------------------------
 -----
 title
 -----
 Structure from the checkpoint file:  "BDE49_nonexpt_1143_mol1.chk"
 Charge =  0 Multiplicity = 1

                         Standard orientation:
 ---------------------------------------------------------------------
 Center     Atomic      Atomic             Coordinates (Angstroms)
 Number     Number       Type             X           Y           Z
 ---------------------------------------------------------------------
      1          9           0       -2.003655   -0.833136   -0.219654
      2          8           0       -1.200432    0.258411    0.608745
      3         16           0       -0.010310    0.816894   -0.246484
      4         16           0        1.642474   -0.404992    0.127103
      5          1           0        1.521716   -1.159505   -0.982973
 ---------------------------------------------------------------------

 SCF Done:  E(RHF) =  -970.066049288     A.U. after    2 cycles

 The electronic state is 1-A.
 Alpha  occ. eigenvalues --  -94.07944 -94.01488 -26.48889 -20.73103  -8.35384
 Alpha  occ. eigenvalues --   -8.29525  -6.33200  -6.32873  -6.32635  -6.27328
 Alpha  occ. eigenvalues --   -6.27154  -6.26913  -1.61735  -1.43824  -1.10413
 Alpha  occ. eigenvalues --   -0.92815  -0.70759  -0.69215  -0.66597  -0.60980
 Alpha  occ. eigenvalues --   -0.58668  -0.57293  -0.48208  -0.43339  -0.41874
 Alpha virt. eigenvalues --    0.03492   0.04041   0.05241   0.08816   0.09654
 Alpha virt. eigenvalues --    0.10062   0.11960   0.12468   0.13028   0.17116
 Alpha virt. eigenvalues --    0.17481   0.19882   0.21508   0.23817   0.24638

 Mulliken charges:
               1
     1  F   -0.321103
     2  O   -0.493385
     3  S    0.742845
     4  S   -0.374950
     5  H    0.446593
 Sum of Mulliken charges =  -0.00000

 Dipole moment (field-independent basis, Debye):
    X=              2.2241    Y=              0.2916    Z=             -0.8847  Tot=              2.4113

 Test job not archived.
 1\1\GINC-SE195\SP\RHF\Aug-CC-pVDZ\F1H1O1S2\OHZDE\08-Apr-2025\0\\#t hf
 aug-cc-pvdz iop(5/13=1,5/36=2,99/5=2) pseudo=read geom=check guess=(re
 ad,tcheck) scf=(maxcycle=1)\\title\\0,1\F,0,-2.003655,-0.833136,-0.219
 654\O,0,-1.200432,0.258411,0.608745\S,0,-0.01031,0.816894,-0.246484\S,
 0,1.642474,-0.404992,0.127103\H,0,1.521716,-1.159505,-0.982973\\Versio
 n=ES64L-G16RevC.01\State=1-A\HF=-970.0660493\RMSD=4.077e-03\Dipole=0.8
 750178,0.1147224,-0.3480836\Quadrupole=-1.6712986,1.0343232,0.6369754,
 -2.7535393,-0.8474721,0.9269307\PG=C01 [X(F1H1O1S2)]\\@

 Normal termination of Gaussian 16 at Tue Apr  8 23:20:53 2025.
