 Gaussian 16, Revision C.01,

 ----------------------------------------------------------------------
 #t hf aug-cc-pvdz symm=none int=(grid=ultrafine) guess=(read,tcheck) s
 table=(opt,rrhf)
 ----------------------------------------------------------------------
 -----
 title
 -----
 Symbolic Z-matrix:
 Charge =  0 Multiplicity = 1

 SCF Done:  E(RHF) =  -407.381799838     A.U. after   12 cycles
 Normal termination of Gaussian 16 at Wed Apr  9 00:41:45 2025.
 Gaussian 16:  ES64L-G16RevC.01  3-Jul-2019

 ----------------------------------------------------------------------
 #t hf aug-cc-pvdz iop(5/13=1,5/36=2,99/5=2) pseudo=read geom=check gue
 ss=(read,tcheck) scf=(maxcycle=1)
 ----------------------------------------------------------------------
 -----
 title
 -----
 Structure from the checkpoint file:  "BDE49_nonexpt_675_mol1.chk"
 Charge =  0 Multiplicity = 1

                         Standard orientation:
 ---------------------------------------------------------------------
 Center     Atomic      Atomic             Coordinates (Angstroms)
 Number     Number       Type             X           Y           Z
 ---------------------------------------------------------------------
      1          8           0        0.230767    0.707911   -0.000027
      2          5           0        1.459148    0.118437   -0.000008
      3          8           0        2.575617    0.919903   -0.000038
      4          6           0       -1.060431    0.041306   -0.000001
      5          6           0       -2.078970    1.183441   -0.000034
      6          1           0       -1.945293    1.809516   -0.885387
      7          1           0       -1.945286    1.809573    0.885278
      8          6           0       -1.202903   -0.808958    1.267792
      9          1           0       -2.200488   -1.254258    1.315520
     10          1           0       -1.063641   -0.186586    2.155760
     11          1           0       -0.463315   -1.610027    1.282276
     12          6           0       -1.202913   -0.809041   -1.267737
     13          1           0       -1.063658   -0.186726   -2.155746
     14          1           0       -2.200499   -1.254344   -1.315427
     15          1           0       -0.463325   -1.610110   -1.282175
     16          1           0       -3.099502    0.792074   -0.000017
     17          1           0        2.336665    1.851234   -0.000072
     18          8           0        1.633180   -1.243020    0.000046
     19          1           0        2.567400   -1.471368    0.000054
 ---------------------------------------------------------------------

 SCF Done:  E(RHF) =  -407.804842060     A.U. after    2 cycles

 The electronic state is 1-A.
 Alpha  occ. eigenvalues --  -20.55128 -20.54844 -20.53570 -11.29935 -11.22219
 Alpha  occ. eigenvalues --  -11.22052 -11.22023  -7.65896  -1.49003  -1.43979
 Alpha  occ. eigenvalues --   -1.43314  -1.07528  -0.94054  -0.94053  -0.80492
 Alpha  occ. eigenvalues --   -0.75272  -0.72996  -0.67278  -0.63283  -0.62025
 Alpha  occ. eigenvalues --   -0.58850  -0.58302  -0.57138  -0.55530  -0.54504
 Alpha  occ. eigenvalues --   -0.53152  -0.52268  -0.50526  -0.50130  -0.48792
 Alpha  occ. eigenvalues --   -0.45830  -0.44063
 Alpha virt. eigenvalues --    0.03651   0.03954   0.04156   0.04178   0.05888
 Alpha virt. eigenvalues --    0.06150   0.06388   0.06787   0.06853   0.08990
 Alpha virt. eigenvalues --    0.09236   0.09741   0.10127   0.10676   0.12556

 Mulliken charges:
               1
     1  O   -1.749915
     2  B    2.128568
     3  O   -1.445297
     4  C   -0.461185
     5  C    0.113993
     6  H    0.215451
     7  H    0.215452
     8  C   -0.020371
     9  H    0.210368
    10  H    0.192745
    11  H    0.148513
    12  C   -0.020373
    13  H    0.192748
    14  H    0.210372
    15  H    0.148508
    16  H    0.243955
    17  H    0.512131
    18  O   -1.277072
    19  H    0.441409
 Sum of Mulliken charges =  -0.00000

 Dipole moment (field-independent basis, Debye):
    X=             -0.5749    Y=              0.1319    Z=             -0.0000  Tot=              0.5898

 Test job not archived.
 1\1\GINC-SE069\SP\RHF\Aug-CC-pVDZ\C4H11B1O3\OHZDE\09-Apr-2025\0\\#t hf
  aug-cc-pvdz iop(5/13=1,5/36=2,99/5=2) pseudo=read geom=check guess=(r
 ead,tcheck) scf=(maxcycle=1)\\title\\0,1\O,0,0.230767,0.707911,-0.0000
 27\B,0,1.459148,0.118437,-0.000008\O,0,2.575617,0.919903,-0.000038\C,0
 ,-1.060431,0.041306,-0.000001\C,0,-2.07897,1.183441,-0.000034\H,0,-1.9
 45293,1.809516,-0.885387\H,0,-1.945286,1.809573,0.885278\C,0,-1.202903
 ,-0.808958,1.267792\H,0,-2.200488,-1.254258,1.31552\H,0,-1.063641,-0.1
 86586,2.15576\H,0,-0.463315,-1.610027,1.282276\C,0,-1.202913,-0.809041

 Normal termination of Gaussian 16 at Wed Apr  9 00:41:54 2025.
