 Gaussian 16, Revision C.01,

 ----------------------------------------------------------------------
 #t hf aug-cc-pvdz symm=none int=(grid=ultrafine) guess=(read,tcheck) s
 table=(opt,rrhf)
 ----------------------------------------------------------------------
 -----
 title
 -----
 Symbolic Z-matrix:
 Charge =  0 Multiplicity = 1

 SCF Done:  E(RHF) =  -486.232108622     A.U. after   16 cycles
 Normal termination of Gaussian 16 at Tue Apr  8 22:37:39 2025.
 Gaussian 16:  ES64L-G16RevC.01  3-Jul-2019

 ----------------------------------------------------------------------
 #t hf aug-cc-pvdz iop(5/13=1,5/36=2,99/5=2) pseudo=read geom=check gue
 ss=(read,tcheck) scf=(maxcycle=1)
 ----------------------------------------------------------------------
 -----
 title
 -----
 Structure from the checkpoint file:  "BDE49_expt_1212_mol1.chk"
 Charge =  0 Multiplicity = 1

                         Standard orientation:
 ---------------------------------------------------------------------
 Center     Atomic      Atomic             Coordinates (Angstroms)
 Number     Number       Type             X           Y           Z
 ---------------------------------------------------------------------
      1          6           0        0.079224    0.500678   -0.475439
      2          7           0       -1.261770   -0.084539   -0.053247
      3          8           0       -1.604106    0.092073    1.100206
      4          8           0       -1.882255   -0.673980   -0.918823
      5          6           0        0.295351    1.888967    0.077598
      6          7           0        1.172428   -0.470607   -0.001706
      7          1           0        0.100387    0.442198   -1.561159
      8          8           0        2.310445   -0.071298   -0.163128
      9          8           0        0.830817   -1.543884    0.446260
     10          1           0        0.215691    1.879802    1.163980
     11          1           0       -0.460130    2.563915   -0.328204
     12          1           0        1.282789    2.238944   -0.219026
 ---------------------------------------------------------------------

 SCF Done:  E(RHF) =  -486.699932911     A.U. after    2 cycles

 The electronic state is 1-A.
 Alpha  occ. eigenvalues --  -20.63016 -20.62479 -20.62428 -20.62227 -15.82695
 Alpha  occ. eigenvalues --  -15.82070 -11.41057 -11.29362  -1.71365  -1.70050
 Alpha  occ. eigenvalues --   -1.55126  -1.54394  -1.21647  -1.02967  -1.02304
 Alpha  occ. eigenvalues --   -0.88338  -0.84680  -0.82050  -0.78656  -0.77340
 Alpha  occ. eigenvalues --   -0.76535  -0.73665  -0.65135  -0.62631  -0.60266
 Alpha  occ. eigenvalues --   -0.53566  -0.52345  -0.51986  -0.50903  -0.48702
 Alpha  occ. eigenvalues --   -0.47143
 Alpha virt. eigenvalues --    0.02347   0.02884   0.03662   0.04506   0.04931
 Alpha virt. eigenvalues --    0.05290   0.10223   0.10794   0.11193   0.13107
 Alpha virt. eigenvalues --    0.13298   0.14122   0.14233   0.16434   0.16795

 Mulliken charges:
               1
     1  C   -0.955675
     2  N    2.973928
     3  O   -1.429697
     4  O   -1.363633
     5  C   -0.135045
     6  N    2.823956
     7  H    0.112420
     8  O   -1.441879
     9  O   -1.337083
    10  H    0.255390
    11  H    0.242897
    12  H    0.254422
 Sum of Mulliken charges =  -0.00000

 Dipole moment (field-independent basis, Debye):
    X=              0.6219    Y=              3.8285    Z=             -1.5155  Tot=              4.1643

 Test job not archived.
 1\1\GINC-SE073\SP\RHF\Aug-CC-pVDZ\C2H4N2O4\OHZDE\08-Apr-2025\0\\#t hf
 aug-cc-pvdz iop(5/13=1,5/36=2,99/5=2) pseudo=read geom=check guess=(re
 ad,tcheck) scf=(maxcycle=1)\\title\\0,1\C,0,0.079224,0.500678,-0.47543
 9\N,0,-1.26177,-0.084539,-0.053247\O,0,-1.604106,0.092073,1.100206\O,0
 ,-1.882255,-0.67398,-0.918823\C,0,0.295351,1.888967,0.077598\N,0,1.172
 428,-0.470607,-0.001706\H,0,0.100387,0.442198,-1.561159\O,0,2.310445,-
 0.071297,-0.163128\O,0,0.830817,-1.543884,0.44626\H,0,0.215691,1.87980
 2,1.16398\H,0,-0.460131,2.563915,-0.328204\H,0,1.282788,2.238944,-0.21

 Normal termination of Gaussian 16 at Tue Apr  8 22:37:44 2025.
