 Gaussian 16, Revision C.01,

 ----------------------------------------------------------------------
 #t hf aug-cc-pvdz symm=none int=(grid=ultrafine) guess=(read,tcheck) s
 table=(opt,rrhf)
 ----------------------------------------------------------------------
 -----
 title
 -----
 Symbolic Z-matrix:
 Charge =  0 Multiplicity = 1

 SCF Done:  E(RHF) =  -655.281230912     A.U. after   12 cycles
 Normal termination of Gaussian 16 at Tue Apr  8 22:31:49 2025.
 Gaussian 16:  ES64L-G16RevC.01  3-Jul-2019

 ----------------------------------------------------------------------
 #t hf aug-cc-pvdz iop(5/13=1,5/36=2,99/5=2) pseudo=read geom=check gue
 ss=(read,tcheck) scf=(maxcycle=1)
 ----------------------------------------------------------------------
 -----
 title
 -----
 Structure from the checkpoint file:  "BDE49_expt_1037_mol1.chk"
 Charge =  0 Multiplicity = 1

                         Standard orientation:
 ---------------------------------------------------------------------
 Center     Atomic      Atomic             Coordinates (Angstroms)
 Number     Number       Type             X           Y           Z
 ---------------------------------------------------------------------
      1          6           0       -1.594094    0.839571    0.374350
      2          6           0       -0.213153    1.028750   -0.233828
      3         17           0       -2.369335   -0.735697   -0.126099
      4          1           0       -2.286778    1.614469    0.051136
      5          1           0       -1.561994    0.816290    1.463418
      6          6           0        0.850915    0.047520    0.266936
      7          1           0        0.095196    2.055468    0.006652
      8          1           0       -0.291914    0.976023   -1.324697
      9          6           0        2.232534    0.295231   -0.349278
     10          1           0        0.532282   -0.976356    0.045876
     11          1           0        0.922664    0.119523    1.360046
     12          6           0        3.298013   -0.683298    0.152527
     13          1           0        2.549115    1.322821   -0.132271
     14          1           0        2.157115    0.224096   -1.440928
     15          1           0        3.421836   -0.611423    1.237555
     16          1           0        4.270007   -0.483649   -0.306320
     17          1           0        3.025880   -1.717067   -0.081031
 ---------------------------------------------------------------------

 SCF Done:  E(RHF) =  -655.578737479     A.U. after    2 cycles

 The electronic state is 1-A.
 Alpha  occ. eigenvalues -- -105.54794 -11.30403 -11.24582 -11.23185 -11.23131
 Alpha  occ. eigenvalues --  -11.22515 -10.59594  -7.76527  -7.76174  -7.76163
 Alpha  occ. eigenvalues --   -1.12013  -1.06449  -0.99516  -0.91366  -0.82760
 Alpha  occ. eigenvalues --   -0.79772  -0.66398  -0.64266  -0.61198  -0.59076
 Alpha  occ. eigenvalues --   -0.57990  -0.54493  -0.52493  -0.49826  -0.48536
 Alpha  occ. eigenvalues --   -0.48082  -0.47512  -0.43745  -0.43530
 Alpha virt. eigenvalues --    0.03294   0.03657   0.03670   0.04594   0.05783
 Alpha virt. eigenvalues --    0.06053   0.06511   0.07507   0.08912   0.09318
 Alpha virt. eigenvalues --    0.10000   0.10993   0.11252   0.13834   0.14199

 Mulliken charges:
               1
     1  C   -0.412734
     2  C   -0.207597
     3  Cl  -0.096022
     4  H    0.200825
     5  H    0.235422
     6  C   -0.303029
     7  H    0.169656
     8  H    0.114909
     9  C   -0.242330
    10  H    0.146760
    11  H    0.114074
    12  C   -0.399551
    13  H    0.109298
    14  H    0.120177
    15  H    0.164961
    16  H    0.123187
    17  H    0.161993
 Sum of Mulliken charges =  -0.00000

 Dipole moment (field-independent basis, Debye):
    X=              1.3829    Y=              1.9757    Z=              0.5005  Tot=              2.4629

 Test job not archived.
 1\1\GINC-SE095\SP\RHF\Aug-CC-pVDZ\C5H11Cl1\OHZDE\08-Apr-2025\0\\#t hf
 aug-cc-pvdz iop(5/13=1,5/36=2,99/5=2) pseudo=read geom=check guess=(re
 ad,tcheck) scf=(maxcycle=1)\\title\\0,1\C,0,-1.594094,0.839571,0.37435
 \C,0,-0.213153,1.02875,-0.233828\Cl,0,-2.369335,-0.735697,-0.126099\H,
 0,-2.286778,1.614469,0.051136\H,0,-1.561994,0.81629,1.463418\C,0,0.850
 915,0.04752,0.266936\H,0,0.095196,2.055468,0.006652\H,0,-0.291914,0.97
 6023,-1.324697\C,0,2.232534,0.295231,-0.349278\H,0,0.532282,-0.976356,
 0.045876\H,0,0.922664,0.119523,1.360046\C,0,3.298013,-0.683298,0.15252

 Normal termination of Gaussian 16 at Tue Apr  8 22:31:55 2025.
