 Gaussian 16, Revision C.01,

 ----------------------------------------------------------------------
 #t hf aug-cc-pvdz symm=none int=(grid=ultrafine) guess=(read,tcheck) s
 table=opt
 ----------------------------------------------------------------------
 -----
 title
 -----
 Symbolic Z-matrix:
 Charge =  0 Multiplicity = 2

 SCF Done:  E(UHF) =  -846.477256519     A.U. after   20 cycles
 Normal termination of Gaussian 16 at Wed Apr  9 00:25:51 2025.
 Gaussian 16:  ES64L-G16RevC.01  3-Jul-2019

 ----------------------------------------------------------------------
 #t hf aug-cc-pvdz iop(5/13=1,5/36=2,99/5=2) pseudo=read geom=check gue
 ss=(read,tcheck) scf=(maxcycle=1)
 ----------------------------------------------------------------------
 -----
 title
 -----
 Structure from the checkpoint file:  "BDE49_nonexpt_2727_mol2.chk"
 Charge =  0 Multiplicity = 2

                         Standard orientation:
 ---------------------------------------------------------------------
 Center     Atomic      Atomic             Coordinates (Angstroms)
 Number     Number       Type             X           Y           Z
 ---------------------------------------------------------------------
      1         16           0        1.950488   -0.470478    0.000093
      2          6           0        0.530157    0.563115   -0.000167
      3          8           0        0.639165    1.759234   -0.000036
      4          6           0       -0.856105   -0.129709   -0.000037
      5          9           0       -0.721118   -1.468289   -0.000066
      6          9           0       -1.548739    0.226007   -1.086719
      7          9           0       -1.548525    0.225985    1.086787
 ---------------------------------------------------------------------

 SCF Done:  E(UHF) =  -846.939795379     A.U. after    2 cycles

 The electronic state is 2-A.
 Alpha  occ. eigenvalues --  -94.03547 -26.54270 -26.53777 -26.53774 -20.60290
 Alpha  occ. eigenvalues --  -11.56137 -11.42851  -8.31713  -6.30889  -6.29069
 Alpha  occ. eigenvalues --   -6.28777  -1.74939  -1.64965  -1.64660  -1.54216
 Alpha  occ. eigenvalues --   -1.12954  -1.02510  -0.89928  -0.84397  -0.84326
 Alpha  occ. eigenvalues --   -0.76311  -0.72030  -0.71873  -0.67459  -0.67096
 Alpha  occ. eigenvalues --   -0.66114  -0.65523  -0.65094  -0.60233  -0.51271
 Alpha  occ. eigenvalues --   -0.46861  -0.44561
 Alpha virt. eigenvalues --    0.05662   0.06682   0.07864   0.08820   0.09275
 Alpha virt. eigenvalues --    0.10097   0.10994   0.13009   0.13391   0.13486
 Alpha virt. eigenvalues --    0.15017   0.19222   0.19970   0.23420   0.23806

  Beta  occ. eigenvalues --  -94.02597 -26.54224 -26.53772 -26.53769 -20.60230
  Beta  occ. eigenvalues --  -11.56123 -11.42944  -8.30619  -6.28555  -6.28155
  Beta  occ. eigenvalues --   -6.26702  -1.74898  -1.64886  -1.64649  -1.53976
  Beta  occ. eigenvalues --   -1.08304  -0.99557  -0.89022  -0.84317  -0.84259
  Beta  occ. eigenvalues --   -0.74992  -0.71835  -0.71638  -0.67080  -0.67075
  Beta  occ. eigenvalues --   -0.65077  -0.65071  -0.64408  -0.60239  -0.46304
  Beta  occ. eigenvalues --   -0.42314
  Beta virt. eigenvalues --   -0.03886   0.05892   0.06491   0.07952   0.09114
  Beta virt. eigenvalues --    0.09325   0.10384   0.12292   0.13137   0.13465
  Beta virt. eigenvalues --    0.13562   0.15290   0.19972   0.21167   0.23756

 Mulliken charges and spin densities:
               1          2
     1  S    0.423657   1.107659
     2  C    0.228894  -0.092159
     3  O   -1.074536  -0.006718
     4  C    2.428940   0.000334
     5  F   -0.686339  -0.012915
     6  F   -0.660313   0.001900
     7  F   -0.660304   0.001900
 Sum of Mulliken charges =  -0.00000   1.00000

 Dipole moment (field-independent basis, Debye):
    X=              0.9549    Y=             -1.5786    Z=             -0.0001  Tot=              1.8449
                          Isotropic Fermi Contact Couplings
        Atom                 a.u.       MegaHertz       Gauss      10(-4) cm-1
     1  S(33)              0.22029      75.66464      26.99902      25.23901
     2  C(13)             -0.01986     -22.32982      -7.96784      -7.44843
     3  O(17)              0.01197      -7.25781      -2.58977      -2.42094
     4  C(13)              0.00265       2.98314       1.06446       0.99507
     5  F(19)              0.01217      51.20032      18.26955      17.07859
     6  F(19)              0.00065       2.73772       0.97689       0.91321
     7  F(19)              0.00065       2.73509       0.97595       0.91233
 --------------------------------------------------------

 Normal termination of Gaussian 16 at Wed Apr  9 00:25:55 2025.
