 Gaussian 16, Revision C.01,

 ----------------------------------------------------------------------
 #t hf aug-cc-pvdz symm=none int=(grid=ultrafine) guess=(read,tcheck) s
 table=(opt,rrhf)
 ----------------------------------------------------------------------
 -----
 title
 -----
 Symbolic Z-matrix:
 Charge =  0 Multiplicity = 1

 SCF Done:  E(RHF) =  -611.378022907     A.U. after   15 cycles
 Normal termination of Gaussian 16 at Tue Apr  8 23:28:52 2025.
 Gaussian 16:  ES64L-G16RevC.01  3-Jul-2019

 ----------------------------------------------------------------------
 #t hf aug-cc-pvdz iop(5/13=1,5/36=2,99/5=2) pseudo=read geom=check gue
 ss=(read,tcheck) scf=(maxcycle=1)
 ----------------------------------------------------------------------
 -----
 title
 -----
 Structure from the checkpoint file:  "BDE49_nonexpt_1319_mol1.chk"
 Charge =  0 Multiplicity = 1

                         Standard orientation:
 ---------------------------------------------------------------------
 Center     Atomic      Atomic             Coordinates (Angstroms)
 Number     Number       Type             X           Y           Z
 ---------------------------------------------------------------------
      1          6           0       -0.549722   -0.368337   -0.061001
      2         15           0        1.174595    0.150300   -0.609664
      3          6           0        2.150475   -1.133484    0.294867
      4          1           0        2.011548   -1.076801    1.377026
      5          1           0        3.209660   -1.019828    0.055363
      6          1           0        1.816322   -2.113861   -0.046258
      7          8           0       -0.777331   -1.530990    0.194364
      8          6           0       -1.648845    0.688827   -0.070432
      9          6           0        1.461671    1.658778    0.441852
     10          1           0        0.847200    2.486628    0.083172
     11          1           0        2.507096    1.956895    0.332073
     12          1           0        1.256596    1.488569    1.501889
     13          6           0       -3.053218    0.109249    0.088366
     14          1           0       -1.556395    1.267163   -0.997659
     15          1           0       -1.427835    1.397723    0.737822
     16          1           0       -3.291235   -0.568937   -0.733579
     17          1           0       -3.799138    0.907357    0.103838
     18          1           0       -3.136267   -0.461684    1.014454
 ---------------------------------------------------------------------

 SCF Done:  E(RHF) =  -611.710752240     A.U. after    2 cycles

 The electronic state is 1-A.
 Alpha  occ. eigenvalues --  -84.27437 -20.54018 -11.33714 -11.25083 -11.24867
 Alpha  occ. eigenvalues --  -11.23603 -11.22969  -6.74575  -4.27197  -4.27047
 Alpha  occ. eigenvalues --   -4.26315  -1.47228  -1.06242  -1.02146  -0.94780
 Alpha  occ. eigenvalues --   -0.90546  -0.80193  -0.71440  -0.64610  -0.63796
 Alpha  occ. eigenvalues --   -0.61671  -0.59808  -0.57127  -0.56760  -0.56330
 Alpha  occ. eigenvalues --   -0.53521  -0.53022  -0.51298  -0.49315  -0.46191
 Alpha  occ. eigenvalues --   -0.38953  -0.31886
 Alpha virt. eigenvalues --    0.03278   0.03547   0.04105   0.04439   0.05761
 Alpha virt. eigenvalues --    0.05788   0.06509   0.07043   0.07366   0.08484
 Alpha virt. eigenvalues --    0.09339   0.09637   0.11082   0.12552   0.13408

 Mulliken charges:
               1
     1  C    0.794726
     2  P    1.389169
     3  C   -0.760244
     4  H    0.098734
     5  H    0.104299
     6  H    0.150612
     7  O   -1.320720
     8  C   -0.725808
     9  C   -0.703045
    10  H    0.109535
    11  H    0.063038
    12  H    0.149278
    13  C   -0.374392
    14  H    0.275404
    15  H    0.240946
    16  H    0.176118
    17  H    0.142264
    18  H    0.190085
 Sum of Mulliken charges =  -0.00000

 Dipole moment (field-independent basis, Debye):
    X=              0.7280    Y=              2.6411    Z=              0.5651  Tot=              2.7972

 Test job not archived.
 1\1\GINC-SE284\SP\RHF\Aug-CC-pVDZ\C5H11O1P1\OHZDE\08-Apr-2025\0\\#t hf
  aug-cc-pvdz iop(5/13=1,5/36=2,99/5=2) pseudo=read geom=check guess=(r
 ead,tcheck) scf=(maxcycle=1)\\title\\0,1\C,0,-0.549722,-0.368337,-0.06
 1001\P,0,1.174595,0.1503,-0.609664\C,0,2.150475,-1.133484,0.294867\H,0
 ,2.011548,-1.076801,1.377026\H,0,3.20966,-1.019828,0.055363\H,0,1.8163
 22,-2.113861,-0.046258\O,0,-0.777331,-1.53099,0.194364\C,0,-1.648845,0
 .688827,-0.070432\C,0,1.461671,1.658778,0.441852\H,0,0.8472,2.486628,0
 .083172\H,0,2.507096,1.956895,0.332073\H,0,1.256596,1.488569,1.501889\

 Normal termination of Gaussian 16 at Tue Apr  8 23:28:59 2025.
