 Gaussian 16, Revision C.01,

 ----------------------------------------------------------------------
 #t hf aug-cc-pvdz symm=none int=(grid=ultrafine) guess=(read,tcheck) s
 table=(opt,rrhf)
 ----------------------------------------------------------------------
 -----
 title
 -----
 Symbolic Z-matrix:
 Charge =  0 Multiplicity = 1

 SCF Done:  E(RHF) =  -463.376832750     A.U. after   12 cycles
 Normal termination of Gaussian 16 at Tue Apr  8 23:51:35 2025.
 Gaussian 16:  ES64L-G16RevC.01  3-Jul-2019

 ----------------------------------------------------------------------
 #t hf aug-cc-pvdz iop(5/13=1,5/36=2,99/5=2) pseudo=read geom=check gue
 ss=(read,tcheck) scf=(maxcycle=1)
 ----------------------------------------------------------------------
 -----
 title
 -----
 Structure from the checkpoint file:  "BDE49_nonexpt_1899_mol1.chk"
 Charge =  0 Multiplicity = 1

                         Standard orientation:
 ---------------------------------------------------------------------
 Center     Atomic      Atomic             Coordinates (Angstroms)
 Number     Number       Type             X           Y           Z
 ---------------------------------------------------------------------
      1         14           0       -1.944672   -0.015716   -0.127055
      2          6           0       -0.242591   -0.575082    0.495731
      3          1           0       -2.096396    1.458636   -0.116564
      4          1           0       -2.989391   -0.588881    0.758243
      5          1           0       -2.160505   -0.503122   -1.508418
      6          7           0        0.870722   -0.008726   -0.273946
      7          6           0        1.146659    1.374116    0.094164
      8          1           0        1.478836    1.476613    1.145297
      9          1           0        0.255608    1.989944   -0.038608
     10          1           0        1.931358    1.777118   -0.550570
     11          6           0        2.076168   -0.822904   -0.170537
     12          1           0        1.872153   -1.836548   -0.523089
     13          1           0        2.464853   -0.887946    0.863564
     14          1           0        2.861466   -0.398787   -0.801684
     15          1           0       -0.230969   -1.663317    0.367738
     16          1           0       -0.138073   -0.399375    1.584329
 ---------------------------------------------------------------------

 SCF Done:  E(RHF) =  -463.603384932     A.U. after    2 cycles

 The electronic state is 1-A.
 Alpha  occ. eigenvalues --  -69.52085 -15.49204 -11.25295 -11.25277 -11.24787
 Alpha  occ. eigenvalues --   -6.19200  -3.94571  -3.94559  -3.94546  -1.22189
 Alpha  occ. eigenvalues --   -0.96074  -0.95849  -0.82809  -0.72500  -0.65909
 Alpha  occ. eigenvalues --   -0.65655  -0.62951  -0.56348  -0.54986  -0.52874
 Alpha  occ. eigenvalues --   -0.52684  -0.47877  -0.47328  -0.46179  -0.38386
 Alpha virt. eigenvalues --    0.03776   0.04162   0.04462   0.04612   0.05535
 Alpha virt. eigenvalues --    0.06119   0.06296   0.06662   0.07439   0.09325
 Alpha virt. eigenvalues --    0.09928   0.10252   0.10776   0.12222   0.13299

 Mulliken charges:
               1
     1  Si   0.899606
     2  C   -0.732268
     3  H   -0.210684
     4  H   -0.173056
     5  H   -0.128179
     6  N    0.244534
     7  C   -0.403829
     8  H    0.232996
     9  H    0.022248
    10  H    0.112575
    11  C   -0.454715
    12  H    0.049990
    13  H    0.276272
    14  H    0.089367
    15  H    0.046798
    16  H    0.128345
 Sum of Mulliken charges =  -0.00000

 Dipole moment (field-independent basis, Debye):
    X=              0.8872    Y=             -0.1783    Z=              0.9008  Tot=              1.2768

 Test job not archived.
 1\1\GINC-SE361\SP\RHF\Aug-CC-pVDZ\C3H11N1Si1\OHZDE\08-Apr-2025\0\\#t h
 f aug-cc-pvdz iop(5/13=1,5/36=2,99/5=2) pseudo=read geom=check guess=(
 read,tcheck) scf=(maxcycle=1)\\title\\0,1\Si,0,-1.944672,-0.015716,-0.
 127055\C,0,-0.242591,-0.575082,0.495731\H,0,-2.096396,1.458636,-0.1165
 64\H,0,-2.989391,-0.588881,0.758243\H,0,-2.160505,-0.503122,-1.508418\
 N,0,0.870722,-0.008726,-0.273946\C,0,1.146659,1.374116,0.094164\H,0,1.
 478836,1.476613,1.145297\H,0,0.255608,1.989944,-0.038608\H,0,1.931358,
 1.777118,-0.55057\C,0,2.076168,-0.822904,-0.170537\H,0,1.872153,-1.836

 Normal termination of Gaussian 16 at Tue Apr  8 23:51:39 2025.
