 Gaussian 16, Revision C.01,

 ----------------------------------------------------------------------
 #t hf aug-cc-pvdz symm=none int=(grid=ultrafine) guess=(read,tcheck) s
 table=(opt,rrhf)
 ----------------------------------------------------------------------
 -----
 title
 -----
 Symbolic Z-matrix:
 Charge =  0 Multiplicity = 1

 SCF Done:  E(RHF) =  -1119.57859789     A.U. after   15 cycles
 Normal termination of Gaussian 16 at Wed Apr  9 00:21:40 2025.
 Gaussian 16:  ES64L-G16RevC.01  3-Jul-2019

 ----------------------------------------------------------------------
 #t hf aug-cc-pvdz iop(5/13=1,5/36=2,99/5=2) pseudo=read geom=check gue
 ss=(read,tcheck) scf=(maxcycle=1)
 ----------------------------------------------------------------------
 -----
 title
 -----
 Structure from the checkpoint file:  "BDE49_nonexpt_2643_mol1.chk"
 Charge =  0 Multiplicity = 1

                         Standard orientation:
 ---------------------------------------------------------------------
 Center     Atomic      Atomic             Coordinates (Angstroms)
 Number     Number       Type             X           Y           Z
 ---------------------------------------------------------------------
      1          9           0        2.070842   -0.727656   -0.038171
      2         16           0        1.257359    0.711810    0.090125
      3         16           0       -0.720783    0.024042   -0.127570
      4          8           0       -1.440521    1.258711   -0.048922
      5          8           0       -0.825988   -0.915723   -1.205007
      6          8           0       -1.020016   -0.780020    1.239665
      7          1           0       -0.930597   -1.728477    1.056779
 ---------------------------------------------------------------------

 SCF Done:  E(RHF) =  -1120.00592698     A.U. after    2 cycles

 The electronic state is 1-A.
 Alpha  occ. eigenvalues --  -94.28772 -94.09984 -26.52110 -20.65767 -20.59715
 Alpha  occ. eigenvalues --  -20.59534  -8.53415  -8.37291  -6.51510  -6.51349
 Alpha  occ. eigenvalues --   -6.51243  -6.34993  -6.34750  -6.34381  -1.65600
 Alpha  occ. eigenvalues --   -1.62121  -1.52568  -1.50389  -1.08855  -0.92434
 Alpha  occ. eigenvalues --   -0.80075  -0.76274  -0.73432  -0.70151  -0.69041
 Alpha  occ. eigenvalues --   -0.67071  -0.64792  -0.59416  -0.55790  -0.54512
 Alpha  occ. eigenvalues --   -0.51911  -0.48774  -0.44299
 Alpha virt. eigenvalues --    0.02692   0.04074   0.06048   0.08466   0.09900
 Alpha virt. eigenvalues --    0.10674   0.11710   0.13203   0.14059   0.14950
 Alpha virt. eigenvalues --    0.17380   0.17945   0.21003   0.21563   0.23505

 Mulliken charges:
               1
     1  F   -0.622373
     2  S    0.883876
     3  S    3.134861
     4  O   -1.278834
     5  O   -1.306511
     6  O   -1.175120
     7  H    0.364101
 Sum of Mulliken charges =  -0.00000

 Dipole moment (field-independent basis, Debye):
    X=              1.2393    Y=             -1.2251    Z=              1.5635  Tot=              2.3413

 Test job not archived.
 1\1\GINC-SE362\SP\RHF\Aug-CC-pVDZ\F1H1O3S2\OHZDE\09-Apr-2025\0\\#t hf
 aug-cc-pvdz iop(5/13=1,5/36=2,99/5=2) pseudo=read geom=check guess=(re
 ad,tcheck) scf=(maxcycle=1)\\title\\0,1\F,0,2.070842,-0.727656,-0.0381
 71\S,0,1.257359,0.71181,0.090125\S,0,-0.720783,0.024042,-0.12757\O,0,-
 1.440521,1.258711,-0.048922\O,0,-0.825988,-0.915723,-1.205007\O,0,-1.0
 20016,-0.78002,1.239665\H,0,-0.930597,-1.728477,1.056779\\Version=ES64
 L-G16RevC.01\State=1-A\HF=-1120.005927\RMSD=6.060e-03\Dipole=0.4875946
 ,-0.4820028,0.6151432\Quadrupole=-0.7568362,2.4240967,-1.6672604,4.016

 Normal termination of Gaussian 16 at Wed Apr  9 00:21:42 2025.
