 Gaussian 16, Revision C.01,

 ----------------------------------------------------------------------
 #t hf aug-cc-pvdz symm=none int=(grid=ultrafine) guess=(read,tcheck) s
 table=(opt,rrhf)
 ----------------------------------------------------------------------
 -----
 title
 -----
 Symbolic Z-matrix:
 Charge =  0 Multiplicity = 1

 SCF Done:  E(RHF) =  -496.867291820     A.U. after   13 cycles
 Normal termination of Gaussian 16 at Tue Apr  8 23:52:22 2025.
 Gaussian 16:  ES64L-G16RevC.01  3-Jul-2019

 ----------------------------------------------------------------------
 #t hf aug-cc-pvdz iop(5/13=1,5/36=2,99/5=2) pseudo=read geom=check gue
 ss=(read,tcheck) scf=(maxcycle=1)
 ----------------------------------------------------------------------
 -----
 title
 -----
 Structure from the checkpoint file:  "BDE49_nonexpt_1912_mol1.chk"
 Charge =  0 Multiplicity = 1

                         Standard orientation:
 ---------------------------------------------------------------------
 Center     Atomic      Atomic             Coordinates (Angstroms)
 Number     Number       Type             X           Y           Z
 ---------------------------------------------------------------------
      1         14           0       -2.044266   -0.096747    0.000004
      2          6           0       -0.290574    0.637306    0.000025
      3          1           0       -2.979470    1.050234    0.000033
      4          1           0       -2.237001   -0.915886    1.213912
      5          1           0       -2.237000   -0.915825   -1.213946
      6          8           0        0.663096   -0.487229    0.000014
      7          6           0        1.909397   -0.161365    0.000033
      8          7           0        3.037929    0.097310   -0.000085
      9          1           0       -0.105009    1.248453    0.887146
     10          1           0       -0.105010    1.248499   -0.887064
 ---------------------------------------------------------------------

 SCF Done:  E(RHF) =  -497.103713171     A.U. after    2 cycles

 The electronic state is 1-A.
 Alpha  occ. eigenvalues --  -69.55877 -20.64664 -15.50827 -11.34142 -11.32976
 Alpha  occ. eigenvalues --   -6.23014  -3.98400  -3.98380  -3.98364  -1.56947
 Alpha  occ. eigenvalues --   -1.22927  -1.00742  -0.80609  -0.77004  -0.71024
 Alpha  occ. eigenvalues --   -0.66147  -0.60682  -0.58826  -0.51849  -0.51155
 Alpha  occ. eigenvalues --   -0.50786  -0.48761  -0.46347
 Alpha virt. eigenvalues --    0.02785   0.03477   0.03844   0.04948   0.07039
 Alpha virt. eigenvalues --    0.07646   0.07969   0.08584   0.08685   0.12351
 Alpha virt. eigenvalues --    0.12853   0.12900   0.13845   0.14088   0.15338

 Mulliken charges:
               1
     1  Si   1.045545
     2  C    0.077412
     3  H   -0.174182
     4  H   -0.194274
     5  H   -0.194277
     6  O   -1.022495
     7  C   -0.529173
     8  N    0.762680
     9  H    0.114387
    10  H    0.114378
 Sum of Mulliken charges =  -0.00000

 Dipole moment (field-independent basis, Debye):
    X=             -5.4187    Y=              0.8226    Z=              0.0003  Tot=              5.4807

 Test job not archived.
 1\1\GINC-SE097\SP\RHF\Aug-CC-pVDZ\C2H5N1O1Si1\OHZDE\08-Apr-2025\0\\#t
 hf aug-cc-pvdz iop(5/13=1,5/36=2,99/5=2) pseudo=read geom=check guess=
 (read,tcheck) scf=(maxcycle=1)\\title\\0,1\Si,0,-2.044266,-0.096747,0.
 000004\C,0,-0.290574,0.637306,0.000025\H,0,-2.97947,1.050234,0.000033\
 H,0,-2.237001,-0.915886,1.213912\H,0,-2.237,-0.915825,-1.213946\O,0,0.
 663096,-0.487229,0.000014\C,0,1.909397,-0.161365,0.000033\N,0,3.037929
 ,0.09731,-0.000085\H,0,-0.105009,1.248453,0.887146\H,0,-0.10501,1.2484
 99,-0.887064\\Version=ES64L-G16RevC.01\State=1-A\HF=-497.1037132\RMSD=

 Normal termination of Gaussian 16 at Tue Apr  8 23:52:25 2025.
