 Gaussian 16, Revision C.01,

 ----------------------------------------------------------------------
 #t hf aug-cc-pvdz symm=none int=(grid=ultrafine) guess=(read,tcheck) s
 table=(opt,rrhf)
 ----------------------------------------------------------------------
 -----
 title
 -----
 Symbolic Z-matrix:
 Charge =  0 Multiplicity = 1

 SCF Done:  E(RHF) =  -828.820799184     A.U. after   16 cycles
 Normal termination of Gaussian 16 at Tue Apr  8 23:16:05 2025.
 Gaussian 16:  ES64L-G16RevC.01  3-Jul-2019

 ----------------------------------------------------------------------
 #t hf aug-cc-pvdz iop(5/13=1,5/36=2,99/5=2) pseudo=read geom=check gue
 ss=(read,tcheck) scf=(maxcycle=1)
 ----------------------------------------------------------------------
 -----
 title
 -----
 Structure from the checkpoint file:  "BDE49_nonexpt_1007_mol1.chk"
 Charge =  0 Multiplicity = 1

                         Standard orientation:
 ---------------------------------------------------------------------
 Center     Atomic      Atomic             Coordinates (Angstroms)
 Number     Number       Type             X           Y           Z
 ---------------------------------------------------------------------
      1         16           0        0.705821   -1.122752   -0.135002
      2          7           0        1.655758    0.449282   -0.049341
      3          8           0        1.087549    1.481847   -0.296499
      4          8           0        2.811166    0.265703    0.265704
      5          8           0       -0.748881   -0.540153   -0.678806
      6          6           0       -1.660152   -0.000327    0.266025
      7          6           0       -2.856110    0.513120   -0.478397
      8          1           0       -3.607974    0.843066    0.234982
      9          1           0       -3.258345   -0.263556   -1.130875
     10          1           0       -2.546999    1.348737   -1.110541
     11          8           0       -1.446402    0.019359    1.432862
 ---------------------------------------------------------------------

 SCF Done:  E(RHF) =  -829.291012479     A.U. after    2 cycles

 The electronic state is 1-A.
 Alpha  occ. eigenvalues --  -94.09573 -20.65322 -20.62267 -20.61760 -20.58048
 Alpha  occ. eigenvalues --  -15.82184 -11.43212 -11.28077  -8.36646  -6.34400
 Alpha  occ. eigenvalues --   -6.34193  -6.33831  -1.70428  -1.58057  -1.54874
 Alpha  occ. eigenvalues --   -1.50285  -1.12584  -1.04888  -0.92588  -0.84320
 Alpha  occ. eigenvalues --   -0.78004  -0.77428  -0.76897  -0.72453  -0.69917
 Alpha  occ. eigenvalues --   -0.67520  -0.61604  -0.59850  -0.58051  -0.53333
 Alpha  occ. eigenvalues --   -0.51672  -0.48480  -0.48045  -0.47653  -0.43512
 Alpha virt. eigenvalues --    0.02895   0.04076   0.04926   0.05254   0.05479
 Alpha virt. eigenvalues --    0.06649   0.08319   0.10087   0.10586   0.12145
 Alpha virt. eigenvalues --    0.12864   0.14008   0.14599   0.14805   0.15013

 Mulliken charges:
               1
     1  S    1.064951
     2  N    1.793803
     3  O   -1.124076
     4  O   -1.183248
     5  O   -1.312645
     6  C    1.752987
     7  C   -0.537797
     8  H    0.207246
     9  H    0.223405
    10  H    0.254472
    11  O   -1.139096
 Sum of Mulliken charges =  -0.00000

 Dipole moment (field-independent basis, Debye):
    X=             -3.6635    Y=             -1.4438    Z=             -1.9423  Tot=              4.3907

 Test job not archived.
 1\1\GINC-SE038\SP\RHF\Aug-CC-pVDZ\C2H3N1O4S1\OHZDE\08-Apr-2025\0\\#t h
 f aug-cc-pvdz iop(5/13=1,5/36=2,99/5=2) pseudo=read geom=check guess=(
 read,tcheck) scf=(maxcycle=1)\\title\\0,1\S,0,0.705821,-1.122752,-0.13
 5002\N,0,1.655758,0.449282,-0.049341\O,0,1.087549,1.481847,-0.296499\O
 ,0,2.811166,0.265703,0.265704\O,0,-0.748881,-0.540153,-0.678806\C,0,-1
 .660152,-0.000327,0.266025\C,0,-2.85611,0.51312,-0.478397\H,0,-3.60797
 4,0.843066,0.234982\H,0,-3.258345,-0.263556,-1.130875\H,0,-2.546999,1.
 348737,-1.110541\O,0,-1.446402,0.019359,1.432862\\Version=ES64L-G16Rev

 Normal termination of Gaussian 16 at Tue Apr  8 23:16:10 2025.
