 Gaussian 16, Revision C.01,

 ----------------------------------------------------------------------
 #t hf aug-cc-pvdz symm=none int=(grid=ultrafine) guess=(read,tcheck) s
 table=(opt,rrhf)
 ----------------------------------------------------------------------
 -----
 title
 -----
 Symbolic Z-matrix:
 Charge =  0 Multiplicity = 1

 SCF Done:  E(RHF) =  -627.383466065     A.U. after   15 cycles
 Normal termination of Gaussian 16 at Tue Apr  8 23:38:50 2025.
 Gaussian 16:  ES64L-G16RevC.01  3-Jul-2019

 ----------------------------------------------------------------------
 #t hf aug-cc-pvdz iop(5/13=1,5/36=2,99/5=2) pseudo=read geom=check gue
 ss=(read,tcheck) scf=(maxcycle=1)
 ----------------------------------------------------------------------
 -----
 title
 -----
 Structure from the checkpoint file:  "BDE49_nonexpt_1580_mol1.chk"
 Charge =  0 Multiplicity = 1

                         Standard orientation:
 ---------------------------------------------------------------------
 Center     Atomic      Atomic             Coordinates (Angstroms)
 Number     Number       Type             X           Y           Z
 ---------------------------------------------------------------------
      1          6           0        2.785407    0.451674    0.924199
      2          6           0        2.433814   -0.185544   -0.423515
      3          1           0        2.055810    1.216213    1.201415
      4          1           0        3.767119    0.930568    0.885621
      5          1           0        2.813114   -0.297194    1.722319
      6          6           0        1.075897   -0.896778   -0.423672
      7          1           0        3.205928   -0.909935   -0.701532
      8          1           0        2.422924    0.582564   -1.201239
      9          6           0       -0.122869    0.036347   -0.359493
     10          1           0        1.005929   -1.628111    0.391319
     11          1           0        0.945925   -1.476020   -1.348059
     12          8           0       -0.073392    1.202368   -0.685108
     13          7           0       -2.728339    0.689152    0.299938
     14         15           0       -1.772305   -0.714290    0.181545
     15          1           0       -1.313764   -0.849712    1.521148
     16          1           0       -3.472541    0.714671   -0.383768
     17          1           0       -2.193858    1.554105    0.265785
 ---------------------------------------------------------------------

 SCF Done:  E(RHF) =  -627.729580575     A.U. after    2 cycles

 The electronic state is 1-A.
 Alpha  occ. eigenvalues --  -84.30158 -20.54937 -15.49870 -11.34477 -11.25378
 Alpha  occ. eigenvalues --  -11.23846 -11.22680  -6.76991  -4.29833  -4.29332
 Alpha  occ. eigenvalues --   -4.28747  -1.48197  -1.17246  -1.08340  -0.98009
 Alpha  occ. eigenvalues --   -0.88662  -0.82299  -0.73621  -0.70804  -0.66362
 Alpha  occ. eigenvalues --   -0.64138  -0.63373  -0.59187  -0.57065  -0.56281
 Alpha  occ. eigenvalues --   -0.52578  -0.50521  -0.49492  -0.49186  -0.48082
 Alpha  occ. eigenvalues --   -0.39515  -0.34554
 Alpha virt. eigenvalues --    0.03554   0.03751   0.04058   0.04284   0.05937
 Alpha virt. eigenvalues --    0.06549   0.06860   0.07087   0.07683   0.09015
 Alpha virt. eigenvalues --    0.09331   0.10916   0.11204   0.11853   0.13579

 Mulliken charges:
               1
     1  C   -0.295269
     2  C   -0.257596
     3  H    0.146731
     4  H    0.116930
     5  H    0.158022
     6  C   -0.564344
     7  H    0.134326
     8  H    0.161368
     9  C    0.660531
    10  H    0.203946
    11  H    0.286401
    12  O   -1.296525
    13  N   -0.102351
    14  P    0.173870
    15  H    0.388133
    16  H    0.110104
    17  H   -0.024277
 Sum of Mulliken charges =   0.00000

 Dipole moment (field-independent basis, Debye):
    X=              0.7071    Y=             -1.5604    Z=             -0.2357  Tot=              1.7293

 Test job not archived.
 1\1\GINC-SE082\SP\RHF\Aug-CC-pVDZ\C4H10N1O1P1\OHZDE\08-Apr-2025\0\\#t
 hf aug-cc-pvdz iop(5/13=1,5/36=2,99/5=2) pseudo=read geom=check guess=
 (read,tcheck) scf=(maxcycle=1)\\title\\0,1\C,0,2.785407,0.451674,0.924
 199\C,0,2.433814,-0.185544,-0.423515\H,0,2.05581,1.216213,1.201415\H,0
 ,3.767119,0.930568,0.885621\H,0,2.813114,-0.297194,1.722319\C,0,1.0758
 97,-0.896778,-0.423672\H,0,3.205928,-0.909935,-0.701532\H,0,2.422924,0
 .582564,-1.201239\C,0,-0.122869,0.036347,-0.359493\H,0,1.005929,-1.628
 111,0.391319\H,0,0.945925,-1.47602,-1.348059\O,0,-0.073392,1.202368,-0

 Normal termination of Gaussian 16 at Tue Apr  8 23:38:57 2025.
