 Gaussian 16, Revision C.01,

 ----------------------------------------------------------------------
 #t hf aug-cc-pvdz symm=none int=(grid=ultrafine) guess=(read,tcheck) s
 table=opt
 ----------------------------------------------------------------------
 -----
 title
 -----
 Symbolic Z-matrix:
 Charge =  0 Multiplicity = 2

 SCF Done:  E(UHF) =  -593.661181211     A.U. after   20 cycles
 Normal termination of Gaussian 16 at Wed Apr  9 00:09:30 2025.
 Gaussian 16:  ES64L-G16RevC.01  3-Jul-2019

 ----------------------------------------------------------------------
 #t hf aug-cc-pvdz iop(5/13=1,5/36=2,99/5=2) pseudo=read geom=check gue
 ss=(read,tcheck) scf=(maxcycle=1)
 ----------------------------------------------------------------------
 -----
 title
 -----
 Structure from the checkpoint file:  "BDE49_nonexpt_233_mol2.chk"
 Charge =  0 Multiplicity = 2

                         Standard orientation:
 ---------------------------------------------------------------------
 Center     Atomic      Atomic             Coordinates (Angstroms)
 Number     Number       Type             X           Y           Z
 ---------------------------------------------------------------------
      1         17           0        1.715478    0.001013   -0.000004
      2          5           0        0.015936   -0.002439    0.000013
      3          7           0       -1.238856    0.033851    0.000001
      4          7           0       -2.516534   -0.146873   -0.000002
      5          1           0       -2.955079    0.786124    0.000015
 ---------------------------------------------------------------------

 SCF Done:  E(UHF) =  -593.864784070     A.U. after    2 cycles

 The electronic state is 2-A.
 Alpha  occ. eigenvalues -- -105.61379 -15.57416 -15.53312 -10.66342  -7.83226
 Alpha  occ. eigenvalues --   -7.82965  -7.82908  -7.68614  -1.33445  -1.12013
 Alpha  occ. eigenvalues --   -1.05639  -0.79715  -0.66557  -0.66256  -0.64921
 Alpha  occ. eigenvalues --   -0.54669  -0.54396  -0.41907  -0.40027
 Alpha virt. eigenvalues --    0.03348   0.05271   0.05737   0.05929   0.07545
 Alpha virt. eigenvalues --    0.12975   0.13737   0.13961   0.15426   0.16700
 Alpha virt. eigenvalues --    0.16898   0.18225   0.18610   0.20137   0.20896

  Beta  occ. eigenvalues -- -105.61366 -15.54521 -15.53930 -10.66328  -7.83310
  Beta  occ. eigenvalues --   -7.82885  -7.82837  -7.67979  -1.29798  -1.11683
  Beta  occ. eigenvalues --   -1.01246  -0.77439  -0.65603  -0.63213  -0.57066
  Beta  occ. eigenvalues --   -0.53797  -0.51552  -0.41413
  Beta virt. eigenvalues --    0.03460   0.04808   0.05343   0.05734   0.05955
  Beta virt. eigenvalues --    0.07609   0.12988   0.13888   0.14302   0.15601
  Beta virt. eigenvalues --    0.17216   0.18539   0.18988   0.19998   0.21152

 Mulliken charges and spin densities:
               1          2
     1  Cl  -0.126073   0.001979
     2  B   -0.072454   0.324210
     3  N    0.181311  -0.185281
     4  N   -0.139594   0.929562
     5  H    0.156810  -0.070470
 Sum of Mulliken charges =  -0.00000   1.00000

 Dipole moment (field-independent basis, Debye):
    X=              1.5075    Y=              1.4393    Z=              0.0001  Tot=              2.0843
                          Isotropic Fermi Contact Couplings
        Atom                 a.u.       MegaHertz       Gauss      10(-4) cm-1
     1  Cl(35)             0.00951       4.17175       1.48858       1.39155
     2  B(11)              0.04226      60.61082      21.62745      20.21759
     3  N(14)             -0.18243     -58.94538     -21.03318     -19.66206
     4  N(14)              0.28569      92.30758      32.93764      30.79049
     5  H(1)              -0.02251    -100.62432     -35.90526     -33.56466
 --------------------------------------------------------
       Center         ----  Spin Dipole Couplings  ----
                      3XX-RR        3YY-RR        3ZZ-RR

 Normal termination of Gaussian 16 at Wed Apr  9 00:09:32 2025.
