 Gaussian 16, Revision C.01,

 ----------------------------------------------------------------------
 #t hf aug-cc-pvdz symm=none int=(grid=ultrafine) guess=(read,tcheck) s
 table=opt
 ----------------------------------------------------------------------
 -----
 title
 -----
 Symbolic Z-matrix:
 Charge =  0 Multiplicity = 2

 SCF Done:  E(UHF) =  -459.472781141     A.U. after   10 cycles
 Normal termination of Gaussian 16 at Tue Apr  8 22:47:26 2025.
 Gaussian 16:  ES64L-G16RevC.01  3-Jul-2019

 ----------------------------------------------------------------------
 #t hf aug-cc-pvdz iop(5/13=1,5/36=2,99/5=2) pseudo=read geom=check gue
 ss=(read,tcheck) scf=(maxcycle=1)
 ----------------------------------------------------------------------
 -----
 title
 -----
 Structure from the checkpoint file:  "BDE49_expt_1610_mol3.chk"
 Charge =  0 Multiplicity = 2

                         Standard orientation:
 ---------------------------------------------------------------------
 Center     Atomic      Atomic             Coordinates (Angstroms)
 Number     Number       Type             X           Y           Z
 ---------------------------------------------------------------------
      1         17           0        0.000000    0.000000    0.000000
 ---------------------------------------------------------------------

 SCF Done:  E(UHF) =  -459.540621033     A.U. after    2 cycles

 Unable to determine electronic state:  an orbital has unidentified symmetry.
 Alpha  occ. eigenvalues -- -105.62490 -10.67018  -7.85752  -7.83163  -7.83163
 Alpha  occ. eigenvalues --   -1.08930  -0.58938  -0.51408  -0.51408
 Alpha virt. eigenvalues --    0.12634   0.13729   0.13729   0.13769   0.40205
 Alpha virt. eigenvalues --    0.41185   0.41185   0.44404   0.44404   0.83448
 Alpha virt. eigenvalues --    0.87835   0.87835   1.11570   1.22595   1.23653

  Beta  occ. eigenvalues -- -105.61368 -10.65875  -7.82546  -7.82546  -7.80924
  Beta  occ. eigenvalues --   -0.96756  -0.48945  -0.48945
  Beta virt. eigenvalues --   -0.05718   0.13867   0.13867   0.14469   0.15140
  Beta virt. eigenvalues --    0.44742   0.44742   0.46444   0.46444   0.47185
  Beta virt. eigenvalues --    0.88803   0.88803   0.92406   1.14307   1.28650

 Mulliken charges and spin densities:
               1          2
     1  Cl   0.000000   1.000000
 Sum of Mulliken charges =   0.00000   1.00000

 Dipole moment (field-independent basis, Debye):
    X=              0.0000    Y=              0.0000    Z=             -0.0000  Tot=              0.0000
                          Isotropic Fermi Contact Couplings
        Atom                 a.u.       MegaHertz       Gauss      10(-4) cm-1
     1  Cl(35)             0.14470      63.44499      22.63875      21.16297
 --------------------------------------------------------
       Center         ----  Spin Dipole Couplings  ----
                      3XX-RR        3YY-RR        3ZZ-RR
 --------------------------------------------------------
     1   Atom       -2.988698      0.609979      2.378719
 --------------------------------------------------------
                        XY            XZ            YZ

 Normal termination of Gaussian 16 at Tue Apr  8 22:47:27 2025.
