 Gaussian 16, Revision C.01,

 ----------------------------------------------------------------------
 #t hf aug-cc-pvdz symm=none int=(grid=ultrafine) guess=(read,tcheck) s
 table=(opt,rrhf)
 ----------------------------------------------------------------------
 -----
 title
 -----
 Symbolic Z-matrix:
 Charge =  0 Multiplicity = 1

 SCF Done:  E(RHF) =  -944.357691063     A.U. after   11 cycles

 1\1\GINC-SE090\Stability\RHF\Aug-CC-pVDZ\B1Cl2H1\OHZDE\09-Apr-2025\0\\
 #t hf aug-cc-pvdz symm=none int=(grid=ultrafine) guess=(read,tcheck) s
 table=(opt,rrhf)\\title\\0,1\Cl,0,0.,-1.521064,-0.158964\B,0,0.,0.,0.7
 0404\H,0,0.,0.,1.884586\Cl,0,0.,1.521064,-0.158964\\Version=ES64L-G16R
 evC.01\HF=-944.3576911\RMSD=5.850e-09\Dipole=0.,0.,0.3312367\Quadrupol
 e=0.7356284,-1.1270771,0.3914487,0.,0.,0.\PG=Unknown\\@
 The archive entry for this job was punched.

 Normal termination of Gaussian 16 at Wed Apr  9 00:36:16 2025.
 Gaussian 16:  ES64L-G16RevC.01  3-Jul-2019

 ----------------------------------------------------------------------
 #t hf aug-cc-pvdz iop(5/13=1,5/36=2,99/5=2) pseudo=read geom=check gue
 ss=(read,tcheck) scf=(maxcycle=1)
 ----------------------------------------------------------------------
 -----
 title
 -----
 Structure from the checkpoint file:  "BDE49_nonexpt_521_mol1.chk"
 Charge =  0 Multiplicity = 1

                         Standard orientation:
 ---------------------------------------------------------------------
 Center     Atomic      Atomic             Coordinates (Angstroms)
 Number     Number       Type             X           Y           Z
 ---------------------------------------------------------------------
      1         17           0        0.000000    1.521064   -0.158964
      2          5           0        0.000000    0.000000    0.704040
      3          1           0        0.000000    0.000000    1.884586
      4         17           0       -0.000000   -1.521064   -0.158964
 ---------------------------------------------------------------------

 SCF Done:  E(RHF) =  -944.534373959     A.U. after    2 cycles

 The electronic state is 1-A1.
 Alpha  occ. eigenvalues -- -105.58475-105.58475 -10.63548 -10.63520  -7.80433
 Alpha  occ. eigenvalues --   -7.80411  -7.80139  -7.80137  -7.80088  -7.80076
 Alpha  occ. eigenvalues --   -7.72273  -1.11727  -1.06738  -0.72330  -0.61121
 Alpha  occ. eigenvalues --   -0.59246  -0.53540  -0.48543  -0.47513  -0.47460
 Alpha virt. eigenvalues --    0.04399   0.04905   0.05189   0.05399   0.07621
 Alpha virt. eigenvalues --    0.09277   0.12900   0.13519   0.15249   0.17818
 Alpha virt. eigenvalues --    0.18026   0.18436   0.21598   0.23028   0.24483

 Mulliken charges:
               1
     1  Cl  -0.245259
     2  B    0.259611
     3  H    0.230908
     4  Cl  -0.245259
 Sum of Mulliken charges =  -0.00000

 Dipole moment (field-independent basis, Debye):
    X=              0.0000    Y=             -0.0000    Z=              0.8142  Tot=              0.8142

 Test job not archived.
 1\1\GINC-SE090\SP\RHF\Aug-CC-pVDZ\B1Cl2H1\OHZDE\09-Apr-2025\0\\#t hf a
 ug-cc-pvdz iop(5/13=1,5/36=2,99/5=2) pseudo=read geom=check guess=(rea
 d,tcheck) scf=(maxcycle=1)\\title\\0,1\Cl,0,0.,-1.521064,-0.158964\B,0
 ,0.,0.,0.70404\H,0,0.,0.,1.884586\Cl,0,0.,1.521064,-0.158964\\Version=
 ES64L-G16RevC.01\State=1-A1\HF=-944.534374\RMSD=4.544e-03\Dipole=0.,0.
 ,0.3203388\Quadrupole=0.6391693,-1.0207968,0.3816274,0.,0.,0.\PG=C02V
 [C2(B1H1),SGV(Cl2)]\\@

 Normal termination of Gaussian 16 at Wed Apr  9 00:36:18 2025.
