 Gaussian 16, Revision C.01,

 ----------------------------------------------------------------------
 #t hf aug-cc-pvdz symm=none int=(grid=ultrafine) guess=(read,tcheck) s
 table=(opt,rrhf)
 ----------------------------------------------------------------------
 -----
 title
 -----
 Symbolic Z-matrix:
 Charge =  0 Multiplicity = 1

 SCF Done:  E(RHF) =  -325.014133297     A.U. after   16 cycles
 Normal termination of Gaussian 16 at Tue Apr  8 22:39:11 2025.
 Gaussian 16:  ES64L-G16RevC.01  3-Jul-2019

 ----------------------------------------------------------------------
 #t hf aug-cc-pvdz iop(5/13=1,5/36=2,99/5=2) pseudo=read geom=check gue
 ss=(read,tcheck) scf=(maxcycle=1)
 ----------------------------------------------------------------------
 -----
 title
 -----
 Structure from the checkpoint file:  "BDE49_expt_1235_mol1.chk"
 Charge =  0 Multiplicity = 1

                         Standard orientation:
 ---------------------------------------------------------------------
 Center     Atomic      Atomic             Coordinates (Angstroms)
 Number     Number       Type             X           Y           Z
 ---------------------------------------------------------------------
      1          6           0        0.760055   -0.014745    0.009174
      2          7           0       -1.702752    0.462373   -0.032381
      3          8           0       -2.667851   -0.256011    0.009650
      4          6           0        1.097279    1.457742    0.306302
      5          1           0        0.303256    1.939582    0.879270
      6          1           0        1.235317    2.023834   -0.620213
      7          6           0        1.874156   -0.639309   -0.849237
      8          1           0        1.990492   -0.107736   -1.798562
      9          1           0        1.664565   -1.689441   -1.073060
     10          1           0        2.831287   -0.594015   -0.321434
     11          1           0        2.025860    1.525973    0.880377
     12          6           0        0.618315   -0.801884    1.325452
     13          1           0        1.559394   -0.787914    1.882214
     14          1           0        0.355914   -1.847212    1.135634
     15          1           0       -0.155852   -0.372172    1.966670
     16          6           0       -0.559609   -0.111000   -0.793236
     17          1           0       -0.803486   -1.139354   -1.080162
     18          1           0       -0.485860    0.515103   -1.691996
 ---------------------------------------------------------------------

 SCF Done:  E(RHF) =  -325.353556248     A.U. after    2 cycles

 The electronic state is 1-A.
 Alpha  occ. eigenvalues --  -20.61275 -15.63598 -11.27222 -11.26058 -11.23554
 Alpha  occ. eigenvalues --  -11.23118 -11.22946  -1.58995  -1.14349  -1.05134
 Alpha  occ. eigenvalues --   -0.94654  -0.94458  -0.87827  -0.76712  -0.70337
 Alpha  occ. eigenvalues --   -0.69901  -0.66026  -0.62400  -0.60314  -0.59578
 Alpha  occ. eigenvalues --   -0.56124  -0.55376  -0.53476  -0.52927  -0.49191
 Alpha  occ. eigenvalues --   -0.48093  -0.47867  -0.40865
 Alpha virt. eigenvalues --    0.03456   0.03729   0.03888   0.04440   0.05684
 Alpha virt. eigenvalues --    0.05965   0.06849   0.07205   0.07463   0.07934
 Alpha virt. eigenvalues --    0.09310   0.09739   0.12280   0.13166   0.13992

 Mulliken charges:
               1
     1  C   -2.665949
     2  N    1.360243
     3  O   -1.133440
     4  C    0.183504
     5  H    0.243235
     6  H    0.205108
     7  C    0.241323
     8  H    0.186293
     9  H    0.183240
    10  H    0.206667
    11  H    0.204313
    12  C    0.212771
    13  H    0.198461
    14  H    0.236327
    15  H    0.228269
    16  C   -0.431514
    17  H    0.130154
    18  H    0.210994
 Sum of Mulliken charges =  -0.00000

 Dipole moment (field-independent basis, Debye):
    X=              2.4354    Y=             -0.5588    Z=             -0.8877  Tot=              2.6517

 Test job not archived.
 1\1\GINC-SE454\SP\RHF\Aug-CC-pVDZ\C5H11N1O1\OHZDE\08-Apr-2025\0\\#t hf
  aug-cc-pvdz iop(5/13=1,5/36=2,99/5=2) pseudo=read geom=check guess=(r
 ead,tcheck) scf=(maxcycle=1)\\title\\0,1\C,0,0.760055,-0.014745,0.0091
 74\N,0,-1.702752,0.462373,-0.032381\O,0,-2.667851,-0.256011,0.00965\C,
 0,1.097279,1.457742,0.306302\H,0,0.303256,1.939582,0.87927\H,0,1.23531
 7,2.023834,-0.620213\C,0,1.874156,-0.639309,-0.849237\H,0,1.990492,-0.
 107736,-1.798562\H,0,1.664565,-1.689441,-1.07306\H,0,2.831287,-0.59401
 5,-0.321434\H,0,2.02586,1.525973,0.880377\C,0,0.618315,-0.801884,1.325

 Normal termination of Gaussian 16 at Tue Apr  8 22:39:18 2025.
