 Gaussian 16, Revision C.01,

 ----------------------------------------------------------------------
 #t hf aug-cc-pvdz symm=none int=(grid=ultrafine) guess=(read,tcheck) s
 table=(opt,rrhf)
 ----------------------------------------------------------------------
 -----
 title
 -----
 Symbolic Z-matrix:
 Charge =  0 Multiplicity = 1

 SCF Done:  E(RHF) =  -878.155592846     A.U. after   11 cycles

 1\1\GINC-SE368\Stability\RHF\Aug-CC-pVDZ\F3H3Si2\OHZDE\08-Apr-2025\0\\
 #t hf aug-cc-pvdz symm=none int=(grid=ultrafine) guess=(read,tcheck) s
 table=(opt,rrhf)\\title\\0,1\Si,0,1.905813,0.000008,-0.000002\Si,0,-0.
 432819,0.000006,-0.000011\F,0,-1.028207,-1.232778,-0.812026\F,0,-1.028
 217,-0.086878,1.473608\F,0,-1.028244,1.319634,-0.661566\H,0,2.380015,-
 1.25153,0.628786\H,0,2.380026,1.170306,0.769496\H,0,2.380058,0.081241,
 -1.398247\\Version=ES64L-G16RevC.01\HF=-878.1555928\RMSD=1.271e-09\Dip
 ole=0.9978935,0.0000282,-0.0000471\Quadrupole=1.2352425,-0.6177072,-0.

 Normal termination of Gaussian 16 at Tue Apr  8 23:56:21 2025.
 Gaussian 16:  ES64L-G16RevC.01  3-Jul-2019

 ----------------------------------------------------------------------
 #t hf aug-cc-pvdz iop(5/13=1,5/36=2,99/5=2) pseudo=read geom=check gue
 ss=(read,tcheck) scf=(maxcycle=1)
 ----------------------------------------------------------------------
 -----
 title
 -----
 Structure from the checkpoint file:  "BDE49_nonexpt_2018_mol1.chk"
 Charge =  0 Multiplicity = 1

                         Standard orientation:
 ---------------------------------------------------------------------
 Center     Atomic      Atomic             Coordinates (Angstroms)
 Number     Number       Type             X           Y           Z
 ---------------------------------------------------------------------
      1         14           0        1.905813    0.000008   -0.000001
      2         14           0       -0.432819    0.000006   -0.000011
      3          9           0       -1.028207   -1.229219   -0.817404
      4          9           0       -1.028217   -0.093315    1.473214
      5          9           0       -1.028244    1.322512   -0.655795
      6          1           0        2.380015   -1.254266    0.623313
      7          1           0        2.380026    1.166933    0.774602
      8          1           0        2.380058    0.087348   -1.397878
 ---------------------------------------------------------------------

 SCF Done:  E(RHF) =  -878.491705628     A.U. after    2 cycles

 The electronic state is 1-A.
 Alpha  occ. eigenvalues --  -69.67362 -69.55781 -26.47978 -26.47978 -26.47976
 Alpha  occ. eigenvalues --   -6.33236  -6.23041  -4.08514  -4.08514  -4.08226
 Alpha  occ. eigenvalues --   -3.98409  -3.98378  -3.98378  -1.61785  -1.58373
 Alpha  occ. eigenvalues --   -1.58373  -0.82930  -0.77240  -0.72712  -0.72712
 Alpha  occ. eigenvalues --   -0.69252  -0.66715  -0.66715  -0.63878  -0.63877
 Alpha  occ. eigenvalues --   -0.62189  -0.52121  -0.52120  -0.46863
 Alpha virt. eigenvalues --    0.03276   0.04809   0.05588   0.05588   0.07025
 Alpha virt. eigenvalues --    0.07720   0.07720   0.08253   0.08253   0.13517
 Alpha virt. eigenvalues --    0.13517   0.14014   0.15650   0.16791   0.19119

 Mulliken charges:
               1
     1  Si   0.139791
     2  Si   2.658509
     3  F   -0.811168
     4  F   -0.811181
     5  F   -0.811168
     6  H   -0.121589
     7  H   -0.121596
     8  H   -0.121598
 Sum of Mulliken charges =  -0.00000

 Dipole moment (field-independent basis, Debye):
    X=              2.3843    Y=              0.0001    Z=             -0.0001  Tot=              2.3843

 Test job not archived.
 1\1\GINC-SE368\SP\RHF\Aug-CC-pVDZ\F3H3Si2\OHZDE\08-Apr-2025\0\\#t hf a
 ug-cc-pvdz iop(5/13=1,5/36=2,99/5=2) pseudo=read geom=check guess=(rea
 d,tcheck) scf=(maxcycle=1)\\title\\0,1\Si,0,1.905813,0.000008,-0.00000
 2\Si,0,-0.432819,0.000006,-0.000011\F,0,-1.028207,-1.232778,-0.812026\
 F,0,-1.028217,-0.086878,1.473608\F,0,-1.028244,1.319634,-0.661566\H,0,
 2.380015,-1.25153,0.628786\H,0,2.380026,1.170306,0.769496\H,0,2.380058
 ,0.081241,-1.398247\\Version=ES64L-G16RevC.01\State=1-A\HF=-878.491705
 6\RMSD=2.875e-03\Dipole=0.9380713,0.0000264,-0.000044\Quadrupole=1.236

 Normal termination of Gaussian 16 at Tue Apr  8 23:56:23 2025.
