 Gaussian 16, Revision C.01,

 ----------------------------------------------------------------------
 #t hf aug-cc-pvdz symm=none int=(grid=ultrafine) guess=(read,tcheck) s
 table=(opt,rrhf)
 ----------------------------------------------------------------------
 -----
 title
 -----
 Symbolic Z-matrix:
 Charge =  0 Multiplicity = 1

 SCF Done:  E(RHF) =  -1156.98193525     A.U. after   12 cycles
 Normal termination of Gaussian 16 at Tue Apr  8 23:37:29 2025.
 Gaussian 16:  ES64L-G16RevC.01  3-Jul-2019

 ----------------------------------------------------------------------
 #t hf aug-cc-pvdz iop(5/13=1,5/36=2,99/5=2) pseudo=read geom=check gue
 ss=(read,tcheck) scf=(maxcycle=1)
 ----------------------------------------------------------------------
 -----
 title
 -----
 Structure from the checkpoint file:  "BDE49_nonexpt_1445_mol1.chk"
 Charge =  0 Multiplicity = 1

                         Standard orientation:
 ---------------------------------------------------------------------
 Center     Atomic      Atomic             Coordinates (Angstroms)
 Number     Number       Type             X           Y           Z
 ---------------------------------------------------------------------
      1         15           0        0.002115   -1.323482    0.092200
      2         14           0       -1.839298    0.027395   -0.005006
      3          6           0       -1.718394    1.529637   -1.141111
      4          1           0       -0.963611    2.242422   -0.798954
      5          1           0       -2.680118    2.054039   -1.167463
      6          1           0       -1.468755    1.239571   -2.165273
      7          6           0       -2.203086    0.606545    1.752134
      8          1           0       -1.405740    1.242583    2.146290
      9          1           0       -2.318329   -0.243243    2.430561
     10          1           0       -3.132507    1.185128    1.777627
     11          6           0       -3.246982   -1.072528   -0.609809
     12          1           0       -3.070083   -1.421954   -1.631066
     13          1           0       -4.192798   -0.520258   -0.605109
     14          1           0       -3.367037   -1.951875    0.028620
     15         14           0        1.844616    0.029431   -0.005110
     16          6           0        2.032742    0.960225   -1.634830
     17          1           0        2.065224    0.266448   -2.479856
     18          1           0        2.968645    1.530019   -1.636950
     19          1           0        1.212673    1.660204   -1.808170
     20          6           0        3.332804   -1.110089    0.202971
     21          1           0        3.378898   -1.853788   -0.598019
     22          1           0        3.289535   -1.648701    1.153415
     23          1           0        4.265489   -0.536246    0.179639
     24          6           0        1.791824    1.248453    1.433357
     25          1           0        0.986617    1.979559    1.321141
     26          1           0        2.735047    1.801676    1.492257
     27          1           0        1.649158    0.734119    2.387950
     28          1           0        0.008052   -1.676483   -1.284295
 ---------------------------------------------------------------------

 SCF Done:  E(RHF) =  -1157.36775218     A.U. after    2 cycles

 The electronic state is 1-A.
 Alpha  occ. eigenvalues --  -84.23110 -69.52327 -69.52311 -11.21430 -11.21408
 Alpha  occ. eigenvalues --  -11.21253 -11.21071 -11.21005 -11.20859  -6.70536
 Alpha  occ. eigenvalues --   -6.19213  -6.19180  -4.23117  -4.22995  -4.22437
 Alpha  occ. eigenvalues --   -3.94548  -3.94526  -3.94501  -3.94486  -3.94483
 Alpha  occ. eigenvalues --   -3.94475  -0.98495  -0.97660  -0.93290  -0.92982
 Alpha  occ. eigenvalues --   -0.92678  -0.92530  -0.82731  -0.64971  -0.62373
 Alpha  occ. eigenvalues --   -0.58314  -0.57825  -0.57144  -0.56955  -0.56649
 Alpha  occ. eigenvalues --   -0.56504  -0.55493  -0.54822  -0.54568  -0.54429
 Alpha  occ. eigenvalues --   -0.53892  -0.53627  -0.46342  -0.44790  -0.44365
 Alpha  occ. eigenvalues --   -0.44237  -0.42471  -0.36938  -0.30888
 Alpha virt. eigenvalues --    0.03098   0.03205   0.03607   0.04032   0.05098
 Alpha virt. eigenvalues --    0.05211   0.05402   0.06050   0.06223   0.07441
 Alpha virt. eigenvalues --    0.07655   0.07939   0.08043   0.08268   0.09440

 Mulliken charges:
               1
     1  P   -1.566707
     2  Si   2.553225
     3  C   -0.463706
     4  H   -0.033597
     5  H   -0.077652
     6  H   -0.027220
     7  C   -0.455834
     8  H   -0.079018
     9  H   -0.065317
    10  H   -0.017911
    11  C   -0.518210
    12  H   -0.082778
    13  H   -0.072202
    14  H   -0.057964
    15  Si   2.523952
    16  C   -0.453281
    17  H   -0.083796
    18  H    0.001476
    19  H   -0.096266
    20  C   -0.533780
    21  H   -0.067128
    22  H   -0.065764
    23  H   -0.050847
    24  C   -0.429458
    25  H   -0.063306
    26  H   -0.049874
    27  H   -0.039941
    28  H    0.372903
 Sum of Mulliken charges =  -0.00000

 Dipole moment (field-independent basis, Debye):
    X=              0.0054    Y=              1.0425    Z=             -0.2968  Tot=              1.0840

 Test job not archived.
 1\1\GINC-SE273\SP\RHF\Aug-CC-pVDZ\C6H19P1Si2\OHZDE\08-Apr-2025\0\\#t h
 f aug-cc-pvdz iop(5/13=1,5/36=2,99/5=2) pseudo=read geom=check guess=(
 read,tcheck) scf=(maxcycle=1)\\title\\0,1\P,0,0.002115,-1.323482,0.092
 2\Si,0,-1.839298,0.027395,-0.005006\C,0,-1.718394,1.529637,-1.141111\H
 ,0,-0.963611,2.242422,-0.798954\H,0,-2.680118,2.054039,-1.167463\H,0,-
 1.468755,1.239571,-2.165273\C,0,-2.203086,0.606545,1.752134\H,0,-1.405
 74,1.242583,2.14629\H,0,-2.318329,-0.243243,2.430561\H,0,-3.132507,1.1
 85128,1.777627\C,0,-3.246982,-1.072528,-0.609809\H,0,-3.070083,-1.4219

 Normal termination of Gaussian 16 at Tue Apr  8 23:37:53 2025.
