 Gaussian 16, Revision C.01,

 ----------------------------------------------------------------------
 #t hf aug-cc-pvdz symm=none int=(grid=ultrafine) guess=(read,tcheck) s
 table=opt
 ----------------------------------------------------------------------
 -----
 title
 -----
 Symbolic Z-matrix:
 Charge =  0 Multiplicity = 2

 SCF Done:  E(UHF) =  -718.814294290     A.U. after   18 cycles
 Normal termination of Gaussian 16 at Wed Apr  9 00:20:11 2025.
 Gaussian 16:  ES64L-G16RevC.01  3-Jul-2019

 ----------------------------------------------------------------------
 #t hf aug-cc-pvdz iop(5/13=1,5/36=2,99/5=2) pseudo=read geom=check gue
 ss=(read,tcheck) scf=(maxcycle=1)
 ----------------------------------------------------------------------
 -----
 title
 -----
 Structure from the checkpoint file:  "BDE49_nonexpt_2595_mol2.chk"
 Charge =  0 Multiplicity = 2

                         Standard orientation:
 ---------------------------------------------------------------------
 Center     Atomic      Atomic             Coordinates (Angstroms)
 Number     Number       Type             X           Y           Z
 ---------------------------------------------------------------------
      1         16           0       -2.483640    0.127322    0.000040
      2          8           0       -0.889314    0.568761   -0.000007
      3          6           0        0.109582   -0.442514   -0.000044
      4          8           0       -0.145179   -1.614584   -0.000014
      5          7           0        1.335024    0.137055   -0.000019
      6          6           0        1.592642    1.573637   -0.000010
      7          1           0        2.172039    1.847914   -0.887871
      8          1           0        2.172020    1.847907    0.887865
      9          1           0        0.659298    2.125016   -0.000018
     10          6           0        2.506362   -0.731106   -0.000000
     11          1           0        3.116940   -0.541716    0.888921
     12          1           0        3.116968   -0.541715   -0.888902
     13          1           0        2.180242   -1.767454   -0.000006
 ---------------------------------------------------------------------

 SCF Done:  E(UHF) =  -719.189462726     A.U. after    2 cycles

 The electronic state is 2-A.
 Alpha  occ. eigenvalues --  -94.02553 -20.62381 -20.52765 -15.54419 -11.42342
 Alpha  occ. eigenvalues --  -11.28325 -11.27750  -8.29963  -6.29029  -6.27417
 Alpha  occ. eigenvalues --   -6.26947  -1.55141  -1.46530  -1.27181  -1.02877
 Alpha  occ. eigenvalues --   -0.99490  -0.94733  -0.77713  -0.75093  -0.70485
 Alpha  occ. eigenvalues --   -0.69706  -0.64172  -0.63223  -0.58984  -0.58598
 Alpha  occ. eigenvalues --   -0.57906  -0.55686  -0.53966  -0.46008  -0.43185
 Alpha  occ. eigenvalues --   -0.41635  -0.39273
 Alpha virt. eigenvalues --    0.03190   0.04522   0.04653   0.05707   0.06680
 Alpha virt. eigenvalues --    0.06901   0.07483   0.08301   0.09897   0.12017
 Alpha virt. eigenvalues --    0.12855   0.14004   0.14265   0.14567   0.14767

  Beta  occ. eigenvalues --  -94.01682 -20.61820 -20.52798 -15.54377 -11.42362
  Beta  occ. eigenvalues --  -11.28329 -11.27755  -8.28964  -6.27038  -6.26432
  Beta  occ. eigenvalues --   -6.25050  -1.54124  -1.46012  -1.27037  -1.00368
  Beta  occ. eigenvalues --   -0.99392  -0.90367  -0.76603  -0.74429  -0.69630
  Beta  occ. eigenvalues --   -0.69169  -0.63049  -0.61081  -0.58585  -0.57882
  Beta  occ. eigenvalues --   -0.57726  -0.55399  -0.50642  -0.45932  -0.41720
  Beta  occ. eigenvalues --   -0.37243
  Beta virt. eigenvalues --    0.00552   0.03192   0.04525   0.04661   0.05742
  Beta virt. eigenvalues --    0.06932   0.06984   0.07525   0.08446   0.10985
  Beta virt. eigenvalues --    0.12287   0.12936   0.14356   0.14644   0.15009

 Mulliken charges and spin densities:
               1          2
     1  S    0.490122   0.986970
     2  O   -1.284139   0.017209
     3  C    0.777943   0.002187
     4  O   -0.975638  -0.004522
     5  N    0.724397   0.002398
     6  C   -0.298972   0.000359
     7  H    0.170982   0.000266
     8  H    0.170981   0.000266
     9  H    0.062801  -0.003400
    10  C   -0.247283  -0.002599
    11  H    0.200926   0.000554
    12  H    0.200936   0.000554
    13  H    0.006945  -0.000242
 Sum of Mulliken charges =  -0.00000   1.00000

 Dipole moment (field-independent basis, Debye):
    X=              2.5742    Y=              2.2374    Z=             -0.0000  Tot=              3.4107
                          Isotropic Fermi Contact Couplings
        Atom                 a.u.       MegaHertz       Gauss      10(-4) cm-1
     1  S(33)              0.19446      66.79044      23.83249      22.27889
     2  O(17)              0.05448     -33.02613     -11.78454     -11.01633
     3  C(13)             -0.00390      -4.38715      -1.56544      -1.46340
     4  O(17)             -0.00346       2.09868       0.74886       0.70004
     5  N(14)              0.00413       1.33323       0.47573       0.44472
     6  C(13)             -0.00065      -0.73258      -0.26140      -0.24436
     7  H(1)               0.00008       0.36441       0.13003       0.12155
     8  H(1)               0.00008       0.36442       0.13004       0.12156

 Normal termination of Gaussian 16 at Wed Apr  9 00:20:15 2025.
