 Gaussian 16, Revision C.01,

 ----------------------------------------------------------------------
 #t hf aug-cc-pvdz symm=none int=(grid=ultrafine) guess=(read,tcheck) s
 table=opt
 ----------------------------------------------------------------------
 -----
 title
 -----
 Symbolic Z-matrix:
 Charge =  0 Multiplicity = 2

 SCF Done:  E(UHF) =  -497.501064827     A.U. after   18 cycles
 Normal termination of Gaussian 16 at Tue Apr  8 23:52:32 2025.
 Gaussian 16:  ES64L-G16RevC.01  3-Jul-2019

 ----------------------------------------------------------------------
 #t hf aug-cc-pvdz iop(5/13=1,5/36=2,99/5=2) pseudo=read geom=check gue
 ss=(read,tcheck) scf=(maxcycle=1)
 ----------------------------------------------------------------------
 -----
 title
 -----
 Structure from the checkpoint file:  "BDE49_nonexpt_1909_mol2.chk"
 Charge =  0 Multiplicity = 2

                         Standard orientation:
 ---------------------------------------------------------------------
 Center     Atomic      Atomic             Coordinates (Angstroms)
 Number     Number       Type             X           Y           Z
 ---------------------------------------------------------------------
      1         14           0        1.835199    0.069406   -0.098305
      2          7           0        0.261092   -0.687179    0.039572
      3          1           0        1.887880    1.265928    0.782350
      4          1           0        2.800131   -0.967670    0.346998
      5          6           0       -1.028759   -0.160014    0.005925
      6          8           0       -2.000780   -0.886348    0.010246
      7          1           0        0.221069   -1.701747    0.027674
      8          6           0       -1.129975    1.351921   -0.018354
      9          1           0       -0.728165    1.779854    0.904124
     10          1           0       -2.178106    1.626177   -0.115218
     11          1           0       -0.564601    1.775374   -0.854058
 ---------------------------------------------------------------------

 SCF Done:  E(UHF) =  -497.741503684     A.U. after    2 cycles

 The electronic state is 2-A.
 Alpha  occ. eigenvalues --  -69.57459 -20.52100 -15.52171 -11.36840 -11.25395
 Alpha  occ. eigenvalues --   -6.24312  -4.00150  -3.99403  -3.99337  -1.47002
 Alpha  occ. eigenvalues --   -1.21468  -1.01740  -0.84005  -0.77193  -0.68717
 Alpha  occ. eigenvalues --   -0.64996  -0.63508  -0.58322  -0.57460  -0.55218
 Alpha  occ. eigenvalues --   -0.51718  -0.46992  -0.43154  -0.34579
 Alpha virt. eigenvalues --    0.03186   0.04053   0.04686   0.05373   0.05856
 Alpha virt. eigenvalues --    0.06516   0.07782   0.09134   0.09668   0.10363
 Alpha virt. eigenvalues --    0.12160   0.13077   0.13539   0.14656   0.15796

  Beta  occ. eigenvalues --  -69.56925 -20.51903 -15.51831 -11.36921 -11.25390
  Beta  occ. eigenvalues --   -6.23477  -3.99072  -3.99003  -3.98151  -1.46604
  Beta  occ. eigenvalues --   -1.20541  -1.01692  -0.82941  -0.75628  -0.68590
  Beta  occ. eigenvalues --   -0.63331  -0.62716  -0.57685  -0.57173  -0.54137
  Beta  occ. eigenvalues --   -0.50275  -0.44054  -0.42910
  Beta virt. eigenvalues --    0.01497   0.03446   0.04295   0.04736   0.05776
  Beta virt. eigenvalues --    0.06207   0.07325   0.08242   0.09273   0.10268
  Beta virt. eigenvalues --    0.10614   0.12515   0.13301   0.14543   0.14951

 Mulliken charges and spin densities:
               1          2
     1  Si   0.433131   0.867795
     2  N    0.433979   0.035147
     3  H   -0.084831   0.056015
     4  H   -0.117086   0.039795
     5  C    0.332733  -0.036389
     6  O   -1.227802   0.045503
     7  H    0.003509  -0.005059
     8  C   -0.361071  -0.000948
     9  H    0.238886  -0.000849
    10  H    0.108173  -0.001766
    11  H    0.240380   0.000758
 Sum of Mulliken charges =  -0.00000   1.00000

 Dipole moment (field-independent basis, Debye):
    X=              2.6759    Y=              1.6633    Z=             -0.0483  Tot=              3.1511
                          Isotropic Fermi Contact Couplings
        Atom                 a.u.       MegaHertz       Gauss      10(-4) cm-1
     1  Si(29)             0.66844    -594.06075    -211.97565    -198.15734
     2  N(14)              0.05069      16.37739       5.84386       5.46291
     3  H(1)               0.01610      71.97070      25.68093      24.00684
     4  H(1)               0.01092      48.82987      17.42371      16.28789
     5  C(13)             -0.00941     -10.57929      -3.77495      -3.52887
     6  O(17)              0.01570      -9.51702      -3.39591      -3.17454
     7  H(1)              -0.00147      -6.55103      -2.33757      -2.18519
     8  C(13)              0.00059       0.66442       0.23708       0.22163

 1\1\GINC-SE108\SP\UHF\Aug-CC-pVDZ\C2H6N1O1Si1(2)\OHZDE\08-Apr-2025\0\\
 #t hf aug-cc-pvdz iop(5/13=1,5/36=2,99/5=2) pseudo=read geom=check gue
 ss=(read,tcheck) scf=(maxcycle=1)\\title\\0,2\Si,0,1.835199,0.069406,-
 0.098305\N,0,0.261092,-0.687179,0.039572\H,0,1.88788,1.265928,0.78235\
 H,0,2.800131,-0.967669,0.346998\C,0,-1.028759,-0.160014,0.005925\O,0,-
 2.00078,-0.886348,0.010246\H,0,0.221069,-1.701747,0.027674\C,0,-1.1299
 75,1.351921,-0.018354\H,0,-0.728165,1.779854,0.904124\H,0,-2.178106,1.
 626177,-0.115218\H,0,-0.564601,1.775374,-0.854058\\Version=ES64L-G16Re

 Normal termination of Gaussian 16 at Tue Apr  8 23:52:36 2025.
