 Gaussian 16, Revision C.01,

 ----------------------------------------------------------------------
 #t hf aug-cc-pvdz symm=none int=(grid=ultrafine) guess=(read,tcheck) s
 table=(opt,rrhf)
 ----------------------------------------------------------------------
 -----
 title
 -----
 Symbolic Z-matrix:
 Charge =  0 Multiplicity = 1

 SCF Done:  E(RHF) =  -672.462691339     A.U. after   10 cycles
 Normal termination of Gaussian 16 at Tue Apr  8 22:44:34 2025.
 Gaussian 16:  ES64L-G16RevC.01  3-Jul-2019

 ----------------------------------------------------------------------
 #t hf aug-cc-pvdz iop(5/13=1,5/36=2,99/5=2) pseudo=read geom=check gue
 ss=(read,tcheck) scf=(maxcycle=1)
 ----------------------------------------------------------------------
 -----
 title
 -----
 Structure from the checkpoint file:  "BDE49_expt_1510_mol1.chk"
 Charge =  0 Multiplicity = 1

                         Standard orientation:
 ---------------------------------------------------------------------
 Center     Atomic      Atomic             Coordinates (Angstroms)
 Number     Number       Type             X           Y           Z
 ---------------------------------------------------------------------
      1          6           0        0.774912    0.000003   -0.000003
      2          9           0        1.229651    1.225150    0.276873
      3          6           0       -0.774912   -0.000003    0.000003
      4          9           0        1.229634   -0.852363    0.922566
      5          9           0       -1.229616    0.372788    1.199461
      6          9           0       -1.229634    0.852363   -0.922566
      7          9           0       -1.229651   -1.225150   -0.276873
      8          9           0        1.229616   -0.372788   -1.199461
 ---------------------------------------------------------------------

 SCF Done:  E(RHF) =  -673.072264262     A.U. after    2 cycles

 The electronic state is 1-AG.
 Alpha  occ. eigenvalues --  -26.54514 -26.54514 -26.54514 -26.54514 -26.54508
 Alpha  occ. eigenvalues --  -26.54508 -11.56886 -11.56884  -1.76862  -1.74343
 Alpha  occ. eigenvalues --   -1.66096  -1.66096  -1.65025  -1.65025  -1.08690
 Alpha  occ. eigenvalues --   -0.95638  -0.89856  -0.86802  -0.86802  -0.83333
 Alpha  occ. eigenvalues --   -0.83333  -0.74256  -0.72182  -0.72182  -0.71940
 Alpha  occ. eigenvalues --   -0.71940  -0.68313  -0.68313  -0.66344  -0.66344
 Alpha  occ. eigenvalues --   -0.66149  -0.65196  -0.58530
 Alpha virt. eigenvalues --    0.07477   0.08284   0.08912   0.08912   0.12107
 Alpha virt. eigenvalues --    0.12107   0.12195   0.20751   0.20832   0.20832
 Alpha virt. eigenvalues --    0.24074   0.24074   0.28447   0.29733   0.29733

 Mulliken charges:
               1
     1  C    2.028686
     2  F   -0.676228
     3  C    2.028686
     4  F   -0.676229
     5  F   -0.676228
     6  F   -0.676229
     7  F   -0.676228
     8  F   -0.676228
 Sum of Mulliken charges =  -0.00000

 Dipole moment (field-independent basis, Debye):
    X=              0.0000    Y=              0.0000    Z=             -0.0000  Tot=              0.0000

 Test job not archived.
 1\1\GINC-SE044\SP\RHF\Aug-CC-pVDZ\C2F6\OHZDE\08-Apr-2025\0\\#t hf aug-
 cc-pvdz iop(5/13=1,5/36=2,99/5=2) pseudo=read geom=check guess=(read,t
 check) scf=(maxcycle=1)\\title\\0,1\C,0,0.774912,0.000003,-0.000003\F,
 0,1.229651,1.22515,0.276873\C,0,-0.774912,-0.000003,0.000003\F,0,1.229
 634,-0.852363,0.922566\F,0,-1.229616,0.372788,1.199461\F,0,-1.229634,0
 .852363,-0.922566\F,0,-1.229651,-1.22515,-0.276873\F,0,1.229616,-0.372
 788,-1.199461\\Version=ES64L-G16RevC.01\State=1-AG\HF=-673.0722643\RMS
 D=4.563e-03\Dipole=0.,0.,0.\Quadrupole=0.1386781,-0.0693265,-0.0693516

 Normal termination of Gaussian 16 at Tue Apr  8 22:44:37 2025.
