 Gaussian 16, Revision C.01,

 ----------------------------------------------------------------------
 #t hf aug-cc-pvdz symm=none int=(grid=ultrafine) guess=(read,tcheck) s
 table=(opt,rrhf)
 ----------------------------------------------------------------------
 -----
 title
 -----
 Symbolic Z-matrix:
 Charge =  0 Multiplicity = 1

 SCF Done:  E(RHF) =  -478.187483970     A.U. after   15 cycles
 Normal termination of Gaussian 16 at Tue Apr  8 23:52:33 2025.
 Gaussian 16:  ES64L-G16RevC.01  3-Jul-2019

 ----------------------------------------------------------------------
 #t hf aug-cc-pvdz iop(5/13=1,5/36=2,99/5=2) pseudo=read geom=check gue
 ss=(read,tcheck) scf=(maxcycle=1)
 ----------------------------------------------------------------------
 -----
 title
 -----
 Structure from the checkpoint file:  "BDE49_nonexpt_1910_mol1.chk"
 Charge =  0 Multiplicity = 1

                         Standard orientation:
 ---------------------------------------------------------------------
 Center     Atomic      Atomic             Coordinates (Angstroms)
 Number     Number       Type             X           Y           Z
 ---------------------------------------------------------------------
      1         14           0        1.999551   -0.386552   -0.020693
      2          6           0        0.614902    0.917520   -0.028544
      3          1           0        2.198672   -0.921487    1.344162
      4          1           0        3.251310    0.259933   -0.480008
      5          1           0        1.652308   -1.494342   -0.938616
      6          7           0       -0.629050    0.318070    0.451541
      7          7           0       -1.484500    0.181387   -0.432556
      8          6           0       -2.715100   -0.446945    0.053354
      9          1           0       -3.546141    0.231500   -0.159087
     10          1           0       -2.665248   -0.676349    1.121607
     11          1           0       -2.882198   -1.357154   -0.529721
     12          1           0        0.494508    1.347350   -1.030166
     13          1           0        0.899108    1.702619    0.679772
 ---------------------------------------------------------------------

 SCF Done:  E(RHF) =  -478.419551341     A.U. after    2 cycles

 The electronic state is 1-A.
 Alpha  occ. eigenvalues --  -69.53178 -15.56584 -15.55821 -11.25982 -11.25378
 Alpha  occ. eigenvalues --   -6.20283  -3.95652  -3.95642  -3.95633  -1.36573
 Alpha  occ. eigenvalues --   -1.07818  -0.96025  -0.80490  -0.73747  -0.69189
 Alpha  occ. eigenvalues --   -0.68164  -0.63500  -0.57796  -0.54496  -0.53493
 Alpha  occ. eigenvalues --   -0.48982  -0.48337  -0.44327  -0.42781
 Alpha virt. eigenvalues --    0.03618   0.04422   0.04795   0.05155   0.05595
 Alpha virt. eigenvalues --    0.05978   0.06658   0.07301   0.08197   0.09224
 Alpha virt. eigenvalues --    0.10153   0.10600   0.10803   0.14118   0.14749

 Mulliken charges:
               1
     1  Si   1.101389
     2  C   -0.629305
     3  H   -0.193449
     4  H   -0.205143
     5  H   -0.187582
     6  N    0.007739
     7  N   -0.156563
     8  C   -0.295146
     9  H    0.151288
    10  H    0.093965
    11  H    0.164191
    12  H    0.068852
    13  H    0.079763
 Sum of Mulliken charges =  -0.00000

 Dipole moment (field-independent basis, Debye):
    X=             -0.1606    Y=              0.1736    Z=              0.0299  Tot=              0.2383

 Test job not archived.
 1\1\GINC-SE102\SP\RHF\Aug-CC-pVDZ\C2H8N2Si1\OHZDE\08-Apr-2025\0\\#t hf
  aug-cc-pvdz iop(5/13=1,5/36=2,99/5=2) pseudo=read geom=check guess=(r
 ead,tcheck) scf=(maxcycle=1)\\title\\0,1\Si,0,1.999551,-0.386552,-0.02
 0693\C,0,0.614902,0.91752,-0.028544\H,0,2.198672,-0.921487,1.344162\H,
 0,3.25131,0.259933,-0.480008\H,0,1.652308,-1.494342,-0.938616\N,0,-0.6
 2905,0.31807,0.451541\N,0,-1.4845,0.181387,-0.432556\C,0,-2.7151,-0.44
 6945,0.053354\H,0,-3.546141,0.2315,-0.159087\H,0,-2.665248,-0.676349,1
 .121607\H,0,-2.882198,-1.357154,-0.529721\H,0,0.494508,1.34735,-1.0301

 Normal termination of Gaussian 16 at Tue Apr  8 23:52:37 2025.
