 Gaussian 16, Revision C.01,

 ----------------------------------------------------------------------
 #t hf aug-cc-pvdz symm=none int=(grid=ultrafine) guess=(read,tcheck) s
 table=(opt,rrhf)
 ----------------------------------------------------------------------
 -----
 title
 -----
 Symbolic Z-matrix:
 Charge =  0 Multiplicity = 1

 SCF Done:  E(RHF) =  -866.165367489     A.U. after   12 cycles
 Normal termination of Gaussian 16 at Tue Apr  8 23:45:18 2025.
 Gaussian 16:  ES64L-G16RevC.01  3-Jul-2019

 ----------------------------------------------------------------------
 #t hf aug-cc-pvdz iop(5/13=1,5/36=2,99/5=2) pseudo=read geom=check gue
 ss=(read,tcheck) scf=(maxcycle=1)
 ----------------------------------------------------------------------
 -----
 title
 -----
 Structure from the checkpoint file:  "BDE49_nonexpt_1752_mol1.chk"
 Charge =  0 Multiplicity = 1

                         Standard orientation:
 ---------------------------------------------------------------------
 Center     Atomic      Atomic             Coordinates (Angstroms)
 Number     Number       Type             X           Y           Z
 ---------------------------------------------------------------------
      1         14           0       -0.388268   -0.695189    0.534183
      2          6           0        1.257979   -0.015737   -0.018051
      3          6           0        2.114747   -0.849772   -0.618628
      4         17           0       -1.955311    0.348739   -0.381554
      5          6           0        1.592828    1.433063    0.247856
      6          1           0        1.870201   -1.888095   -0.818886
      7          1           0        3.102268   -0.521619   -0.937235
      8          1           0        0.880167    2.097175   -0.251303
      9          1           0        2.596965    1.681404   -0.105609
     10          1           0        1.540928    1.662818    1.317634
     11          1           0       -0.594717   -0.519046    1.986612
     12          1           0       -0.513085   -2.113874    0.149589
 ---------------------------------------------------------------------

 SCF Done:  E(RHF) =  -866.403443209     A.U. after    2 cycles

 The electronic state is 1-A.
 Alpha  occ. eigenvalues -- -105.55142 -69.57610 -11.25659 -11.24866 -11.24404
 Alpha  occ. eigenvalues --  -10.60130  -7.77016  -7.76717  -7.76711  -6.24294
 Alpha  occ. eigenvalues --   -3.99724  -3.99580  -3.99561  -1.08595  -1.04297
 Alpha  occ. eigenvalues --   -0.94981  -0.79302  -0.71249  -0.63412  -0.61248
 Alpha  occ. eigenvalues --   -0.58687  -0.53969  -0.53045  -0.52703  -0.49379
 Alpha  occ. eigenvalues --   -0.45097  -0.44274  -0.38674
 Alpha virt. eigenvalues --    0.03414   0.04016   0.04292   0.05060   0.06114
 Alpha virt. eigenvalues --    0.06343   0.07172   0.07993   0.09065   0.09556
 Alpha virt. eigenvalues --    0.10423   0.11978   0.13999   0.14461   0.14864

 Mulliken charges:
               1
     1  Si   1.219391
     2  C    0.018426
     3  C    0.125167
     4  Cl  -0.605828
     5  C   -0.684774
     6  H   -0.153844
     7  H   -0.076441
     8  H    0.215075
     9  H    0.072787
    10  H    0.194195
    11  H   -0.138557
    12  H   -0.185596
 Sum of Mulliken charges =  -0.00000

 Dipole moment (field-independent basis, Debye):
    X=              2.2072    Y=             -0.4442    Z=              0.5038  Tot=              2.3071

 Test job not archived.
 1\1\GINC-SE398\SP\RHF\Aug-CC-pVDZ\C3H7Cl1Si1\OHZDE\08-Apr-2025\0\\#t h
 f aug-cc-pvdz iop(5/13=1,5/36=2,99/5=2) pseudo=read geom=check guess=(
 read,tcheck) scf=(maxcycle=1)\\title\\0,1\Si,0,-0.388268,-0.695189,0.5
 34183\C,0,1.257979,-0.015737,-0.018051\C,0,2.114747,-0.849772,-0.61862
 8\Cl,0,-1.955311,0.348739,-0.381554\C,0,1.592828,1.433063,0.247856\H,0
 ,1.870201,-1.888095,-0.818886\H,0,3.102268,-0.521619,-0.937235\H,0,0.8
 80167,2.097175,-0.251303\H,0,2.596965,1.681404,-0.105609\H,0,1.540928,
 1.662818,1.317634\H,0,-0.594717,-0.519046,1.986612\H,0,-0.513085,-2.11

 Normal termination of Gaussian 16 at Tue Apr  8 23:45:22 2025.
