 Gaussian 16, Revision C.01,

 ----------------------------------------------------------------------
 #t hf aug-cc-pvdz symm=none int=(grid=ultrafine) guess=(read,tcheck) s
 table=(opt,rrhf)
 ----------------------------------------------------------------------
 -----
 title
 -----
 Symbolic Z-matrix:
 Charge =  0 Multiplicity = 1

 SCF Done:  E(RHF) =  -408.240985064     A.U. after   13 cycles
 Normal termination of Gaussian 16 at Wed Apr  9 00:45:54 2025.
 Gaussian 16:  ES64L-G16RevC.01  3-Jul-2019

 ----------------------------------------------------------------------
 #t hf aug-cc-pvdz iop(5/13=1,5/36=2,99/5=2) pseudo=read geom=check gue
 ss=(read,tcheck) scf=(maxcycle=1)
 ----------------------------------------------------------------------
 -----
 title
 -----
 Structure from the checkpoint file:  "BDE49_nonexpt_801_mol1.chk"
 Charge =  0 Multiplicity = 1

                         Standard orientation:
 ---------------------------------------------------------------------
 Center     Atomic      Atomic             Coordinates (Angstroms)
 Number     Number       Type             X           Y           Z
 ---------------------------------------------------------------------
      1          5           0        1.903214    0.920705   -0.000480
      2          6           0       -1.204431    0.049220    0.000086
      3          7           0       -2.285777    0.457545    0.000189
      4         14           0        0.548188   -0.568912   -0.000036
      5          1           0        0.688856   -1.417584   -1.205849
      6          1           0        0.689167   -1.417194    1.206015
      7          1           0        1.600822    2.069276    0.000367
      8          1           0        3.057475    0.628608    0.000538
 ---------------------------------------------------------------------

 SCF Done:  E(RHF) =  -408.387523754     A.U. after    2 cycles

 The electronic state is 1-A.
 Alpha  occ. eigenvalues --  -69.56628 -15.52425 -11.26296  -7.63837  -6.23795
 Alpha  occ. eigenvalues --   -3.99214  -3.99121  -3.99085  -1.23252  -0.84016
 Alpha  occ. eigenvalues --   -0.72470  -0.64260  -0.58215  -0.54400  -0.52928
 Alpha  occ. eigenvalues --   -0.51933  -0.49326  -0.45301
 Alpha virt. eigenvalues --    0.00582   0.03276   0.03424   0.04383   0.05828
 Alpha virt. eigenvalues --    0.06441   0.06884   0.07664   0.08295   0.09493
 Alpha virt. eigenvalues --    0.11052   0.11922   0.12180   0.12655   0.13705

 Mulliken charges:
               1
     1  B   -1.045305
     2  C   -1.317773
     3  N    0.775846
     4  Si   1.108402
     5  H   -0.160746
     6  H   -0.160728
     7  H    0.429403
     8  H    0.370901
 Sum of Mulliken charges =   0.00000

 Dipole moment (field-independent basis, Debye):
    X=              4.6092    Y=             -0.9786    Z=             -0.0015  Tot=              4.7119

 Test job not archived.
 1\1\GINC-SE132\SP\RHF\Aug-CC-pVDZ\C1H4B1N1Si1\OHZDE\09-Apr-2025\0\\#t
 hf aug-cc-pvdz iop(5/13=1,5/36=2,99/5=2) pseudo=read geom=check guess=
 (read,tcheck) scf=(maxcycle=1)\\title\\0,1\B,0,1.903214,0.920705,-0.00
 048\C,0,-1.204431,0.04922,0.000086\N,0,-2.285777,0.457545,0.000189\Si,
 0,0.548188,-0.568912,-0.000036\H,0,0.688856,-1.417584,-1.205849\H,0,0.
 689167,-1.417194,1.206015\H,0,1.600822,2.069276,0.000367\H,0,3.057475,
 0.628607,0.000538\\Version=ES64L-G16RevC.01\State=1-A\HF=-408.3875238\
 RMSD=1.460e-02\Dipole=1.8133938,-0.3850279,-0.0005724\Quadrupole=-4.97

 Normal termination of Gaussian 16 at Wed Apr  9 00:45:56 2025.
