 Gaussian 16, Revision C.01,

 ----------------------------------------------------------------------
 #t hf aug-cc-pvdz symm=none int=(grid=ultrafine) guess=(read,tcheck) s
 table=(opt,rrhf)
 ----------------------------------------------------------------------
 -----
 title
 -----
 Symbolic Z-matrix:
 Charge =  0 Multiplicity = 1

 SCF Done:  E(RHF) =  -519.778795123     A.U. after   15 cycles
 Normal termination of Gaussian 16 at Wed Apr  9 00:42:55 2025.
 Gaussian 16:  ES64L-G16RevC.01  3-Jul-2019

 ----------------------------------------------------------------------
 #t hf aug-cc-pvdz iop(5/13=1,5/36=2,99/5=2) pseudo=read geom=check gue
 ss=(read,tcheck) scf=(maxcycle=1)
 ----------------------------------------------------------------------
 -----
 title
 -----
 Structure from the checkpoint file:  "BDE49_nonexpt_678_mol1.chk"
 Charge =  0 Multiplicity = 1

                         Standard orientation:
 ---------------------------------------------------------------------
 Center     Atomic      Atomic             Coordinates (Angstroms)
 Number     Number       Type             X           Y           Z
 ---------------------------------------------------------------------
      1          5           0       -1.914523    0.071217   -0.000002
      2          8           0       -2.238000    1.396706   -0.000001
      3          1           0       -1.435712    1.935510   -0.000001
      4          8           0       -2.931596   -0.845839   -0.000001
      5          1           0       -3.789671   -0.409184   -0.000001
      6          6           0       -0.440342   -0.475963   -0.000002
      7          6           0        0.699235    0.355597    0.000000
      8          1           0        1.132383    3.614680    0.000013
      9          1           0        2.181795    2.487666    0.894620
     10          1           0        2.181800    2.487676   -0.894599
     11          8           0        0.462379    1.714124    0.000002
     12          6           0        1.564017    2.615023    0.000009
     13          6           0        1.988790   -0.178051    0.000000
     14          1           0        2.859413    0.463265    0.000001
     15          6           0        2.158940   -1.562279   -0.000002
     16          1           0        3.163780   -1.970329   -0.000002
     17          6           0        1.057222   -2.409835   -0.000004
     18          1           0        1.192192   -3.485064   -0.000005
     19          6           0       -0.222144   -1.859709   -0.000004
     20          1           0       -1.089939   -2.508942   -0.000005
 ---------------------------------------------------------------------

 SCF Done:  E(RHF) =  -520.305600474     A.U. after    2 cycles

 The electronic state is 1-A.
 Alpha  occ. eigenvalues --  -20.58848 -20.54192 -20.53703 -11.31836 -11.30868
 Alpha  occ. eigenvalues --  -11.25561 -11.24754 -11.24291 -11.23491 -11.21827
 Alpha  occ. eigenvalues --   -7.63076  -1.50994  -1.46544  -1.42326  -1.15286
 Alpha  occ. eigenvalues --   -1.03101  -1.02028  -0.95663  -0.84936  -0.82399
 Alpha  occ. eigenvalues --   -0.76441  -0.73265  -0.71073  -0.68500  -0.66975
 Alpha  occ. eigenvalues --   -0.66654  -0.63363  -0.60934  -0.59614  -0.56211
 Alpha  occ. eigenvalues --   -0.56060  -0.54840  -0.53313  -0.53068  -0.51485
 Alpha  occ. eigenvalues --   -0.48136  -0.47277  -0.46822  -0.35183  -0.32734
 Alpha virt. eigenvalues --    0.02884   0.03354   0.04182   0.04522   0.04812
 Alpha virt. eigenvalues --    0.05395   0.06495   0.06787   0.07541   0.08091
 Alpha virt. eigenvalues --    0.08582   0.09834   0.10456   0.11129   0.11801

 Mulliken charges:
               1
     1  B    1.205179
     2  O   -1.564716
     3  H    0.799415
     4  O   -1.406177
     5  H    0.506755
     6  C   -0.201320
     7  C    2.541596
     8  H   -0.044231
     9  H    0.202603
    10  H    0.202601
    11  O   -2.185671
    12  C    0.169942
    13  C   -0.133936
    14  H   -0.433089
    15  C    0.433744
    16  H   -0.234432
    17  C    0.080807
    18  H   -0.218381
    19  C    0.619956
    20  H   -0.340646
 Sum of Mulliken charges =  -0.00000

 Dipole moment (field-independent basis, Debye):
    X=              2.7244    Y=              1.5029    Z=              0.0000  Tot=              3.1114

 Test job not archived.
 1\1\GINC-SE128\SP\RHF\Aug-CC-pVDZ\C7H9B1O3\OHZDE\09-Apr-2025\0\\#t hf
 aug-cc-pvdz iop(5/13=1,5/36=2,99/5=2) pseudo=read geom=check guess=(re
 ad,tcheck) scf=(maxcycle=1)\\title\\0,1\B,0,-1.914523,0.071217,-0.0000
 02\O,0,-2.238,1.396706,-0.000001\H,0,-1.435712,1.93551,-0.000001\O,0,-
 2.931596,-0.845839,-0.000001\H,0,-3.789671,-0.409184,-0.000001\C,0,-0.
 440342,-0.475963,-0.000002\C,0,0.699235,0.355597,0.\H,0,1.132383,3.614
 68,0.000013\H,0,2.181795,2.487666,0.89462\H,0,2.1818,2.487676,-0.89459
 9\O,0,0.462379,1.714124,0.000002\C,0,1.564017,2.615023,0.000009\C,0,1.

 Normal termination of Gaussian 16 at Wed Apr  9 00:43:08 2025.
