 Gaussian 16, Revision C.01,

 ----------------------------------------------------------------------
 #t hf aug-cc-pvdz symm=none int=(grid=ultrafine) guess=(read,tcheck) s
 table=(opt,rrhf)
 ----------------------------------------------------------------------
 -----
 title
 -----
 Symbolic Z-matrix:
 Charge =  0 Multiplicity = 1

 SCF Done:  E(RHF) =  -517.909034057     A.U. after   13 cycles
 Normal termination of Gaussian 16 at Tue Apr  8 23:50:58 2025.
 Gaussian 16:  ES64L-G16RevC.01  3-Jul-2019

 ----------------------------------------------------------------------
 #t hf aug-cc-pvdz iop(5/13=1,5/36=2,99/5=2) pseudo=read geom=check gue
 ss=(read,tcheck) scf=(maxcycle=1)
 ----------------------------------------------------------------------
 -----
 title
 -----
 Structure from the checkpoint file:  "BDE49_nonexpt_1887_mol1.chk"
 Charge =  0 Multiplicity = 1

                         Standard orientation:
 ---------------------------------------------------------------------
 Center     Atomic      Atomic             Coordinates (Angstroms)
 Number     Number       Type             X           Y           Z
 ---------------------------------------------------------------------
      1          6           0       -0.251564    0.533574   -0.000008
      2         14           0       -2.062955   -0.019073   -0.000002
      3          8           0        0.571897   -0.664557    0.000009
      4          6           0        1.902774   -0.465972    0.000008
      5          1           0       -2.906314    1.199136   -0.000022
      6          1           0       -2.350784   -0.820672    1.209372
      7          1           0       -2.350781   -0.820709   -1.209350
      8          8           0        2.453022    0.598131   -0.000005
      9          1           0        2.404036   -1.444270    0.000022
     10          1           0       -0.010701    1.139677    0.878098
     11          1           0       -0.010699    1.139653   -0.878130
 ---------------------------------------------------------------------

 SCF Done:  E(RHF) =  -518.169840878     A.U. after    2 cycles

 The electronic state is 1-A.
 Alpha  occ. eigenvalues --  -69.53886 -20.60397 -20.55014 -11.39808 -11.29507
 Alpha  occ. eigenvalues --   -6.21028  -3.96405  -3.96393  -3.96382  -1.55042
 Alpha  occ. eigenvalues --   -1.46377  -0.99135  -0.83291  -0.76071  -0.72075
 Alpha  occ. eigenvalues --   -0.68583  -0.67893  -0.56640  -0.56354  -0.50074
 Alpha  occ. eigenvalues --   -0.49397  -0.48291  -0.46532  -0.45480
 Alpha virt. eigenvalues --    0.03453   0.03984   0.04537   0.04578   0.06752
 Alpha virt. eigenvalues --    0.07871   0.08501   0.08822   0.09079   0.11025
 Alpha virt. eigenvalues --    0.11716   0.12382   0.14775   0.15526   0.16083

 Mulliken charges:
               1
     1  C    0.050683
     2  Si   1.007429
     3  O   -1.033652
     4  C    1.273680
     5  H   -0.169066
     6  H   -0.209363
     7  H   -0.209361
     8  O   -0.933786
     9  H    0.084929
    10  H    0.069254
    11  H    0.069254
 Sum of Mulliken charges =  -0.00000

 Dipole moment (field-independent basis, Debye):
    X=             -1.4291    Y=             -0.9010    Z=              0.0000  Tot=              1.6894

 Test job not archived.
 1\1\GINC-SE108\SP\RHF\Aug-CC-pVDZ\C2H6O2Si1\OHZDE\08-Apr-2025\0\\#t hf
  aug-cc-pvdz iop(5/13=1,5/36=2,99/5=2) pseudo=read geom=check guess=(r
 ead,tcheck) scf=(maxcycle=1)\\title\\0,1\C,0,-0.251564,0.533574,-0.000
 008\Si,0,-2.062955,-0.019073,-0.000002\O,0,0.571897,-0.664557,0.000009
 \C,0,1.902774,-0.465972,0.000008\H,0,-2.906314,1.199136,-0.000022\H,0,
 -2.350784,-0.820672,1.209372\H,0,-2.350781,-0.820709,-1.20935\O,0,2.45
 3022,0.598131,-0.000005\H,0,2.404036,-1.44427,0.000022\H,0,-0.010701,1
 .139677,0.878098\H,0,-0.010699,1.139653,-0.87813\\Version=ES64L-G16Rev

 Normal termination of Gaussian 16 at Tue Apr  8 23:51:01 2025.
