 Gaussian 16, Revision C.01,

 ----------------------------------------------------------------------
 #t hf aug-cc-pvdz symm=none int=(grid=ultrafine) guess=(read,tcheck) s
 table=(opt,rrhf)
 ----------------------------------------------------------------------
 -----
 title
 -----
 Symbolic Z-matrix:
 Charge =  0 Multiplicity = 1

 SCF Done:  E(RHF) =  -765.607176258     A.U. after   17 cycles
 Normal termination of Gaussian 16 at Tue Apr  8 23:18:54 2025.
 Gaussian 16:  ES64L-G16RevC.01  3-Jul-2019

 ----------------------------------------------------------------------
 #t hf aug-cc-pvdz iop(5/13=1,5/36=2,99/5=2) pseudo=read geom=check gue
 ss=(read,tcheck) scf=(maxcycle=1)
 ----------------------------------------------------------------------
 -----
 title
 -----
 Structure from the checkpoint file:  "BDE49_nonexpt_1095_mol1.chk"
 Charge =  0 Multiplicity = 1

                         Standard orientation:
 ---------------------------------------------------------------------
 Center     Atomic      Atomic             Coordinates (Angstroms)
 Number     Number       Type             X           Y           Z
 ---------------------------------------------------------------------
      1          9           0        2.867204   -0.698513   -0.442724
      2          6           0        0.728078    0.004360    0.249819
      3          6           0        2.203194    0.190812    0.401013
      4          1           0        2.513674   -0.035053    1.425337
      5          1           0        2.487251    1.211419    0.140448
      6          7           0        0.001608    0.987597   -0.087931
      7          8           0       -1.262261    1.025001   -0.240676
      8         17           0       -2.268979   -0.600316    0.037361
      9          1           0        0.266073   -0.968606    0.419526
 ---------------------------------------------------------------------

 SCF Done:  E(RHF) =  -765.976916282     A.U. after    2 cycles

 The electronic state is 1-A.
 Alpha  occ. eigenvalues -- -105.61376 -26.47113 -20.71190 -15.63112 -11.35803
 Alpha  occ. eigenvalues --  -11.32598 -10.65635  -7.82543  -7.82098  -7.82067
 Alpha  occ. eigenvalues --   -1.60466  -1.59097  -1.22822  -1.05341  -0.99696
 Alpha  occ. eigenvalues --   -0.84687  -0.78381  -0.73903  -0.71987  -0.69961
 Alpha  occ. eigenvalues --   -0.68692  -0.63666  -0.55706  -0.55268  -0.49968
 Alpha  occ. eigenvalues --   -0.49428  -0.46881  -0.44361
 Alpha virt. eigenvalues --    0.00309   0.03598   0.04698   0.05626   0.07042
 Alpha virt. eigenvalues --    0.09146   0.10661   0.10983   0.13322   0.13806
 Alpha virt. eigenvalues --    0.14612   0.15452   0.16482   0.17289   0.17498

 Mulliken charges:
               1
     1  F   -0.668247
     2  C   -0.463730
     3  C    0.511477
     4  H    0.182440
     5  H    0.148923
     6  N    1.347515
     7  O   -1.125336
     8  Cl   0.071810
     9  H   -0.004851
 Sum of Mulliken charges =  -0.00000

 Dipole moment (field-independent basis, Debye):
    X=              1.3176    Y=             -0.3871    Z=              1.7745  Tot=              2.2439

 Test job not archived.
 1\1\GINC-SE460\SP\RHF\Aug-CC-pVDZ\C2H3Cl1F1N1O1\OHZDE\08-Apr-2025\0\\#
 t hf aug-cc-pvdz iop(5/13=1,5/36=2,99/5=2) pseudo=read geom=check gues
 s=(read,tcheck) scf=(maxcycle=1)\\title\\0,1\F,0,2.867204,-0.698513,-0
 .442724\C,0,0.728078,0.00436,0.249819\C,0,2.203194,0.190812,0.401013\H
 ,0,2.513674,-0.035053,1.425337\H,0,2.487251,1.211419,0.140448\N,0,0.00
 1608,0.987597,-0.087931\O,0,-1.262261,1.025001,-0.240676\Cl,0,-2.26897
 9,-0.600316,0.037361\H,0,0.266073,-0.968606,0.419526\\Version=ES64L-G1
 6RevC.01\State=1-A\HF=-765.9769163\RMSD=1.482e-02\Dipole=0.5183968,-0.

 Normal termination of Gaussian 16 at Tue Apr  8 23:18:58 2025.
