 Gaussian 16, Revision C.01,

 ----------------------------------------------------------------------
 #t hf aug-cc-pvdz symm=none int=(grid=ultrafine) guess=(read,tcheck) s
 table=(opt,rrhf)
 ----------------------------------------------------------------------
 -----
 title
 -----
 Symbolic Z-matrix:
 Charge =  0 Multiplicity = 1

 SCF Done:  E(RHF) =  -424.418110931     A.U. after   11 cycles
 Normal termination of Gaussian 16 at Wed Apr  9 00:00:31 2025.
 Gaussian 16:  ES64L-G16RevC.01  3-Jul-2019

 ----------------------------------------------------------------------
 #t hf aug-cc-pvdz iop(5/13=1,5/36=2,99/5=2) pseudo=read geom=check gue
 ss=(read,tcheck) scf=(maxcycle=1)
 ----------------------------------------------------------------------
 -----
 title
 -----
 Structure from the checkpoint file:  "BDE49_nonexpt_2108_mol1.chk"
 Charge =  0 Multiplicity = 1

                         Standard orientation:
 ---------------------------------------------------------------------
 Center     Atomic      Atomic             Coordinates (Angstroms)
 Number     Number       Type             X           Y           Z
 ---------------------------------------------------------------------
      1          7           0       -0.686066    1.543150   -0.208101
      2         14           0        0.002186    0.059008    0.357618
      3          1           0       -0.347479    2.426006    0.146928
      4          1           0       -0.973535    1.636498   -1.172179
      5          6           0       -1.127741   -1.341711   -0.174319
      6          1           0       -1.211890   -1.391279   -1.265162
      7          6           0        1.755937   -0.296416   -0.232210
      8          1           0        1.797670   -0.405878   -1.320929
      9          1           0        2.136511   -1.223077    0.210767
     10          1           0        2.440932    0.509708    0.047971
     11          1           0       -2.132467   -1.210670    0.235054
     12          1           0       -0.743071   -2.307198    0.167573
     13          1           0        0.036014    0.166489    1.839201
 ---------------------------------------------------------------------

 SCF Done:  E(RHF) =  -424.603937570     A.U. after    2 cycles

 The electronic state is 1-A.
 Alpha  occ. eigenvalues --  -69.52354 -15.46804 -11.20713 -11.20583  -6.19135
 Alpha  occ. eigenvalues --   -3.94541  -3.94498  -3.94444  -1.13087  -0.95611
 Alpha  occ. eigenvalues --   -0.92572  -0.70845  -0.68166  -0.58163  -0.56797
 Alpha  occ. eigenvalues --   -0.54850  -0.54440  -0.53193  -0.47869  -0.44928
 Alpha  occ. eigenvalues --   -0.41157
 Alpha virt. eigenvalues --    0.03189   0.04349   0.04614   0.04813   0.06612
 Alpha virt. eigenvalues --    0.06783   0.06959   0.07285   0.08208   0.10155
 Alpha virt. eigenvalues --    0.10375   0.11879   0.13550   0.15711   0.16425

 Mulliken charges:
               1
     1  N    0.028456
     2  Si   1.334691
     3  H   -0.048074
     4  H   -0.012789
     5  C   -0.578385
     6  H    0.104541
     7  C   -0.572167
     8  H    0.055481
     9  H   -0.015246
    10  H   -0.041569
    11  H   -0.013548
    12  H   -0.043385
    13  H   -0.198005
 Sum of Mulliken charges =   0.00000

 Dipole moment (field-independent basis, Debye):
    X=              0.5394    Y=              0.2399    Z=             -0.9477  Tot=              1.1165

 Test job not archived.
 1\1\GINC-SE398\SP\RHF\Aug-CC-pVDZ\C2H9N1Si1\OHZDE\09-Apr-2025\0\\#t hf
  aug-cc-pvdz iop(5/13=1,5/36=2,99/5=2) pseudo=read geom=check guess=(r
 ead,tcheck) scf=(maxcycle=1)\\title\\0,1\N,0,-0.686068,1.543149,-0.208
 101\Si,0,0.002186,0.059008,0.357618\H,0,-0.347482,2.426006,0.146928\H,
 0,-0.973537,1.636497,-1.172179\C,0,-1.127739,-1.341712,-0.174319\H,0,-
 1.211888,-1.39128,-1.265162\C,0,1.755937,-0.296414,-0.23221\H,0,1.7976
 71,-0.405876,-1.320929\H,0,2.136512,-1.223075,0.210767\H,0,2.440932,0.
 509711,0.047971\H,0,-2.132466,-1.210672,0.235054\H,0,-0.743068,-2.3071

 Normal termination of Gaussian 16 at Wed Apr  9 00:00:34 2025.
