 Gaussian 16, Revision C.01,

 ----------------------------------------------------------------------
 #t hf aug-cc-pvdz symm=none int=(grid=ultrafine) guess=(read,tcheck) s
 table=(opt,rrhf)
 ----------------------------------------------------------------------
 -----
 title
 -----
 Symbolic Z-matrix:
 Charge =  0 Multiplicity = 1

 SCF Done:  E(RHF) =  -605.821755638     A.U. after   15 cycles
 Normal termination of Gaussian 16 at Tue Apr  8 23:31:04 2025.
 Gaussian 16:  ES64L-G16RevC.01  3-Jul-2019

 ----------------------------------------------------------------------
 #t hf aug-cc-pvdz iop(5/13=1,5/36=2,99/5=2) pseudo=read geom=check gue
 ss=(read,tcheck) scf=(maxcycle=1)
 ----------------------------------------------------------------------
 -----
 title
 -----
 Structure from the checkpoint file:  "BDE49_nonexpt_1401_mol1.chk"
 Charge =  0 Multiplicity = 1

                         Standard orientation:
 ---------------------------------------------------------------------
 Center     Atomic      Atomic             Coordinates (Angstroms)
 Number     Number       Type             X           Y           Z
 ---------------------------------------------------------------------
      1         15           0       -0.342212   -1.274862   -0.111671
      2          6           0        0.957492    0.091628   -0.007790
      3          8           0        0.322276    1.334699   -0.011931
      4          6           0       -1.048119    1.226270    0.010467
      5          6           0       -1.609114    0.016318    0.051476
      6          8           0        2.142849    0.003912    0.021296
      7          1           0       -2.677463   -0.140028    0.038932
      8          1           0       -1.538499    2.189776   -0.013658
      9          1           0       -0.173412   -1.640995    1.249945
 ---------------------------------------------------------------------

 SCF Done:  E(RHF) =  -606.121978701     A.U. after    2 cycles

 The electronic state is 1-A.
 Alpha  occ. eigenvalues --  -84.31249 -20.62164 -20.56067 -11.41029 -11.34347
 Alpha  occ. eigenvalues --  -11.26540  -6.78369  -4.30947  -4.30676  -4.30104
 Alpha  occ. eigenvalues --   -1.56915  -1.48793  -1.08481  -0.96632  -0.83697
 Alpha  occ. eigenvalues --   -0.76764  -0.72986  -0.66756  -0.66257  -0.61791
 Alpha  occ. eigenvalues --   -0.57652  -0.53186  -0.52618  -0.43862  -0.41517
 Alpha  occ. eigenvalues --   -0.35303
 Alpha virt. eigenvalues --    0.02847   0.03967   0.04899   0.06866   0.08135
 Alpha virt. eigenvalues --    0.08687   0.09320   0.09848   0.10914   0.12291
 Alpha virt. eigenvalues --    0.12855   0.13592   0.14729   0.15263   0.15479

 Mulliken charges:
               1
     1  P    0.474017
     2  C    1.135056
     3  O   -1.343345
     4  C    0.935319
     5  C   -0.370749
     6  O   -1.149216
     7  H   -0.201862
     8  H   -0.058740
     9  H    0.579520
 Sum of Mulliken charges =   0.00000

 Dipole moment (field-independent basis, Debye):
    X=             -4.0853    Y=             -0.3574    Z=              0.3091  Tot=              4.1126

 Test job not archived.
 1\1\GINC-SE460\SP\RHF\Aug-CC-pVDZ\C3H3O2P1\OHZDE\08-Apr-2025\0\\#t hf
 aug-cc-pvdz iop(5/13=1,5/36=2,99/5=2) pseudo=read geom=check guess=(re
 ad,tcheck) scf=(maxcycle=1)\\title\\0,1\P,0,-0.342213,-1.274862,-0.111
 671\C,0,0.957492,0.091627,-0.00779\O,0,0.322277,1.334699,-0.011931\C,0
 ,-1.048118,1.226271,0.010467\C,0,-1.609114,0.016319,0.051476\O,0,2.142
 849,0.00391,0.021296\H,0,-2.677463,-0.140026,0.038932\H,0,-1.538497,2.
 189777,-0.013658\H,0,-0.173413,-1.640995,1.249945\\Version=ES64L-G16Re
 vC.01\State=1-A\HF=-606.1219787\RMSD=3.990e-02\Dipole=-1.6073002,-0.14

 Normal termination of Gaussian 16 at Tue Apr  8 23:31:08 2025.
