 Gaussian 16, Revision C.01,

 ----------------------------------------------------------------------
 #t hf aug-cc-pvdz symm=none int=(grid=ultrafine) guess=(read,tcheck) s
 table=(opt,rrhf)
 ----------------------------------------------------------------------
 -----
 title
 -----
 Symbolic Z-matrix:
 Charge =  0 Multiplicity = 1

 SCF Done:  E(RHF) =  -1262.02182767     A.U. after   18 cycles
 Normal termination of Gaussian 16 at Tue Apr  8 23:33:08 2025.
 Gaussian 16:  ES64L-G16RevC.01  3-Jul-2019

 ----------------------------------------------------------------------
 #t hf aug-cc-pvdz iop(5/13=1,5/36=2,99/5=2) pseudo=read geom=check gue
 ss=(read,tcheck) scf=(maxcycle=1)
 ----------------------------------------------------------------------
 -----
 title
 -----
 Structure from the checkpoint file:  "BDE49_nonexpt_1381_mol1.chk"
 Charge =  0 Multiplicity = 1

                         Standard orientation:
 ---------------------------------------------------------------------
 Center     Atomic      Atomic             Coordinates (Angstroms)
 Number     Number       Type             X           Y           Z
 ---------------------------------------------------------------------
      1          9           0        2.835483    1.428932    0.244050
      2          9           0       -0.283358   -1.774730    1.237009
      3          8           0        2.527426   -1.366336   -1.038141
      4          8           0        0.169716    2.305711   -0.599164
      5         15           0        1.642838    0.506832    0.827276
      6         15           0       -0.183541   -1.626577   -0.412203
      7          6           0        1.624282   -0.948667   -0.375814
      8          6           0        0.196125    1.167399   -0.217128
      9          6           0       -0.881171    0.118318   -0.548100
     10          1           0       -1.112011    0.262596   -1.613207
     11          6           0       -2.204867    0.315924    0.262843
     12          1           0       -1.939704    0.280209    1.324578
     13          6           0       -2.846047    1.678420   -0.037863
     14          1           0       -3.737371    1.809098    0.581742
     15          1           0       -3.154139    1.738728   -1.086486
     16          1           0       -2.170880    2.511280    0.156392
     17          6           0       -3.205845   -0.816493   -0.013530
     18          1           0       -4.141042   -0.623133    0.517850
     19          1           0       -3.437929   -0.885767   -1.080955
     20          1           0       -2.837481   -1.789049    0.320462
 ---------------------------------------------------------------------

 SCF Done:  E(RHF) =  -1262.66826898     A.U. after    2 cycles

 The electronic state is 1-A.
 Alpha  occ. eigenvalues --  -84.38211 -84.37762 -26.48956 -26.48667 -20.60186
 Alpha  occ. eigenvalues --  -20.58392 -11.38614 -11.38308 -11.29635 -11.28135
 Alpha  occ. eigenvalues --  -11.25217 -11.24210  -6.84496  -6.84194  -4.37192
 Alpha  occ. eigenvalues --   -4.37062  -4.36680  -4.36247  -4.36208  -4.35830
 Alpha  occ. eigenvalues --   -1.59867  -1.59677  -1.53018  -1.51725  -1.13884
 Alpha  occ. eigenvalues --   -1.05352  -0.95960  -0.95359  -0.89836  -0.82743
 Alpha  occ. eigenvalues --   -0.78046  -0.76940  -0.71043  -0.69993  -0.69736
 Alpha  occ. eigenvalues --   -0.68877  -0.67017  -0.66327  -0.65521  -0.64147
 Alpha  occ. eigenvalues --   -0.62839  -0.61961  -0.58722  -0.58087  -0.57636
 Alpha  occ. eigenvalues --   -0.56468  -0.54758  -0.52537  -0.52101  -0.50336
 Alpha  occ. eigenvalues --   -0.48570  -0.42468  -0.37802  -0.34734
 Alpha virt. eigenvalues --    0.03023   0.03185   0.03347   0.04105   0.04638
 Alpha virt. eigenvalues --    0.05736   0.06195   0.06410   0.06902   0.07523
 Alpha virt. eigenvalues --    0.08826   0.09035   0.09811   0.10304   0.10665

 Mulliken charges:
               1
     1  F   -0.846742
     2  F   -0.861451
     3  O   -1.208178
     4  O   -1.344523
     5  P    1.681897
     6  P    1.942713
     7  C    0.063020
     8  C    0.709431
     9  C   -0.000723
    10  H    0.229802
    11  C   -1.600873
    12  H    0.118947
    13  C   -0.053582
    14  H    0.168621
    15  H    0.235254
    16  H    0.152473
    17  C    0.043322
    18  H    0.149694
    19  H    0.220015
    20  H    0.200883
 Sum of Mulliken charges =  -0.00000

 Dipole moment (field-independent basis, Debye):
    X=             -3.8611    Y=             -1.1846    Z=              0.7934  Tot=              4.1160

 Test job not archived.
 1\1\GINC-SE455\SP\RHF\Aug-CC-pVDZ\C6H8F2O2P2\OHZDE\08-Apr-2025\0\\#t h
 f aug-cc-pvdz iop(5/13=1,5/36=2,99/5=2) pseudo=read geom=check guess=(
 read,tcheck) scf=(maxcycle=1)\\title\\0,1\F,0,2.835483,1.428932,0.2440
 5\F,0,-0.283358,-1.77473,1.237009\O,0,2.527426,-1.366336,-1.038141\O,0
 ,0.169716,2.305711,-0.599164\P,0,1.642838,0.506832,0.827276\P,0,-0.183
 541,-1.626577,-0.412203\C,0,1.624282,-0.948667,-0.375814\C,0,0.196125,
 1.167399,-0.217128\C,0,-0.881171,0.118318,-0.5481\H,0,-1.112011,0.2625
 96,-1.613207\C,0,-2.204867,0.315924,0.262843\H,0,-1.939704,0.280209,1.

 Normal termination of Gaussian 16 at Tue Apr  8 23:33:21 2025.
