 Gaussian 16, Revision C.01,

 ----------------------------------------------------------------------
 #t hf aug-cc-pvdz symm=none int=(grid=ultrafine) guess=(read,tcheck) s
 table=(opt,rrhf)
 ----------------------------------------------------------------------
 -----
 title
 -----
 Symbolic Z-matrix:
 Charge =  0 Multiplicity = 1

 SCF Done:  E(RHF) =  -2624.99865140     A.U. after   12 cycles
 Normal termination of Gaussian 16 at Tue Apr  8 23:48:24 2025.
 Gaussian 16:  ES64L-G16RevC.01  3-Jul-2019

 ----------------------------------------------------------------------
 #t hf aug-cc-pvdz iop(5/13=1,5/36=2,99/5=2) pseudo=read geom=check gue
 ss=(read,tcheck) scf=(maxcycle=1)
 ----------------------------------------------------------------------
 -----
 title
 -----
 Structure from the checkpoint file:  "BDE49_nonexpt_1817_mol1.chk"
 Charge =  0 Multiplicity = 1

                         Standard orientation:
 ---------------------------------------------------------------------
 Center     Atomic      Atomic             Coordinates (Angstroms)
 Number     Number       Type             X           Y           Z
 ---------------------------------------------------------------------
      1         14           0        0.793565    0.801277   -0.000000
      2          6           0       -0.181002   -0.850640    0.000000
      3         17           0        0.307552    1.873959    1.677513
      4         17           0        0.307552    1.873959   -1.677513
      5         17           0       -1.950611   -0.590374    0.000000
      6         17           0        0.307552   -1.772835    1.467541
      7         17           0        0.307552   -1.772835   -1.467541
      8          1           0        2.222941    0.484107   -0.000000
 ---------------------------------------------------------------------

 SCF Done:  E(RHF) =  -2625.44821434     A.U. after    2 cycles

 The electronic state is 1-A'.
 Alpha  occ. eigenvalues -- -105.60874-105.60873-105.60733-105.58906-105.58906
 Alpha  occ. eigenvalues --  -69.66045 -11.44704 -10.65666 -10.65654 -10.65527
 Alpha  occ. eigenvalues --  -10.63936 -10.63925  -7.82606  -7.82603  -7.82478
 Alpha  occ. eigenvalues --   -7.82184  -7.82183  -7.82174  -7.82172  -7.82043
 Alpha  occ. eigenvalues --   -7.82040  -7.80826  -7.80819  -7.80491  -7.80490
 Alpha  occ. eigenvalues --   -7.80484  -7.80481  -6.32158  -4.07580  -4.07476
 Alpha  occ. eigenvalues --   -4.07365  -1.21694  -1.10536  -1.08129  -1.07920
 Alpha  occ. eigenvalues --   -1.06685  -0.86938  -0.74713  -0.65040  -0.64736
 Alpha  occ. eigenvalues --   -0.64058  -0.58775  -0.58305  -0.52629  -0.52509
 Alpha  occ. eigenvalues --   -0.51786  -0.50680  -0.49466  -0.49309  -0.48408
 Alpha  occ. eigenvalues --   -0.47645  -0.46937  -0.45203
 Alpha virt. eigenvalues --    0.04425   0.05444   0.05630   0.05914   0.07998
 Alpha virt. eigenvalues --    0.08413   0.08983   0.09622   0.11082   0.12180
 Alpha virt. eigenvalues --    0.12525   0.13201   0.14034   0.14699   0.14942

 Mulliken charges:
               1
     1  Si   1.868825
     2  C   -0.938757
     3  Cl  -0.525934
     4  Cl  -0.525934
     5  Cl   0.065413
     6  Cl   0.063630
     7  Cl   0.063630
     8  H   -0.070874
 Sum of Mulliken charges =  -0.00000

 Dipole moment (field-independent basis, Debye):
    X=              0.9691    Y=             -0.0458    Z=             -0.0000  Tot=              0.9702

 Test job not archived.
 1\1\GINC-SE435\SP\RHF\Aug-CC-pVDZ\C1H1Cl5Si1\OHZDE\08-Apr-2025\0\\#t h
 f aug-cc-pvdz iop(5/13=1,5/36=2,99/5=2) pseudo=read geom=check guess=(
 read,tcheck) scf=(maxcycle=1)\\title\\0,1\Si,0,0.793565,0.801277,0.\C,
 0,-0.181002,-0.85064,0.\Cl,0,0.307552,1.873959,1.677513\Cl,0,0.307552,
 1.873959,-1.677513\Cl,0,-1.950611,-0.590374,0.\Cl,0,0.307552,-1.772835
 ,1.467541\Cl,0,0.307552,-1.772835,-1.467541\H,0,2.222941,0.484107,0.\\
 Version=ES64L-G16RevC.01\State=1-A'\HF=-2625.4482143\RMSD=3.930e-03\Di
 pole=0.3812698,-0.0180059,0.\Quadrupole=1.724949,-1.4035371,-0.3214119

 Normal termination of Gaussian 16 at Tue Apr  8 23:48:28 2025.
