 Gaussian 16, Revision C.01,

 ----------------------------------------------------------------------
 #t hf aug-cc-pvdz symm=none int=(grid=ultrafine) guess=(read,tcheck) s
 table=opt
 ----------------------------------------------------------------------
 -----
 title
 -----
 Symbolic Z-matrix:
 Charge =  0 Multiplicity = 2

 SCF Done:  E(UHF) =  -1455.37682477     A.U. after   18 cycles

 1\1\GINC-SE227\Stability\UHF\Aug-CC-pVDZ\C2H2Cl3\OHZDE\08-Apr-2025\0\\
 #t hf aug-cc-pvdz symm=none int=(grid=ultrafine) guess=(read,tcheck) s
 table=opt\\title\\0,2\C,0,1.007773,-0.789375,0.\C,0,0.375016,0.530413,
 0.\H,0,1.602043,-0.941714,-0.897043\Cl,0,-0.225506,-2.186152,0.\H,0,1.
 602043,-0.941714,0.897043\Cl,0,-0.225506,1.19417,-1.466005\Cl,0,-0.225
 506,1.19417,1.466005\\Version=ES64L-G16RevC.01\HF=-1455.3768248\S2=0.7
 75368\S2-1=0.\S2A=0.750544\RMSD=7.070e-09\Dipole=0.7839845,0.2122815,0
 .\Quadrupole=2.1868222,-2.9725441,0.785722,-1.4633636,0.,0.\PG=Unknown

 Normal termination of Gaussian 16 at Tue Apr  8 22:47:36 2025.
 Gaussian 16:  ES64L-G16RevC.01  3-Jul-2019

 ----------------------------------------------------------------------
 #t hf aug-cc-pvdz iop(5/13=1,5/36=2,99/5=2) pseudo=read geom=check gue
 ss=(read,tcheck) scf=(maxcycle=1)
 ----------------------------------------------------------------------
 -----
 title
 -----
 Structure from the checkpoint file:  "BDE49_expt_1636_mol2.chk"
 Charge =  0 Multiplicity = 2

                         Standard orientation:
 ---------------------------------------------------------------------
 Center     Atomic      Atomic             Coordinates (Angstroms)
 Number     Number       Type             X           Y           Z
 ---------------------------------------------------------------------
      1          6           0       -1.007773   -0.789375   -0.000000
      2          6           0       -0.375016    0.530413    0.000000
      3          1           0       -1.602043   -0.941714    0.897043
      4         17           0        0.225506   -2.186152   -0.000000
      5          1           0       -1.602043   -0.941714   -0.897043
      6         17           0        0.225506    1.194170    1.466005
      7         17           0        0.225506    1.194170   -1.466005
 ---------------------------------------------------------------------

 SCF Done:  E(UHF) =  -1455.68063756     A.U. after    2 cycles

 The electronic state is 2-A'.
 Alpha  occ. eigenvalues -- -105.60596-105.60596-105.57041 -11.39180 -11.34210
 Alpha  occ. eigenvalues --  -10.65427 -10.65420 -10.61782  -7.82265  -7.82262
 Alpha  occ. eigenvalues --   -7.82092  -7.82090  -7.81948  -7.81947  -7.78980
 Alpha  occ. eigenvalues --   -7.78295  -7.78280  -1.22460  -1.10051  -1.08680
 Alpha  occ. eigenvalues --   -0.97725  -0.81435  -0.69578  -0.67819  -0.64529
 Alpha  occ. eigenvalues --   -0.59837  -0.55149  -0.51082  -0.51007  -0.48061
 Alpha  occ. eigenvalues --   -0.46588  -0.46098  -0.37598
 Alpha virt. eigenvalues --    0.03571   0.05146   0.06936   0.07801   0.08708
 Alpha virt. eigenvalues --    0.10016   0.12845   0.13640   0.14737   0.15027
 Alpha virt. eigenvalues --    0.15665   0.16241   0.17073   0.17372   0.18328

  Beta  occ. eigenvalues -- -105.60570-105.60570-105.56856 -11.36352 -11.34608
  Beta  occ. eigenvalues --  -10.65397 -10.65390 -10.61587  -7.82505  -7.82501
  Beta  occ. eigenvalues --   -7.81930  -7.81929  -7.81748  -7.81746  -7.78278
  Beta  occ. eigenvalues --   -7.78170  -7.78141  -1.18974  -1.09458  -1.08314
  Beta  occ. eigenvalues --   -0.95907  -0.77747  -0.68979  -0.65769  -0.59287
  Beta  occ. eigenvalues --   -0.57936  -0.52504  -0.50941  -0.48832  -0.48016
  Beta  occ. eigenvalues --   -0.46046  -0.45709
  Beta virt. eigenvalues --    0.03453   0.04216   0.05142   0.07130   0.08810
  Beta virt. eigenvalues --    0.08873   0.10687   0.13228   0.13844   0.14785
  Beta virt. eigenvalues --    0.15488   0.16199   0.16592   0.17166   0.17477

 Mulliken charges and spin densities:
               1          2
     1  C   -0.353439  -0.273778
     2  C   -0.074120   1.149026
     3  H    0.279103   0.009345
     4  Cl  -0.062433   0.123777
     5  H    0.279103   0.009345
     6  Cl  -0.034107  -0.008857
     7  Cl  -0.034107  -0.008857
 Sum of Mulliken charges =  -0.00000   1.00000

 Dipole moment (field-independent basis, Debye):
    X=             -1.9890    Y=              0.5520    Z=             -0.0000  Tot=              2.0642
                          Isotropic Fermi Contact Couplings
        Atom                 a.u.       MegaHertz       Gauss      10(-4) cm-1
     1  C(13)             -0.04196     -47.17438     -16.83299     -15.73568
     2  C(13)              0.30792     346.16599     123.52063     115.46854
     3  H(1)               0.00489      21.86602       7.80234       7.29372
     4  Cl(35)             0.05764      25.27346       9.01820       8.43032
     5  H(1)               0.00489      21.86602       7.80234       7.29372
     6  Cl(35)             0.03248      14.24227       5.08200       4.75071
     7  Cl(35)             0.03248      14.24227       5.08200       4.75071
 --------------------------------------------------------

 Normal termination of Gaussian 16 at Tue Apr  8 22:47:39 2025.
