 Gaussian 16, Revision C.01,

 ----------------------------------------------------------------------
 #t hf aug-cc-pvdz symm=none int=(grid=ultrafine) guess=(read,tcheck) s
 table=opt
 ----------------------------------------------------------------------
 -----
 title
 -----
 Symbolic Z-matrix:
 Charge =  0 Multiplicity = 2

 SCF Done:  E(UHF) =  -947.424595745     A.U. after   22 cycles
 Normal termination of Gaussian 16 at Wed Apr  9 00:50:03 2025.
 Gaussian 16:  ES64L-G16RevC.01  3-Jul-2019

 ----------------------------------------------------------------------
 #t hf aug-cc-pvdz iop(5/13=1,5/36=2,99/5=2) pseudo=read geom=check gue
 ss=(read,tcheck) scf=(maxcycle=1)
 ----------------------------------------------------------------------
 -----
 title
 -----
 Structure from the checkpoint file:  "BDE49_nonexpt_908_mol2.chk"
 Charge =  0 Multiplicity = 2

                         Standard orientation:
 ---------------------------------------------------------------------
 Center     Atomic      Atomic             Coordinates (Angstroms)
 Number     Number       Type             X           Y           Z
 ---------------------------------------------------------------------
      1         16           0        1.964299    0.268049    0.000207
      2         16           0        0.350128   -0.881525   -0.000141
      3          6           0       -1.110211    0.328585   -0.000110
      4          6           0       -2.428572   -0.403254    0.000019
      5          1           0       -3.242716    0.320830    0.000073
      6          1           0       -2.501119   -1.045005    0.882006
      7          1           0       -2.501269   -1.045046   -0.881925
      8          8           0       -0.944129    1.504106   -0.000082
 ---------------------------------------------------------------------

 SCF Done:  E(UHF) =  -947.690958500     A.U. after    2 cycles

 The electronic state is 2-A.
 Alpha  occ. eigenvalues --  -94.00661 -93.99399 -20.57766 -11.39555 -11.27775
 Alpha  occ. eigenvalues --   -8.28711  -8.27462  -6.26416  -6.26397  -6.26377
 Alpha  occ. eigenvalues --   -6.26186  -6.24929  -6.24499  -1.52195  -1.13598
 Alpha  occ. eigenvalues --   -1.05229  -0.91763  -0.76571  -0.67328  -0.66590
 Alpha  occ. eigenvalues --   -0.64311  -0.58421  -0.55562  -0.51735  -0.51517
 Alpha  occ. eigenvalues --   -0.44829  -0.38253  -0.37981
 Alpha virt. eigenvalues --    0.03081   0.04890   0.05232   0.06427   0.08175
 Alpha virt. eigenvalues --    0.09304   0.10968   0.11913   0.12157   0.12819
 Alpha virt. eigenvalues --    0.13661   0.13935   0.15079   0.15801   0.15930

  Beta  occ. eigenvalues --  -94.00497 -93.98565 -20.57628 -11.39658 -11.27773
  Beta  occ. eigenvalues --   -8.28521  -8.26505  -6.26380  -6.26111  -6.25621
  Beta  occ. eigenvalues --   -6.24468  -6.23985  -6.22688  -1.51917  -1.10965
  Beta  occ. eigenvalues --   -1.04442  -0.86490  -0.75563  -0.67020  -0.66224
  Beta  occ. eigenvalues --   -0.64024  -0.58356  -0.54293  -0.49906  -0.44153
  Beta  occ. eigenvalues --   -0.42649  -0.36790
  Beta virt. eigenvalues --   -0.00631   0.03099   0.04910   0.05248   0.06652
  Beta virt. eigenvalues --    0.08328   0.09370   0.11376   0.11968   0.12904
  Beta virt. eigenvalues --    0.13103   0.14329   0.14447   0.15172   0.15881

 Mulliken charges and spin densities:
               1          2
     1  S    0.078097   0.927795
     2  S    0.056458   0.081842
     3  C    0.716401  -0.045290
     4  C   -0.450608   0.005442
     5  H    0.151920  -0.001156
     6  H    0.263765  -0.001004
     7  H    0.263755  -0.001006
     8  O   -1.079787   0.033377
 Sum of Mulliken charges =   0.00000   1.00000

 Dipole moment (field-independent basis, Debye):
    X=             -2.4053    Y=             -1.8111    Z=              0.0000  Tot=              3.0109
                          Isotropic Fermi Contact Couplings
        Atom                 a.u.       MegaHertz       Gauss      10(-4) cm-1
     1  S(33)              0.18680      64.15937      22.89366      21.40126
     2  S(33)              0.06628      22.76393       8.12274       7.59323
     3  C(13)             -0.01313     -14.75624      -5.26539      -4.92215
     4  C(13)             -0.00068      -0.76516      -0.27303      -0.25523
     5  H(1)              -0.00037      -1.66994      -0.59587      -0.55703
     6  H(1)              -0.00003      -0.13260      -0.04731      -0.04423
     7  H(1)              -0.00003      -0.13373      -0.04772      -0.04461
     8  O(17)              0.00955      -5.78911      -2.06570      -1.93104

 Normal termination of Gaussian 16 at Wed Apr  9 00:50:06 2025.
