 Gaussian 16, Revision C.01,

 ----------------------------------------------------------------------
 #t hf aug-cc-pvdz symm=none int=(grid=ultrafine) guess=(read,tcheck) s
 table=(opt,rrhf)
 ----------------------------------------------------------------------
 -----
 title
 -----
 Symbolic Z-matrix:
 Charge =  0 Multiplicity = 1

 SCF Done:  E(RHF) =  -747.977669284     A.U. after   13 cycles
 Normal termination of Gaussian 16 at Wed Apr  9 00:11:36 2025.
 Gaussian 16:  ES64L-G16RevC.01  3-Jul-2019

 ----------------------------------------------------------------------
 #t hf aug-cc-pvdz iop(5/13=1,5/36=2,99/5=2) pseudo=read geom=check gue
 ss=(read,tcheck) scf=(maxcycle=1)
 ----------------------------------------------------------------------
 -----
 title
 -----
 Structure from the checkpoint file:  "BDE49_nonexpt_2396_mol1.chk"
 Charge =  0 Multiplicity = 1

                         Standard orientation:
 ---------------------------------------------------------------------
 Center     Atomic      Atomic             Coordinates (Angstroms)
 Number     Number       Type             X           Y           Z
 ---------------------------------------------------------------------
      1         14           0       -1.873757   -0.765839   -0.048733
      2         14           0       -0.392118    1.056930    0.178139
      3          1           0       -3.190863   -0.316784    0.462242
      4          1           0       -1.393408   -1.916747    0.746036
      5          1           0       -1.993786   -1.141471   -1.474924
      6          8           0        1.161721    0.674570   -0.452987
      7          1           0       -0.198668    1.454443    1.589417
      8          1           0       -0.769672    2.225438   -0.637018
      9          6           0        1.925089   -0.287627   -0.081073
     10          7           0        2.632049   -1.150135    0.230413
 ---------------------------------------------------------------------

 SCF Done:  E(RHF) =  -748.205353704     A.U. after    2 cycles

 The electronic state is 1-A.
 Alpha  occ. eigenvalues --  -69.60356 -69.55352 -20.63528 -15.50569 -11.34705
 Alpha  occ. eigenvalues --   -6.26979  -6.22585  -4.02435  -4.02256  -4.02224
 Alpha  occ. eigenvalues --   -3.97949  -3.97936  -3.97928  -1.55829  -1.22792
 Alpha  occ. eigenvalues --   -0.88416  -0.78444  -0.70776  -0.66968  -0.65197
 Alpha  occ. eigenvalues --   -0.60383  -0.53675  -0.51743  -0.50918  -0.48694
 Alpha  occ. eigenvalues --   -0.47342  -0.43505
 Alpha virt. eigenvalues --    0.03068   0.03145   0.04096   0.05041   0.06214
 Alpha virt. eigenvalues --    0.06844   0.07063   0.07929   0.08476   0.09034
 Alpha virt. eigenvalues --    0.09269   0.10727   0.12159   0.12344   0.13653

 Mulliken charges:
               1
     1  Si   0.307314
     2  Si   1.185303
     3  H   -0.107156
     4  H   -0.088056
     5  H   -0.123895
     6  O   -1.273162
     7  H   -0.137558
     8  H   -0.110847
     9  C   -0.280484
    10  N    0.628542
 Sum of Mulliken charges =  -0.00000

 Dipole moment (field-independent basis, Debye):
    X=             -4.7702    Y=              2.8424    Z=             -0.3327  Tot=              5.5628

 Test job not archived.
 1\1\GINC-SE343\SP\RHF\Aug-CC-pVDZ\C1H5N1O1Si2\OHZDE\09-Apr-2025\0\\#t
 hf aug-cc-pvdz iop(5/13=1,5/36=2,99/5=2) pseudo=read geom=check guess=
 (read,tcheck) scf=(maxcycle=1)\\title\\0,1\Si,0,-1.873757,-0.765839,-0
 .048733\Si,0,-0.392118,1.05693,0.178139\H,0,-3.190863,-0.316784,0.4622
 42\H,0,-1.393408,-1.916747,0.746036\H,0,-1.993786,-1.141471,-1.474924\
 O,0,1.161721,0.67457,-0.452987\H,0,-0.198668,1.454443,1.589417\H,0,-0.
 769672,2.225438,-0.637018\C,0,1.925089,-0.287627,-0.081073\N,0,2.63204
 9,-1.150135,0.230413\\Version=ES64L-G16RevC.01\State=1-A\HF=-748.20535

 Normal termination of Gaussian 16 at Wed Apr  9 00:11:40 2025.
