 Gaussian 16, Revision C.01,

 ----------------------------------------------------------------------
 #t hf aug-cc-pvdz symm=none int=(grid=ultrafine) guess=(read,tcheck) s
 table=(opt,rrhf)
 ----------------------------------------------------------------------
 -----
 title
 -----
 Symbolic Z-matrix:
 Charge =  0 Multiplicity = 1

 SCF Done:  E(RHF) =  -213.794556625     A.U. after   13 cycles
 Normal termination of Gaussian 16 at Tue Apr  8 22:56:34 2025.
 Gaussian 16:  ES64L-G16RevC.01  3-Jul-2019

 ----------------------------------------------------------------------
 #t hf aug-cc-pvdz iop(5/13=1,5/36=2,99/5=2) pseudo=read geom=check gue
 ss=(read,tcheck) scf=(maxcycle=1)
 ----------------------------------------------------------------------
 -----
 title
 -----
 Structure from the checkpoint file:  "BDE49_expt_1904_mol1.chk"
 Charge =  0 Multiplicity = 1

                         Standard orientation:
 ---------------------------------------------------------------------
 Center     Atomic      Atomic             Coordinates (Angstroms)
 Number     Number       Type             X           Y           Z
 ---------------------------------------------------------------------
      1          8           0        0.000000    0.626387    0.000000
      2          9           0        1.180668   -0.211367    0.000000
      3          6           0       -1.083950   -0.281348    0.000000
      4          1           0       -1.082840   -0.899745    0.901369
      5          1           0       -1.956637    0.378790    0.000000
      6          1           0       -1.082840   -0.899745   -0.901369
 ---------------------------------------------------------------------

 SCF Done:  E(RHF) =  -214.002100289     A.U. after    2 cycles

 The electronic state is 1-A'.
 Alpha  occ. eigenvalues --  -26.49608 -20.67472 -11.31577  -1.64955  -1.36482
 Alpha  occ. eigenvalues --   -0.95171  -0.71562  -0.70391  -0.69287  -0.61231
 Alpha  occ. eigenvalues --   -0.57598  -0.55842  -0.48503
 Alpha virt. eigenvalues --    0.03354   0.05293   0.05471   0.09055   0.13630
 Alpha virt. eigenvalues --    0.14278   0.15053   0.16615   0.20561   0.23707
 Alpha virt. eigenvalues --    0.24521   0.26272   0.26455   0.29134   0.31724

 Mulliken charges:
               1
     1  O   -0.389561
     2  F   -0.400617
     3  C    0.384307
     4  H    0.162522
     5  H    0.080827
     6  H    0.162522
 Sum of Mulliken charges =  -0.00000

 Dipole moment (field-independent basis, Debye):
    X=             -2.4896    Y=             -0.7929    Z=              0.0000  Tot=              2.6128

 Test job not archived.
 1\1\GINC-SE455\SP\RHF\Aug-CC-pVDZ\C1H3F1O1\OHZDE\08-Apr-2025\0\\#t hf
 aug-cc-pvdz iop(5/13=1,5/36=2,99/5=2) pseudo=read geom=check guess=(re
 ad,tcheck) scf=(maxcycle=1)\\title\\0,1\O,0,0.,0.626387,0.\F,0,1.18066
 8,-0.211368,0.\C,0,-1.08395,-0.281348,0.\H,0,-1.08284,-0.899745,0.9013
 69\H,0,-1.956637,0.37879,0.\H,0,-1.08284,-0.899745,-0.901369\\Version=
 ES64L-G16RevC.01\State=1-A'\HF=-214.0021003\RMSD=6.543e-03\Dipole=-0.9
 794857,-0.3119652,0.\Quadrupole=0.5874272,-0.4142647,-0.1731625,0.1017
 684,0.,0.\PG=CS [SG(C1H1F1O1),X(H2)]\\@

 Normal termination of Gaussian 16 at Tue Apr  8 22:56:36 2025.
