 Gaussian 16, Revision C.01,

 ----------------------------------------------------------------------
 #t hf aug-cc-pvdz symm=none int=(grid=ultrafine) guess=(read,tcheck) s
 table=(opt,rrhf)
 ----------------------------------------------------------------------
 -----
 title
 -----
 Symbolic Z-matrix:
 Charge =  0 Multiplicity = 1

 SCF Done:  E(RHF) =  -546.074895031     A.U. after   15 cycles
 Normal termination of Gaussian 16 at Wed Apr  9 00:48:21 2025.
 Gaussian 16:  ES64L-G16RevC.01  3-Jul-2019

 ----------------------------------------------------------------------
 #t hf aug-cc-pvdz iop(5/13=1,5/36=2,99/5=2) pseudo=read geom=check gue
 ss=(read,tcheck) scf=(maxcycle=1)
 ----------------------------------------------------------------------
 -----
 title
 -----
 Structure from the checkpoint file:  "BDE49_nonexpt_849_mol1.chk"
 Charge =  0 Multiplicity = 1

                         Standard orientation:
 ---------------------------------------------------------------------
 Center     Atomic      Atomic             Coordinates (Angstroms)
 Number     Number       Type             X           Y           Z
 ---------------------------------------------------------------------
      1         14           0       -3.054181   -0.188058    0.000024
      2          5           0       -1.356438    0.911270   -0.000118
      3          6           0        0.092770    0.396426   -0.000055
      4          6           0        1.168197    1.314461   -0.000008
      5          6           0        0.415921   -0.979092   -0.000044
      6          6           0        1.735529   -1.413874    0.000005
      7          6           0        2.772655   -0.480295    0.000049
      8          6           0        2.489665    0.886221    0.000043
      9          1           0        3.803342   -0.818388    0.000088
     10          1           0        3.299053    1.607636    0.000077
     11          1           0        0.947378    2.376364   -0.000015
     12          1           0       -0.384706   -1.710180   -0.000077
     13          1           0        1.961184   -2.474317    0.000010
     14          1           0       -1.516549    2.098096    0.000050
     15          1           0       -2.877978   -1.664155    0.000036
     16          1           0       -3.869784    0.159141   -1.195041
     17          1           0       -3.869631    0.159181    1.195183
 ---------------------------------------------------------------------

 SCF Done:  E(RHF) =  -546.373633105     A.U. after    2 cycles

 The electronic state is 1-A.
 Alpha  occ. eigenvalues --  -69.50750 -11.26417 -11.25915 -11.25901 -11.24991
 Alpha  occ. eigenvalues --  -11.24968 -11.22864  -7.59684  -6.18022  -3.93396
 Alpha  occ. eigenvalues --   -3.93387  -3.93344  -1.16076  -1.02679  -1.02575
 Alpha  occ. eigenvalues --   -0.84939  -0.84118  -0.76457  -0.72341  -0.66960
 Alpha  occ. eigenvalues --   -0.65033  -0.62886  -0.60919  -0.56112  -0.51906
 Alpha  occ. eigenvalues --   -0.51272  -0.49287  -0.47678  -0.46575  -0.41269
 Alpha  occ. eigenvalues --   -0.36009  -0.35519
 Alpha virt. eigenvalues --    0.02945   0.03103   0.03384   0.03896   0.04709
 Alpha virt. eigenvalues --    0.05153   0.05444   0.06415   0.07596   0.07632
 Alpha virt. eigenvalues --    0.07901   0.09446   0.09476   0.10030   0.10095

 Mulliken charges:
               1
     1  Si   0.403404
     2  B   -0.542952
     3  C   -0.139781
     4  C    0.240491
     5  C    0.559085
     6  C    0.251980
     7  C    0.374439
     8  C    0.292808
     9  H   -0.207381
    10  H   -0.211460
    11  H   -0.317211
    12  H   -0.287085
    13  H   -0.227563
    14  H    0.157565
    15  H   -0.116336
    16  H   -0.115009
    17  H   -0.114995
 Sum of Mulliken charges =  -0.00000

 Dipole moment (field-independent basis, Debye):
    X=              2.1753    Y=             -0.1645    Z=             -0.0001  Tot=              2.1815

 Test job not archived.
 1\1\GINC-SE125\SP\RHF\Aug-CC-pVDZ\C6H9B1Si1\OHZDE\09-Apr-2025\0\\#t hf
  aug-cc-pvdz iop(5/13=1,5/36=2,99/5=2) pseudo=read geom=check guess=(r
 ead,tcheck) scf=(maxcycle=1)\\title\\0,1\Si,0,-3.054181,-0.188058,0.00
 0024\B,0,-1.356438,0.91127,-0.000118\C,0,0.09277,0.396426,-0.000055\C,
 0,1.168197,1.314461,-0.000008\C,0,0.415921,-0.979092,-0.000044\C,0,1.7
 35529,-1.413874,0.000005\C,0,2.772655,-0.480295,0.000049\C,0,2.489665,
 0.886221,0.000043\H,0,3.803342,-0.818388,0.000088\H,0,3.299053,1.60763
 6,0.000077\H,0,0.947378,2.376364,-0.000015\H,0,-0.384706,-1.71018,-0.0

 Normal termination of Gaussian 16 at Wed Apr  9 00:48:29 2025.
