 Gaussian 16, Revision C.01,

 ----------------------------------------------------------------------
 #t hf aug-cc-pvdz symm=none int=(grid=ultrafine) guess=(read,tcheck) s
 table=(opt,rrhf)
 ----------------------------------------------------------------------
 -----
 title
 -----
 Symbolic Z-matrix:
 Charge =  0 Multiplicity = 1

 SCF Done:  E(RHF) =  -519.511047838     A.U. after   15 cycles
 Normal termination of Gaussian 16 at Wed Apr  9 00:42:26 2025.
 Gaussian 16:  ES64L-G16RevC.01  3-Jul-2019

 ----------------------------------------------------------------------
 #t hf aug-cc-pvdz iop(5/13=1,5/36=2,99/5=2) pseudo=read geom=check gue
 ss=(read,tcheck) scf=(maxcycle=1)
 ----------------------------------------------------------------------
 -----
 title
 -----
 Structure from the checkpoint file:  "BDE49_nonexpt_709_mol1.chk"
 Charge =  0 Multiplicity = 1

                         Standard orientation:
 ---------------------------------------------------------------------
 Center     Atomic      Atomic             Coordinates (Angstroms)
 Number     Number       Type             X           Y           Z
 ---------------------------------------------------------------------
      1          6           0        1.340731    1.290316    0.135818
      2          6           0        0.869850   -0.138238   -0.033460
      3          1           0        2.430831    1.305298    0.141795
      4          1           0        0.949991    1.730220    1.056358
      5          1           0        0.974874    1.894320   -0.699436
      6          5           0       -2.076657    0.719738   -0.418853
      7          8           0        1.593415   -1.044983   -0.355404
      8         15           0       -0.929812   -0.503636    0.352798
      9          1           0       -3.141791    0.351587   -0.794745
     10          1           0       -1.797462    1.875039   -0.403902
     11          1           0       -1.096786   -1.753211   -0.268692
 ---------------------------------------------------------------------

 SCF Done:  E(RHF) =  -519.736753782     A.U. after    2 cycles

 The electronic state is 1-A.
 Alpha  occ. eigenvalues --  -84.27307 -20.55340 -11.36362 -11.25833  -7.62450
 Alpha  occ. eigenvalues --   -6.74993  -4.27680  -4.27624  -4.26624  -1.49004
 Alpha  occ. eigenvalues --   -1.03555  -0.91309  -0.76321  -0.69855  -0.64289
 Alpha  occ. eigenvalues --   -0.63383  -0.61973  -0.55206  -0.53001  -0.52077
 Alpha  occ. eigenvalues --   -0.48518  -0.39679  -0.33930
 Alpha virt. eigenvalues --    0.03048   0.03445   0.03805   0.04502   0.05662
 Alpha virt. eigenvalues --    0.06600   0.07557   0.08081   0.09248   0.09863
 Alpha virt. eigenvalues --    0.10488   0.12086   0.12764   0.12922   0.14040

 Mulliken charges:
               1
     1  C   -0.503482
     2  C    0.445229
     3  H    0.116974
     4  H    0.252961
     5  H    0.266220
     6  B   -0.264574
     7  O   -1.198115
     8  P   -0.047637
     9  H    0.290645
    10  H    0.310155
    11  H    0.331624
 Sum of Mulliken charges =   0.00000

 Dipole moment (field-independent basis, Debye):
    X=             -1.1225    Y=              1.9810    Z=              0.3468  Tot=              2.3032

 Test job not archived.
 1\1\GINC-SE127\SP\RHF\Aug-CC-pVDZ\C2H6B1O1P1\OHZDE\09-Apr-2025\0\\#t h
 f aug-cc-pvdz iop(5/13=1,5/36=2,99/5=2) pseudo=read geom=check guess=(
 read,tcheck) scf=(maxcycle=1)\\title\\0,1\C,0,-1.340731,1.290316,-0.13
 5818\C,0,-0.86985,-0.138238,0.03346\H,0,-2.430831,1.305298,-0.141795\H
 ,0,-0.949991,1.73022,-1.056358\H,0,-0.974874,1.89432,0.699436\B,0,2.07
 6657,0.719738,0.418853\O,0,-1.593415,-1.044983,0.355404\P,0,0.929812,-
 0.503636,-0.352798\H,0,3.141791,0.351587,0.794745\H,0,1.797462,1.87503
 9,0.403902\H,0,1.096786,-1.753211,0.268692\\Version=ES64L-G16RevC.01\S

 Normal termination of Gaussian 16 at Wed Apr  9 00:42:30 2025.
