 Gaussian 16, Revision C.01,

 ----------------------------------------------------------------------
 #t hf aug-cc-pvdz symm=none int=(grid=ultrafine) guess=(read,tcheck) s
 table=opt
 ----------------------------------------------------------------------
 -----
 title
 -----
 Symbolic Z-matrix:
 Charge =  0 Multiplicity = 2

 SCF Done:  E(UHF) =  -297.881560277     A.U. after   17 cycles

 1\1\GINC-SE097\Stability\UHF\Aug-CC-pVDZ\C7H14B1\OHZDE\09-Apr-2025\0\\
 #t hf aug-cc-pvdz symm=none int=(grid=ultrafine) guess=(read,tcheck) s
 table=opt\\title\\0,2\C,0,0.23287,-1.34514,0.162378\C,0,1.685676,-1.10
 8037,-0.274233\C,0,2.214177,0.241199,0.232415\C,0,1.295219,1.395236,-0
 .192131\C,0,-0.155849,1.150123,0.244001\C,0,-2.149314,-0.425823,0.2033
 14\C,0,-0.698962,-0.197021,-0.263812\B,0,-3.2693,0.49269,-0.321116\H,0
 ,-4.413542,0.528402,0.01325\H,0,0.194146,-1.445442,1.256114\H,0,-0.134
 248,-2.293121,-0.24759\H,0,1.740112,-1.127424,-1.370485\H,0,2.323372,-

 Normal termination of Gaussian 16 at Wed Apr  9 00:39:02 2025.
 Gaussian 16:  ES64L-G16RevC.01  3-Jul-2019

 ----------------------------------------------------------------------
 #t hf aug-cc-pvdz iop(5/13=1,5/36=2,99/5=2) pseudo=read geom=check gue
 ss=(read,tcheck) scf=(maxcycle=1)
 ----------------------------------------------------------------------
 -----
 title
 -----
 Structure from the checkpoint file:  "BDE49_nonexpt_540_mol2.chk"
 Charge =  0 Multiplicity = 2

                         Standard orientation:
 ---------------------------------------------------------------------
 Center     Atomic      Atomic             Coordinates (Angstroms)
 Number     Number       Type             X           Y           Z
 ---------------------------------------------------------------------
      1          6           0        0.232870   -1.345140    0.162378
      2          6           0        1.685676   -1.108037   -0.274233
      3          6           0        2.214177    0.241199    0.232415
      4          6           0        1.295219    1.395236   -0.192131
      5          6           0       -0.155849    1.150123    0.244001
      6          6           0       -2.149314   -0.425823    0.203314
      7          6           0       -0.698962   -0.197021   -0.263812
      8          5           0       -3.269300    0.492690   -0.321116
      9          1           0       -4.413542    0.528402    0.013250
     10          1           0        0.194146   -1.445442    1.256114
     11          1           0       -0.134248   -2.293121   -0.247590
     12          1           0        1.740112   -1.127424   -1.370485
     13          1           0        2.323372   -1.923784    0.081838
     14          1           0        3.231787    0.411709   -0.133801
     15          1           0        2.277409    0.215032    1.328202
     16          1           0        1.329964    1.501487   -1.284064
     17          1           0        1.657393    2.341511    0.222855
     18          1           0       -0.801974    1.961394   -0.110423
     19          1           0       -0.210994    1.162527    1.341934
     20          1           0       -2.193874   -0.467149    1.305418
     21          1           0       -2.491119   -1.433428   -0.107307
     22          1           0       -0.704838   -0.158382   -1.361955
 ---------------------------------------------------------------------

 SCF Done:  E(UHF) =  -298.205886918     A.U. after    2 cycles

 The electronic state is 2-A.
 Alpha  occ. eigenvalues --  -11.23049 -11.22282 -11.22248 -11.22227 -11.22203
 Alpha  occ. eigenvalues --  -11.22164 -11.21543  -7.61339  -1.12193  -1.03404
 Alpha  occ. eigenvalues --   -1.00041  -0.93112  -0.83391  -0.81173  -0.75530
 Alpha  occ. eigenvalues --   -0.66916  -0.65174  -0.61390  -0.60873  -0.59670
 Alpha  occ. eigenvalues --   -0.55943  -0.55006  -0.53198  -0.51718  -0.49049
 Alpha  occ. eigenvalues --   -0.48509  -0.47756  -0.45465  -0.43564  -0.42981
 Alpha  occ. eigenvalues --   -0.32083
 Alpha virt. eigenvalues --    0.02927   0.03143   0.03398   0.03880   0.04805
 Alpha virt. eigenvalues --    0.05095   0.05440   0.05904   0.06365   0.07526
 Alpha virt. eigenvalues --    0.08308   0.08427   0.09098   0.09545   0.10226

  Beta  occ. eigenvalues --  -11.22977 -11.22284 -11.22249 -11.22227 -11.22206
  Beta  occ. eigenvalues --  -11.22157 -11.21553  -7.59605  -1.12124  -1.03171
  Beta  occ. eigenvalues --   -1.00031  -0.92619  -0.83366  -0.80860  -0.75454
  Beta  occ. eigenvalues --   -0.65118  -0.63483  -0.61235  -0.60741  -0.58886
  Beta  occ. eigenvalues --   -0.55578  -0.54332  -0.53180  -0.51287  -0.48889
  Beta  occ. eigenvalues --   -0.48255  -0.47471  -0.45401  -0.43355  -0.42753
  Beta virt. eigenvalues --    0.02979   0.03197   0.03269   0.03815   0.04948
  Beta virt. eigenvalues --    0.05071   0.05316   0.05910   0.06371   0.07479
  Beta virt. eigenvalues --    0.08182   0.08571   0.09242   0.09554   0.10178

 Mulliken charges and spin densities:
               1          2
     1  C    0.029715   0.010073
     2  C   -0.255147  -0.003863
     3  C   -0.241627   0.000482
     4  C   -0.263395   0.003053
     5  C   -0.148883   0.054092
     6  C    0.234936   0.002206
     7  C   -0.915377  -0.118770
     8  B   -0.606935   1.033773
     9  H    0.434424   0.010228
    10  H    0.189001  -0.001660
    11  H    0.089944   0.002250
    12  H    0.161213  -0.000308
    13  H    0.103981  -0.000303
    14  H    0.098079  -0.000221
    15  H    0.152110   0.000176
    16  H    0.163782   0.000934
    17  H    0.101198   0.000138
    18  H    0.082434   0.005225
    19  H    0.168762   0.000971
    20  H    0.126605   0.018766
    21  H    0.159885  -0.008190
    22  H    0.135296  -0.009053
 Sum of Mulliken charges =  -0.00000   1.00000

 Dipole moment (field-independent basis, Debye):
    X=              0.4783    Y=             -0.6836    Z=              0.5170  Tot=              0.9815
                          Isotropic Fermi Contact Couplings
        Atom                 a.u.       MegaHertz       Gauss      10(-4) cm-1
     1  C(13)             -0.00157      -1.76729      -0.63061      -0.58951
     2  C(13)             -0.00034      -0.38294      -0.13664      -0.12774
     3  C(13)              0.00027       0.30752       0.10973       0.10258
     4  C(13)             -0.00031      -0.34943      -0.12469      -0.11656
     5  C(13)              0.00101       1.13270       0.40417       0.37783
     6  C(13)              0.00398       4.46876       1.59457       1.49062
     7  C(13)              0.01901      21.37309       7.62645       7.12929
     8  B(11)              0.23570     338.07838     120.63477     112.77081

 Normal termination of Gaussian 16 at Wed Apr  9 00:39:15 2025.
