 Gaussian 16, Revision C.01,

 ----------------------------------------------------------------------
 #t hf aug-cc-pvdz symm=none int=(grid=ultrafine) guess=(read,tcheck) s
 table=(opt,rrhf)
 ----------------------------------------------------------------------
 -----
 title
 -----
 Symbolic Z-matrix:
 Charge =  0 Multiplicity = 1

 SCF Done:  E(RHF) =  -633.163107256     A.U. after   12 cycles
 Normal termination of Gaussian 16 at Wed Apr  9 00:05:35 2025.
 Gaussian 16:  ES64L-G16RevC.01  3-Jul-2019

 ----------------------------------------------------------------------
 #t hf aug-cc-pvdz iop(5/13=1,5/36=2,99/5=2) pseudo=read geom=check gue
 ss=(read,tcheck) scf=(maxcycle=1)
 ----------------------------------------------------------------------
 -----
 title
 -----
 Structure from the checkpoint file:  "BDE49_nonexpt_2213_mol1.chk"
 Charge =  0 Multiplicity = 1

                         Standard orientation:
 ---------------------------------------------------------------------
 Center     Atomic      Atomic             Coordinates (Angstroms)
 Number     Number       Type             X           Y           Z
 ---------------------------------------------------------------------
      1         14           0        0.914883    0.050465   -0.006510
      2          8           0        1.878171    1.381236   -0.014846
      3          8           0        1.239321   -0.948609    1.271471
      4          1           0        2.798527    1.260095   -0.261487
      5          6           0       -0.830909    0.689691   -0.003650
      6          6           0       -1.912881   -0.406296   -0.002507
      7          1           0       -0.949259    1.334235   -0.883329
      8          1           0       -0.960045    1.350411    0.863681
      9          6           0       -3.339515    0.151044   -0.013532
     10          1           0       -1.779981   -1.049783    0.874435
     11          1           0       -1.768418   -1.053002   -0.874762
     12          1           0       -3.526063    0.775679    0.865849
     13          1           0       -4.082619   -0.651704   -0.016002
     14          1           0       -3.513296    0.769373   -0.899623
     15          1           0        1.204071   -0.578553    2.156225
     16          8           0        1.235417   -0.890098   -1.316093
     17          1           0        1.445272   -1.810129   -1.139971
 ---------------------------------------------------------------------

 SCF Done:  E(RHF) =  -633.552948812     A.U. after    2 cycles

 The electronic state is 1-A.
 Alpha  occ. eigenvalues --  -69.58539 -20.54739 -20.54349 -20.54185 -11.23176
 Alpha  occ. eigenvalues --  -11.22181 -11.21316  -6.24661  -4.00172  -4.00151
 Alpha  occ. eigenvalues --   -3.99935  -1.45832  -1.42410  -1.41927  -1.05646
 Alpha  occ. eigenvalues --   -0.93078  -0.81330  -0.76560  -0.71057  -0.69743
 Alpha  occ. eigenvalues --   -0.63330  -0.60215  -0.58455  -0.57290  -0.55193
 Alpha  occ. eigenvalues --   -0.53984  -0.53471  -0.52033  -0.49952  -0.48602
 Alpha  occ. eigenvalues --   -0.48163  -0.47634  -0.43673
 Alpha virt. eigenvalues --    0.03137   0.04055   0.04120   0.04488   0.05943
 Alpha virt. eigenvalues --    0.06350   0.06811   0.07080   0.08675   0.08831
 Alpha virt. eigenvalues --    0.09416   0.10321   0.11051   0.12581   0.13542

 Mulliken charges:
               1
     1  Si   4.012656
     2  O   -1.548567
     3  O   -1.518736
     4  H    0.435465
     5  C   -0.603863
     6  C   -0.315622
     7  H    0.062717
     8  H    0.045814
     9  C   -0.376615
    10  H    0.065392
    11  H    0.087042
    12  H    0.163042
    13  H    0.120924
    14  H    0.164460
    15  H    0.361562
    16  O   -1.539364
    17  H    0.383694
 Sum of Mulliken charges =   0.00000

 Dipole moment (field-independent basis, Debye):
    X=              0.2863    Y=             -0.5330    Z=              1.2485  Tot=              1.3873

 Test job not archived.
 1\1\GINC-SE412\SP\RHF\Aug-CC-pVDZ\C3H10O3Si1\OHZDE\09-Apr-2025\0\\#t h
 f aug-cc-pvdz iop(5/13=1,5/36=2,99/5=2) pseudo=read geom=check guess=(
 read,tcheck) scf=(maxcycle=1)\\title\\0,1\Si,0,0.914883,0.050465,-0.00
 651\O,0,1.878171,1.381236,-0.014846\O,0,1.239321,-0.948609,1.271471\H,
 0,2.798527,1.260095,-0.261487\C,0,-0.830909,0.689691,-0.00365\C,0,-1.9
 12881,-0.406296,-0.002507\H,0,-0.949259,1.334235,-0.883329\H,0,-0.9600
 45,1.350411,0.863681\C,0,-3.339515,0.151044,-0.013532\H,0,-1.779981,-1
 .049783,0.874435\H,0,-1.768418,-1.053002,-0.874762\H,0,-3.526063,0.775

 Normal termination of Gaussian 16 at Wed Apr  9 00:05:41 2025.
