 Gaussian 16, Revision C.01,

 ----------------------------------------------------------------------
 #t hf aug-cc-pvdz symm=none int=(grid=ultrafine) guess=(read,tcheck) s
 table=(opt,rrhf)
 ----------------------------------------------------------------------
 -----
 title
 -----
 Symbolic Z-matrix:
 Charge =  0 Multiplicity = 1

 SCF Done:  E(RHF) =  -1105.82678463     A.U. after   15 cycles
 Normal termination of Gaussian 16 at Tue Apr  8 23:29:59 2025.
 Gaussian 16:  ES64L-G16RevC.01  3-Jul-2019

 ----------------------------------------------------------------------
 #t hf aug-cc-pvdz iop(5/13=1,5/36=2,99/5=2) pseudo=read geom=check gue
 ss=(read,tcheck) scf=(maxcycle=1)
 ----------------------------------------------------------------------
 -----
 title
 -----
 Structure from the checkpoint file:  "BDE49_nonexpt_1361_mol1.chk"
 Charge =  0 Multiplicity = 1

                         Standard orientation:
 ---------------------------------------------------------------------
 Center     Atomic      Atomic             Coordinates (Angstroms)
 Number     Number       Type             X           Y           Z
 ---------------------------------------------------------------------
      1          9           0       -2.632588    0.000007   -0.381943
      2         15           0       -1.262127    0.000007    0.478101
      3          6           0       -0.000005    1.278980   -0.000084
      4          8           0        0.000018    2.471752   -0.000042
      5          6           0       -0.000012   -1.278980   -0.000068
      6         15           0        1.262173   -0.000007   -0.478105
      7          8           0       -0.000009   -2.471752   -0.000045
      8          9           0        2.632515   -0.000007    0.382129
 ---------------------------------------------------------------------

 SCF Done:  E(RHF) =  -1106.30166280     A.U. after    2 cycles

 The electronic state is 1-A.
 Alpha  occ. eigenvalues --  -84.40985 -84.40953 -26.52006 -26.52005 -20.61267
 Alpha  occ. eigenvalues --  -20.61266 -11.41809 -11.41801  -6.87444  -6.87422
 Alpha  occ. eigenvalues --   -4.40456  -4.40405  -4.39409  -4.39212  -4.38738
 Alpha  occ. eigenvalues --   -4.38681  -1.62873  -1.62826  -1.54557  -1.54529
 Alpha  occ. eigenvalues --   -1.10441  -0.89692  -0.85647  -0.78119  -0.73186
 Alpha  occ. eigenvalues --   -0.72255  -0.70941  -0.69912  -0.69758  -0.69557
 Alpha  occ. eigenvalues --   -0.66355  -0.64959  -0.61962  -0.59615  -0.53689
 Alpha  occ. eigenvalues --   -0.41989  -0.39383  -0.35807
 Alpha virt. eigenvalues --   -0.00689   0.05758   0.06109   0.06313   0.06961
 Alpha virt. eigenvalues --    0.07599   0.07970   0.08464   0.08468   0.11039
 Alpha virt. eigenvalues --    0.12114   0.12553   0.14394   0.15333   0.15465

 Mulliken charges:
               1
     1  F   -0.761848
     2  P    1.899784
     3  C    0.008403
     4  O   -1.146344
     5  C    0.008403
     6  P    1.899808
     7  O   -1.146344
     8  F   -0.761862
 Sum of Mulliken charges =  -0.00000

 Dipole moment (field-independent basis, Debye):
    X=             -0.0001    Y=             -0.0000    Z=              0.0000  Tot=              0.0001

 Test job not archived.
 1\1\GINC-SE120\SP\RHF\Aug-CC-pVDZ\C2F2O2P2\OHZDE\08-Apr-2025\0\\#t hf
 aug-cc-pvdz iop(5/13=1,5/36=2,99/5=2) pseudo=read geom=check guess=(re
 ad,tcheck) scf=(maxcycle=1)\\title\\0,1\F,0,-2.632588,0.000009,-0.3819
 43\P,0,-1.262127,0.000008,0.478101\C,0,-0.000004,1.27898,-0.000084\O,0
 ,0.00002,2.471752,-0.000042\C,0,-0.000013,-1.27898,-0.000068\P,0,1.262
 173,-0.000008,-0.478105\O,0,-0.000011,-2.471752,-0.000045\F,0,2.632515
 ,-0.000009,0.382129\\Version=ES64L-G16RevC.01\State=1-A\HF=-1106.30166
 28\RMSD=1.475e-02\Dipole=-0.0000273,0.,0.0000137\Quadrupole=2.2594004,

 Normal termination of Gaussian 16 at Tue Apr  8 23:30:03 2025.
