 Gaussian 16, Revision C.01,

 ----------------------------------------------------------------------
 #t hf aug-cc-pvdz symm=none int=(grid=ultrafine) guess=(read,tcheck) s
 table=(opt,rrhf)
 ----------------------------------------------------------------------
 -----
 title
 -----
 Symbolic Z-matrix:
 Charge =  0 Multiplicity = 1

 SCF Done:  E(RHF) =  -505.425757812     A.U. after   12 cycles
 Normal termination of Gaussian 16 at Wed Apr  9 00:46:59 2025.
 Gaussian 16:  ES64L-G16RevC.01  3-Jul-2019

 ----------------------------------------------------------------------
 #t hf aug-cc-pvdz iop(5/13=1,5/36=2,99/5=2) pseudo=read geom=check gue
 ss=(read,tcheck) scf=(maxcycle=1)
 ----------------------------------------------------------------------
 -----
 title
 -----
 Structure from the checkpoint file:  "BDE49_nonexpt_835_mol1.chk"
 Charge =  0 Multiplicity = 1

                         Standard orientation:
 ---------------------------------------------------------------------
 Center     Atomic      Atomic             Coordinates (Angstroms)
 Number     Number       Type             X           Y           Z
 ---------------------------------------------------------------------
      1         14           0        0.907070   -0.618837    0.271837
      2          5           0       -1.001298    0.053888    0.020708
      3          8           0       -2.069188   -0.729010   -0.334656
      4          8           0       -1.234082    1.379786    0.230456
      5          6           0        2.193100    0.585370   -0.400218
      6          1           0        2.072601    0.723869   -1.477926
      7          1           0        3.209390    0.229129   -0.214186
      8          1           0        2.078876    1.562371    0.076391
      9          1           0       -2.163517    1.611668    0.102179
     10          1           0       -1.838959   -1.649356   -0.484412
     11          1           0        1.057084   -1.944509   -0.395745
     12          1           0        1.159597   -0.857311    1.719352
 ---------------------------------------------------------------------

 SCF Done:  E(RHF) =  -505.679799303     A.U. after    2 cycles

 The electronic state is 1-A.
 Alpha  occ. eigenvalues --  -69.50957 -20.56605 -20.55843 -11.21616  -7.64103
 Alpha  occ. eigenvalues --   -6.18190  -3.93553  -3.93539  -3.93503  -1.48564
 Alpha  occ. eigenvalues --   -1.44149  -0.94930  -0.78170  -0.74452  -0.69863
 Alpha  occ. eigenvalues --   -0.60851  -0.57415  -0.56602  -0.56135  -0.55690
 Alpha  occ. eigenvalues --   -0.49471  -0.46687  -0.45888  -0.41635
 Alpha virt. eigenvalues --    0.03452   0.04108   0.04123   0.04967   0.06552
 Alpha virt. eigenvalues --    0.06714   0.07068   0.07913   0.08143   0.10044
 Alpha virt. eigenvalues --    0.10187   0.10827   0.11489   0.12866   0.14059

 Mulliken charges:
               1
     1  Si   0.866446
     2  B    1.459517
     3  O   -1.302185
     4  O   -1.247159
     5  C   -0.637810
     6  H    0.098274
     7  H   -0.020659
     8  H    0.107059
     9  H    0.523581
    10  H    0.538248
    11  H   -0.168707
    12  H   -0.216605
 Sum of Mulliken charges =  -0.00000

 Dipole moment (field-independent basis, Debye):
    X=             -0.4729    Y=             -0.6111    Z=             -0.6495  Tot=              1.0094

 Test job not archived.
 1\1\GINC-SE340\SP\RHF\Aug-CC-pVDZ\C1H7B1O2Si1\OHZDE\09-Apr-2025\0\\#t
 hf aug-cc-pvdz iop(5/13=1,5/36=2,99/5=2) pseudo=read geom=check guess=
 (read,tcheck) scf=(maxcycle=1)\\title\\0,1\Si,0,0.90707,-0.618837,0.27
 1837\B,0,-1.001298,0.053888,0.020708\O,0,-2.069188,-0.72901,-0.334656\
 O,0,-1.234082,1.379786,0.230456\C,0,2.1931,0.58537,-0.400218\H,0,2.072
 601,0.723869,-1.477926\H,0,3.20939,0.229129,-0.214186\H,0,2.078876,1.5
 62371,0.076391\H,0,-2.163517,1.611668,0.102179\H,0,-1.838959,-1.649356
 ,-0.484412\H,0,1.057084,-1.944509,-0.395745\H,0,1.159597,-0.857311,1.7

 Normal termination of Gaussian 16 at Wed Apr  9 00:47:03 2025.
