 Gaussian 16, Revision C.01,

 ----------------------------------------------------------------------
 #t hf aug-cc-pvdz symm=none int=(grid=ultrafine) guess=(read,tcheck) s
 table=(opt,rrhf)
 ----------------------------------------------------------------------
 -----
 title
 -----
 Symbolic Z-matrix:
 Charge =  0 Multiplicity = 1

 SCF Done:  E(RHF) =  -1280.01181521     A.U. after   12 cycles
 Normal termination of Gaussian 16 at Wed Apr  9 00:20:40 2025.
 Gaussian 16:  ES64L-G16RevC.01  3-Jul-2019

 ----------------------------------------------------------------------
 #t hf aug-cc-pvdz iop(5/13=1,5/36=2,99/5=2) pseudo=read geom=check gue
 ss=(read,tcheck) scf=(maxcycle=1)
 ----------------------------------------------------------------------
 -----
 title
 -----
 Structure from the checkpoint file:  "BDE49_nonexpt_261_mol1.chk"
 Charge =  0 Multiplicity = 1

                         Standard orientation:
 ---------------------------------------------------------------------
 Center     Atomic      Atomic             Coordinates (Angstroms)
 Number     Number       Type             X           Y           Z
 ---------------------------------------------------------------------
      1         17           0       -1.370356    1.519552   -0.009065
      2         17           0       -1.370326   -1.519566   -0.009076
      3          9           0        1.618144   -1.085545   -0.610561
      4          9           0        1.618144    1.085678   -0.610351
      5          9           0        1.508062   -0.000114    1.279050
      6          6           0        1.086990    0.000010   -0.012806
      7          5           0       -0.525898    0.000002   -0.027603
 ---------------------------------------------------------------------

 SCF Done:  E(RHF) =  -1280.49097162     A.U. after    2 cycles

 The electronic state is 1-A.
 Alpha  occ. eigenvalues -- -105.60910-105.60909 -26.51733 -26.51605 -26.51602
 Alpha  occ. eigenvalues --  -11.52043 -10.65955 -10.65924  -7.82845  -7.82824
 Alpha  occ. eigenvalues --   -7.82538  -7.82533  -7.82486  -7.82478  -7.75859
 Alpha  occ. eigenvalues --   -1.72032  -1.62101  -1.62061  -1.14698  -1.09448
 Alpha  occ. eigenvalues --   -0.97965  -0.84819  -0.81438  -0.81434  -0.70231
 Alpha  occ. eigenvalues --   -0.69574  -0.69486  -0.64869  -0.64680  -0.62936
 Alpha  occ. eigenvalues --   -0.61505  -0.59234  -0.55797  -0.50701  -0.50267
 Alpha  occ. eigenvalues --   -0.49572
 Alpha virt. eigenvalues --    0.03670   0.04586   0.05267   0.05317   0.05709
 Alpha virt. eigenvalues --    0.10951   0.12140   0.12284   0.12690   0.14273
 Alpha virt. eigenvalues --    0.15123   0.17775   0.17855   0.18685   0.19924

 Mulliken charges:
               1
     1  Cl  -0.219710
     2  Cl  -0.219727
     3  F   -0.732759
     4  F   -0.732760
     5  F   -0.731839
     6  C    1.962534
     7  B    0.674261
 Sum of Mulliken charges =  -0.00000

 Dipole moment (field-independent basis, Debye):
    X=             -1.3803    Y=              0.0000    Z=             -0.1479  Tot=              1.3882

 Test job not archived.
 1\1\GINC-SE332\SP\RHF\Aug-CC-pVDZ\C1B1Cl2F3\OHZDE\09-Apr-2025\0\\#t hf
  aug-cc-pvdz iop(5/13=1,5/36=2,99/5=2) pseudo=read geom=check guess=(r
 ead,tcheck) scf=(maxcycle=1)\\title\\0,1\Cl,0,-1.370356,1.519552,-0.00
 9065\Cl,0,-1.370326,-1.519566,-0.009076\F,0,1.618144,-1.085545,-0.6105
 61\F,0,1.618144,1.085678,-0.610351\F,0,1.508062,-0.000114,1.27905\C,0,
 1.08699,0.00001,-0.012806\B,0,-0.525898,0.000002,-0.027603\\Version=ES
 64L-G16RevC.01\State=1-A\HF=-1280.4909716\RMSD=3.112e-03\Dipole=-0.543
 0501,0.000012,-0.0582027\Quadrupole=-1.2412388,0.3821604,0.8590783,-0.

 Normal termination of Gaussian 16 at Wed Apr  9 00:20:42 2025.
