 Gaussian 16, Revision C.01,

 ----------------------------------------------------------------------
 #t hf aug-cc-pvdz symm=none int=(grid=ultrafine) guess=(read,tcheck) s
 table=(opt,rrhf)
 ----------------------------------------------------------------------
 -----
 title
 -----
 Symbolic Z-matrix:
 Charge =  0 Multiplicity = 1

 SCF Done:  E(RHF) =  -772.178800969     A.U. after   14 cycles
 Normal termination of Gaussian 16 at Wed Apr  9 00:10:03 2025.
 Gaussian 16:  ES64L-G16RevC.01  3-Jul-2019

 ----------------------------------------------------------------------
 #t hf aug-cc-pvdz iop(5/13=1,5/36=2,99/5=2) pseudo=read geom=check gue
 ss=(read,tcheck) scf=(maxcycle=1)
 ----------------------------------------------------------------------
 -----
 title
 -----
 Structure from the checkpoint file:  "BDE49_nonexpt_2343_mol1.chk"
 Charge =  0 Multiplicity = 1

                         Standard orientation:
 ---------------------------------------------------------------------
 Center     Atomic      Atomic             Coordinates (Angstroms)
 Number     Number       Type             X           Y           Z
 ---------------------------------------------------------------------
      1         14           0        2.219975   -0.708238   -0.088378
      2         14           0        0.806543    1.177488   -0.172619
      3          6           0       -1.559537   -0.355575    0.180060
      4          8           0       -1.085060   -1.466987    0.292773
      5          1           0        2.311619   -1.217386    1.299997
      6          1           0        1.748721   -1.781838   -0.989460
      7          1           0        3.579247   -0.294104   -0.522130
      8          6           0       -0.843203    0.857648    0.735538
      9          1           0       -0.581485    0.650911    1.778038
     10          1           0       -1.462248    1.757919    0.705614
     11          1           0        0.514639    1.548972   -1.581698
     12          1           0        1.454021    2.346302    0.475025
     13          6           0       -2.873411   -0.118822   -0.537040
     14          1           0       -3.238077   -1.053257   -0.961085
     15          1           0       -2.747292    0.627544   -1.327817
     16          1           0       -3.613015    0.281836    0.163945
 ---------------------------------------------------------------------

 SCF Done:  E(RHF) =  -772.446824010     A.U. after    2 cycles

 The electronic state is 1-A.
 Alpha  occ. eigenvalues --  -69.53434 -69.52071 -20.53642 -11.34898 -11.25017
 Alpha  occ. eigenvalues --  -11.24252  -6.20540  -6.19238  -3.95882  -3.95873
 Alpha  occ. eigenvalues --   -3.95850  -3.94594  -3.94592  -3.94586  -1.47240
 Alpha  occ. eigenvalues --   -1.05123  -0.97449  -0.77924  -0.74565  -0.68990
 Alpha  occ. eigenvalues --   -0.65719  -0.64896  -0.61156  -0.57525  -0.55858
 Alpha  occ. eigenvalues --   -0.52207  -0.49953  -0.48235  -0.47508  -0.45519
 Alpha  occ. eigenvalues --   -0.41360  -0.40604
 Alpha virt. eigenvalues --    0.02994   0.03965   0.04038   0.04263   0.05609
 Alpha virt. eigenvalues --    0.06119   0.06750   0.07077   0.07794   0.08797
 Alpha virt. eigenvalues --    0.09296   0.09762   0.10202   0.10598   0.10789

 Mulliken charges:
               1
     1  Si   0.269019
     2  Si   0.756145
     3  C    1.211695
     4  O   -1.344609
     5  H   -0.101474
     6  H   -0.045832
     7  H   -0.155134
     8  C   -0.494768
     9  H    0.187912
    10  H   -0.032982
    11  H   -0.110131
    12  H   -0.163643
    13  C   -0.612865
    14  H    0.129003
    15  H    0.242223
    16  H    0.265441
 Sum of Mulliken charges =  -0.00000

 Dipole moment (field-independent basis, Debye):
    X=             -1.6286    Y=              2.5463    Z=             -0.0248  Tot=              3.0227

 Test job not archived.
 1\1\GINC-SE072\SP\RHF\Aug-CC-pVDZ\C3H10O1Si2\OHZDE\09-Apr-2025\0\\#t h
 f aug-cc-pvdz iop(5/13=1,5/36=2,99/5=2) pseudo=read geom=check guess=(
 read,tcheck) scf=(maxcycle=1)\\title\\0,1\Si,0,2.219975,-0.708238,-0.0
 88378\Si,0,0.806543,1.177488,-0.172619\C,0,-1.559537,-0.355575,0.18006
 \O,0,-1.08506,-1.466987,0.292773\H,0,2.311619,-1.217386,1.299997\H,0,1
 .748721,-1.781838,-0.98946\H,0,3.579247,-0.294104,-0.52213\C,0,-0.8432
 03,0.857648,0.735538\H,0,-0.581485,0.650911,1.778038\H,0,-1.462248,1.7
 57919,0.705614\H,0,0.514639,1.548972,-1.581698\H,0,1.454021,2.346302,0

 Normal termination of Gaussian 16 at Wed Apr  9 00:10:22 2025.
