 Gaussian 16, Revision C.01,

 ----------------------------------------------------------------------
 #t hf aug-cc-pvdz symm=none int=(grid=ultrafine) guess=(read,tcheck) s
 table=(opt,rrhf)
 ----------------------------------------------------------------------
 -----
 title
 -----
 Symbolic Z-matrix:
 Charge =  0 Multiplicity = 1

 SCF Done:  E(RHF) =  -628.562935598     A.U. after   14 cycles
 Normal termination of Gaussian 16 at Tue Apr  8 22:47:03 2025.
 Gaussian 16:  ES64L-G16RevC.01  3-Jul-2019

 ----------------------------------------------------------------------
 #t hf aug-cc-pvdz iop(5/13=1,5/36=2,99/5=2) pseudo=read geom=check gue
 ss=(read,tcheck) scf=(maxcycle=1)
 ----------------------------------------------------------------------
 -----
 title
 -----
 Structure from the checkpoint file:  "BDE49_expt_1607_mol1.chk"
 Charge =  0 Multiplicity = 1

                         Standard orientation:
 ---------------------------------------------------------------------
 Center     Atomic      Atomic             Coordinates (Angstroms)
 Number     Number       Type             X           Y           Z
 ---------------------------------------------------------------------
      1          6           0       -1.614199   -0.140712   -0.542642
      2         16           0       -0.096967   -1.040024   -0.047069
      3          6           0        1.086930    0.314671   -0.071035
      4          6           0        2.485028   -0.096693    0.340010
      5          6           0       -2.323457    0.549428    0.618520
      6          1           0       -2.247921   -0.893311   -1.015741
      7          1           0       -1.303960    0.579715   -1.300217
      8          1           0       -2.611063   -0.165343    1.392770
      9          1           0       -3.229808    1.047081    0.259274
     10          1           0       -1.678108    1.306286    1.066597
     11          8           0        0.788846    1.440309   -0.381510
     12          1           0        2.587384   -1.174331    0.470156
     13          1           0        2.729270    0.403670    1.280804
     14          1           0        3.189096    0.253970   -0.417581
 ---------------------------------------------------------------------

 SCF Done:  E(RHF) =  -628.864972426     A.U. after    2 cycles

 The electronic state is 1-A.
 Alpha  occ. eigenvalues --  -93.96036 -20.54564 -11.37358 -11.27300 -11.25665
 Alpha  occ. eigenvalues --  -11.23412  -8.24258  -6.22062  -6.21887  -6.21717
 Alpha  occ. eigenvalues --   -1.48708  -1.10203  -1.03766  -0.96796  -0.84529
 Alpha  occ. eigenvalues --   -0.74254  -0.67056  -0.64622  -0.62314  -0.61554
 Alpha  occ. eigenvalues --   -0.58735  -0.55801  -0.54862  -0.52199  -0.50712
 Alpha  occ. eigenvalues --   -0.46496  -0.40577  -0.37521
 Alpha virt. eigenvalues --    0.03686   0.03830   0.04424   0.04900   0.05972
 Alpha virt. eigenvalues --    0.06231   0.07222   0.08097   0.10387   0.11069
 Alpha virt. eigenvalues --    0.12246   0.12896   0.13031   0.13729   0.15070

 Mulliken charges:
               1
     1  C   -0.668282
     2  S    0.458755
     3  C    0.776120
     4  C   -0.471648
     5  C   -0.386726
     6  H    0.133534
     7  H    0.299116
     8  H    0.175812
     9  H    0.137547
    10  H    0.164401
    11  O   -1.278584
    12  H    0.184827
    13  H    0.251033
    14  H    0.224096
 Sum of Mulliken charges =   0.00000

 Dipole moment (field-independent basis, Debye):
    X=             -0.0136    Y=             -1.0689    Z=              0.3770  Tot=              1.1335

 Test job not archived.
 1\1\GINC-SE060\SP\RHF\Aug-CC-pVDZ\C4H8O1S1\OHZDE\08-Apr-2025\0\\#t hf
 aug-cc-pvdz iop(5/13=1,5/36=2,99/5=2) pseudo=read geom=check guess=(re
 ad,tcheck) scf=(maxcycle=1)\\title\\0,1\C,0,-1.614199,-0.140712,-0.542
 642\S,0,-0.096967,-1.040024,-0.047069\C,0,1.08693,0.314671,-0.071035\C
 ,0,2.485028,-0.096693,0.34001\C,0,-2.323457,0.549428,0.61852\H,0,-2.24
 7921,-0.893311,-1.015741\H,0,-1.30396,0.579715,-1.300217\H,0,-2.611063
 ,-0.165343,1.39277\H,0,-3.229808,1.047081,0.259274\H,0,-1.678108,1.306
 286,1.066597\O,0,0.788846,1.440309,-0.38151\H,0,2.587384,-1.174331,0.4

 Normal termination of Gaussian 16 at Tue Apr  8 22:47:07 2025.
