 Gaussian 16, Revision C.01,

 ----------------------------------------------------------------------
 #t hf aug-cc-pvdz symm=none int=(grid=ultrafine) guess=(read,tcheck) s
 table=(opt,rrhf)
 ----------------------------------------------------------------------
 -----
 title
 -----
 Symbolic Z-matrix:
 Charge =  0 Multiplicity = 1

 SCF Done:  E(RHF) =  -486.451141214     A.U. after   12 cycles
 Normal termination of Gaussian 16 at Tue Apr  8 23:49:58 2025.
 Gaussian 16:  ES64L-G16RevC.01  3-Jul-2019

 ----------------------------------------------------------------------
 #t hf aug-cc-pvdz iop(5/13=1,5/36=2,99/5=2) pseudo=read geom=check gue
 ss=(read,tcheck) scf=(maxcycle=1)
 ----------------------------------------------------------------------
 -----
 title
 -----
 Structure from the checkpoint file:  "BDE49_nonexpt_1831_mol1.chk"
 Charge =  0 Multiplicity = 1

                         Standard orientation:
 ---------------------------------------------------------------------
 Center     Atomic      Atomic             Coordinates (Angstroms)
 Number     Number       Type             X           Y           Z
 ---------------------------------------------------------------------
      1          6           0       -0.876632   -0.469999   -0.605982
      2         14           0        0.810702   -1.099584   -0.032646
      3          6           0        1.923926    0.273408    0.636719
      4          1           0        1.489794   -1.759933   -1.179803
      5          1           0        0.615685   -2.121175    1.030979
      6          6           0       -1.742518    0.182942    0.487188
      7          6           0       -3.112873    0.644308   -0.020987
      8          1           0       -1.884031   -0.524453    1.312684
      9          1           0       -1.212360    1.041818    0.914997
     10          1           0       -3.687574   -0.197456   -0.419486
     11          1           0       -3.007393    1.381173   -0.823339
     12          1           0       -3.702583    1.102858    0.778192
     13          6           0        2.273926    1.377013   -0.377259
     14          1           0        2.842381   -0.198351    1.005698
     15          1           0        1.443783    0.712247    1.519415
     16          1           0        2.779574    0.966441   -1.256291
     17          1           0        2.937757    2.128252    0.060815
     18          1           0        1.380239    1.900203   -0.729961
     19          1           0       -1.415282   -1.320591   -1.043257
     20          1           0       -0.724790    0.237117   -1.431673
 ---------------------------------------------------------------------

 SCF Done:  E(RHF) =  -486.710799984     A.U. after    2 cycles

 The electronic state is 1-A.
 Alpha  occ. eigenvalues --  -69.51022 -11.23366 -11.22994 -11.22292 -11.21701
 Alpha  occ. eigenvalues --  -11.21453  -6.18127  -3.93486  -3.93470  -3.93455
 Alpha  occ. eigenvalues --   -1.05782  -1.02177  -0.92776  -0.84812  -0.80861
 Alpha  occ. eigenvalues --   -0.69019  -0.63601  -0.61010  -0.58408  -0.57758
 Alpha  occ. eigenvalues --   -0.54816  -0.54001  -0.52424  -0.49883  -0.49031
 Alpha  occ. eigenvalues --   -0.47867  -0.45614  -0.43437  -0.41888
 Alpha virt. eigenvalues --    0.03457   0.03621   0.03767   0.03881   0.05707
 Alpha virt. eigenvalues --    0.05750   0.06017   0.06673   0.06942   0.08408
 Alpha virt. eigenvalues --    0.08723   0.09020   0.09456   0.10340   0.11179

 Mulliken charges:
               1
     1  C   -0.571166
     2  Si   1.167034
     3  C   -0.557354
     4  H   -0.134344
     5  H   -0.157486
     6  C   -0.364925
     7  C   -0.361825
     8  H    0.126465
     9  H    0.101025
    10  H    0.164610
    11  H    0.165938
    12  H    0.117348
    13  C   -0.392847
    14  H    0.007021
    15  H    0.140697
    16  H    0.165116
    17  H    0.097200
    18  H    0.108064
    19  H    0.014425
    20  H    0.165003
 Sum of Mulliken charges =  -0.00000

 Dipole moment (field-independent basis, Debye):
    X=             -0.1951    Y=              0.7108    Z=              0.1104  Tot=              0.7453

 Test job not archived.
 1\1\GINC-SE396\SP\RHF\Aug-CC-pVDZ\C5H14Si1\OHZDE\08-Apr-2025\0\\#t hf
 aug-cc-pvdz iop(5/13=1,5/36=2,99/5=2) pseudo=read geom=check guess=(re
 ad,tcheck) scf=(maxcycle=1)\\title\\0,1\C,0,-0.876632,-0.469999,-0.605
 982\Si,0,0.810702,-1.099584,-0.032646\C,0,1.923926,0.273408,0.636719\H
 ,0,1.489794,-1.759933,-1.179803\H,0,0.615685,-2.121175,1.030979\C,0,-1
 .742518,0.182942,0.487188\C,0,-3.112873,0.644308,-0.020987\H,0,-1.8840
 31,-0.524453,1.312684\H,0,-1.21236,1.041818,0.914997\H,0,-3.687574,-0.
 197456,-0.419486\H,0,-3.007393,1.381173,-0.823339\H,0,-3.702583,1.1028

 Normal termination of Gaussian 16 at Tue Apr  8 23:50:06 2025.
