 Gaussian 16, Revision C.01,

 ----------------------------------------------------------------------
 #t hf aug-cc-pvdz symm=none int=(grid=ultrafine) guess=(read,tcheck) s
 table=(opt,rrhf)
 ----------------------------------------------------------------------
 -----
 title
 -----
 Symbolic Z-matrix:
 Charge =  0 Multiplicity = 1

 SCF Done:  E(RHF) =  -427.797148709     A.U. after   12 cycles
 Normal termination of Gaussian 16 at Wed Apr  9 00:30:43 2025.
 Gaussian 16:  ES64L-G16RevC.01  3-Jul-2019

 ----------------------------------------------------------------------
 #t hf aug-cc-pvdz iop(5/13=1,5/36=2,99/5=2) pseudo=read geom=check gue
 ss=(read,tcheck) scf=(maxcycle=1)
 ----------------------------------------------------------------------
 -----
 title
 -----
 Structure from the checkpoint file:  "BDE49_nonexpt_354_mol1.chk"
 Charge =  0 Multiplicity = 1

                         Standard orientation:
 ---------------------------------------------------------------------
 Center     Atomic      Atomic             Coordinates (Angstroms)
 Number     Number       Type             X           Y           Z
 ---------------------------------------------------------------------
      1          9           0        1.331692    1.145444    0.000067
      2          9           0        1.331802   -1.145384   -0.000242
      3          7           0       -0.813692   -0.000074    0.000036
      4          5           0        0.709092   -0.000001    0.000033
      5          8           0       -1.363755   -0.000152    1.094994
      6          8           0       -1.363878    0.000151   -1.094850
 ---------------------------------------------------------------------

 SCF Done:  E(RHF) =  -428.191039682     A.U. after    2 cycles

 The electronic state is 1-A.
 Alpha  occ. eigenvalues --  -26.54955 -26.54954 -20.63020 -20.63012 -15.80033
 Alpha  occ. eigenvalues --   -7.83065  -1.70857  -1.69132  -1.66914  -1.54010
 Alpha  occ. eigenvalues --   -1.07629  -0.87489  -0.84642  -0.83104  -0.78466
 Alpha  occ. eigenvalues --   -0.75427  -0.75426  -0.72840  -0.69969  -0.69191
 Alpha  occ. eigenvalues --   -0.53137  -0.51528  -0.47956
 Alpha virt. eigenvalues --    0.02819   0.04434   0.04861   0.05425   0.05807
 Alpha virt. eigenvalues --    0.11381   0.15220   0.16093   0.18510   0.18513
 Alpha virt. eigenvalues --    0.20015   0.20909   0.20969   0.22183   0.22946

 Mulliken charges:
               1
     1  F   -0.562133
     2  F   -0.562110
     3  N    2.009226
     4  B    1.358289
     5  O   -1.121631
     6  O   -1.121641
 Sum of Mulliken charges =  -0.00000

 Dipole moment (field-independent basis, Debye):
    X=              2.1330    Y=             -0.0001    Z=              0.0002  Tot=              2.1330

 Test job not archived.
 1\1\GINC-SE329\SP\RHF\Aug-CC-pVDZ\B1F2N1O2\OHZDE\09-Apr-2025\0\\#t hf
 aug-cc-pvdz iop(5/13=1,5/36=2,99/5=2) pseudo=read geom=check guess=(re
 ad,tcheck) scf=(maxcycle=1)\\title\\0,1\F,0,-1.331692,-1.145443,0.0000
 67\F,0,-1.331802,1.145385,-0.000242\N,0,0.813692,0.000074,0.000036\B,0
 ,-0.709092,0.000001,0.000033\O,0,1.363755,0.000152,1.094994\O,0,1.3638
 78,-0.000151,-1.09485\\Version=ES64L-G16RevC.01\State=1-A\HF=-428.1910
 397\RMSD=1.574e-02\Dipole=-0.8391848,0.000031,0.0000658\Quadrupole=-1.
 4907838,0.9823887,0.5083951,0.0001014,-0.0004502,-0.0000736\PG=C01 [X(

 Normal termination of Gaussian 16 at Wed Apr  9 00:30:45 2025.
