 Gaussian 16, Revision C.01,

 ----------------------------------------------------------------------
 #t hf aug-cc-pvdz symm=none int=(grid=ultrafine) guess=(read,tcheck) s
 table=(opt,rrhf)
 ----------------------------------------------------------------------
 -----
 title
 -----
 Symbolic Z-matrix:
 Charge =  0 Multiplicity = 1

 SCF Done:  E(RHF) =  -611.080566377     A.U. after   15 cycles
 Normal termination of Gaussian 16 at Tue Apr  8 23:27:52 2025.
 Gaussian 16:  ES64L-G16RevC.01  3-Jul-2019

 ----------------------------------------------------------------------
 #t hf aug-cc-pvdz iop(5/13=1,5/36=2,99/5=2) pseudo=read geom=check gue
 ss=(read,tcheck) scf=(maxcycle=1)
 ----------------------------------------------------------------------
 -----
 title
 -----
 Structure from the checkpoint file:  "BDE49_nonexpt_1294_mol1.chk"
 Charge =  0 Multiplicity = 1

                         Standard orientation:
 ---------------------------------------------------------------------
 Center     Atomic      Atomic             Coordinates (Angstroms)
 Number     Number       Type             X           Y           Z
 ---------------------------------------------------------------------
      1          6           0       -0.002402    0.057127    0.468092
      2          6           0        0.638202   -1.175143    0.290740
      3          6           0        1.966053   -1.236513   -0.122586
      4          6           0        2.678305   -0.064458   -0.369710
      5          6           0        2.051748    1.167897   -0.199969
      6          6           0        0.723006    1.226254    0.213668
      7         15           0       -2.614702   -0.152696   -0.562144
      8          1           0        2.445790   -2.200712   -0.249372
      9          1           0        3.713028   -0.111592   -0.689593
     10          1           0        2.598069    2.085922   -0.386336
     11          1           0        0.243538    2.190961    0.347047
     12          1           0        0.091319   -2.093208    0.480564
     13          6           0       -1.447047    0.126864    0.897182
     14          1           0       -1.660798    1.082093    1.377946
     15          1           0       -1.668461   -0.664771    1.618363
     16          1           0       -2.386057    1.091213   -1.206215
     17          1           0       -3.803092    0.298374    0.075254
 ---------------------------------------------------------------------

 SCF Done:  E(RHF) =  -611.408485215     A.U. after    2 cycles

 The electronic state is 1-A.
 Alpha  occ. eigenvalues --  -84.27235 -11.25414 -11.25223 -11.24470 -11.24441
 Alpha  occ. eigenvalues --  -11.24174 -11.24108 -11.24097  -6.74248  -4.26788
 Alpha  occ. eigenvalues --   -4.26597  -4.25933  -1.15970  -1.05730  -1.01723
 Alpha  occ. eigenvalues --   -0.95779  -0.83771  -0.83565  -0.78975  -0.70741
 Alpha  occ. eigenvalues --   -0.65747  -0.64448  -0.60018  -0.59372  -0.56937
 Alpha  occ. eigenvalues --   -0.53883  -0.50978  -0.50242  -0.48342  -0.46964
 Alpha  occ. eigenvalues --   -0.35350  -0.34287  -0.32716
 Alpha virt. eigenvalues --    0.03489   0.03567   0.03757   0.04884   0.04967
 Alpha virt. eigenvalues --    0.05296   0.07426   0.08192   0.08770   0.09302
 Alpha virt. eigenvalues --    0.10264   0.10443   0.10659   0.11038   0.12907

 Mulliken charges:
               1
     1  C    1.626767
     2  C   -0.050406
     3  C    0.069995
     4  C    0.026614
     5  C    0.153367
     6  C    0.140652
     7  P   -0.461823
     8  H   -0.228629
     9  H   -0.217173
    10  H   -0.225628
    11  H   -0.312824
    12  H   -0.310834
    13  C   -0.998813
    14  H   -0.016857
    15  H    0.054954
    16  H    0.375860
    17  H    0.374776
 Sum of Mulliken charges =  -0.00000

 Dipole moment (field-independent basis, Debye):
    X=              0.1038    Y=              0.4115    Z=              0.6481  Tot=              0.7747

 Test job not archived.
 1\1\GINC-SE051\SP\RHF\Aug-CC-pVDZ\C7H9P1\OHZDE\08-Apr-2025\0\\#t hf au
 g-cc-pvdz iop(5/13=1,5/36=2,99/5=2) pseudo=read geom=check guess=(read
 ,tcheck) scf=(maxcycle=1)\\title\\0,1\C,0,-0.002402,0.057127,0.468092\
 C,0,0.638202,-1.175143,0.29074\C,0,1.966053,-1.236513,-0.122586\C,0,2.
 678305,-0.064458,-0.36971\C,0,2.051748,1.167897,-0.199969\C,0,0.723006
 ,1.226254,0.213668\P,0,-2.614702,-0.152696,-0.562144\H,0,2.44579,-2.20
 0712,-0.249372\H,0,3.713028,-0.111592,-0.689593\H,0,2.598069,2.085922,
 -0.386336\H,0,0.243538,2.190961,0.347047\H,0,0.091319,-2.093208,0.4805

 Normal termination of Gaussian 16 at Tue Apr  8 23:28:00 2025.
