 Gaussian 16, Revision C.01,

 ----------------------------------------------------------------------
 #t hf aug-cc-pvdz symm=none int=(grid=ultrafine) guess=(read,tcheck) s
 table=(opt,rrhf)
 ----------------------------------------------------------------------
 -----
 title
 -----
 Symbolic Z-matrix:
 Charge =  0 Multiplicity = 1

 SCF Done:  E(RHF) =  -1158.19062624     A.U. after   17 cycles
 Normal termination of Gaussian 16 at Tue Apr  8 23:34:10 2025.
 Gaussian 16:  ES64L-G16RevC.01  3-Jul-2019

 ----------------------------------------------------------------------
 #t hf aug-cc-pvdz iop(5/13=1,5/36=2,99/5=2) pseudo=read geom=check gue
 ss=(read,tcheck) scf=(maxcycle=1)
 ----------------------------------------------------------------------
 -----
 title
 -----
 Structure from the checkpoint file:  "BDE49_nonexpt_1193_mol1.chk"
 Charge =  0 Multiplicity = 1

                         Standard orientation:
 ---------------------------------------------------------------------
 Center     Atomic      Atomic             Coordinates (Angstroms)
 Number     Number       Type             X           Y           Z
 ---------------------------------------------------------------------
      1          6           0       -3.448357    0.471621   -1.017675
      2          6           0       -4.754111    0.947102   -1.078391
      3          6           0       -5.617055    0.764174    0.001089
      4          6           0       -5.173858    0.106136    1.148357
      5          6           0       -3.870170   -0.369188    1.216015
      6          6           0       -3.003103   -0.190930    0.131757
      7          1           0       -2.770275    0.614922   -1.847665
      8          1           0       -5.098323    1.462506   -1.967543
      9          1           0       -6.634173    1.136389   -0.050447
     10          1           0       -5.844183   -0.033720    1.988485
     11          1           0       -3.503230   -0.879256    2.097768
     12          6           0       -1.620978   -0.721446    0.268126
     13          8           0       -1.161743   -1.241411    1.244108
     14          8           0       -0.911878   -0.551040   -0.912967
     15         16           0        0.694142   -1.060673   -0.960769
     16          6           0        1.447233    0.363590   -0.109934
     17          8           0        0.769849    1.287282    0.253707
     18          6           0        2.926947    0.279141    0.028517
     19          6           0        3.630325    1.470050    0.247156
     20          6           0        3.619921   -0.934948   -0.039012
     21          6           0        5.004938   -0.953503    0.091736
     22          6           0        5.013242    1.446848    0.374339
     23          6           0        5.702043    0.235998    0.294715
     24          1           0        6.781108    0.219019    0.397762
     25          1           0        5.537878   -1.895917    0.046504
     26          1           0        3.081526   -1.868130   -0.161711
     27          1           0        3.075501    2.397780    0.311598
     28          1           0        5.555966    2.370641    0.537996
 ---------------------------------------------------------------------

 SCF Done:  E(RHF) =  -1159.00360161     A.U. after    2 cycles

 The electronic state is 1-A.
 Alpha  occ. eigenvalues --  -94.02616 -20.61476 -20.55685 -20.54257 -11.40136
 Alpha  occ. eigenvalues --  -11.38490 -11.27444 -11.27329 -11.27006 -11.26807
 Alpha  occ. eigenvalues --  -11.26354 -11.26205 -11.26142 -11.26099 -11.26015
 Alpha  occ. eigenvalues --  -11.25817 -11.25190 -11.25145  -8.30105  -6.27933
 Alpha  occ. eigenvalues --   -6.27679  -6.27444  -1.54684  -1.49786  -1.46159
 Alpha  occ. eigenvalues --   -1.18310  -1.17109  -1.08387  -1.05494  -1.04201
 Alpha  occ. eigenvalues --   -1.03089  -1.01578  -0.90738  -0.87796  -0.85895
 Alpha  occ. eigenvalues --   -0.84729  -0.80720  -0.77287  -0.74752  -0.72914
 Alpha  occ. eigenvalues --   -0.70000  -0.68539  -0.67791  -0.67069  -0.65412
 Alpha  occ. eigenvalues --   -0.64465  -0.64138  -0.63312  -0.62350  -0.61322
 Alpha  occ. eigenvalues --   -0.60158  -0.57538  -0.55486  -0.54737  -0.53325
 Alpha  occ. eigenvalues --   -0.52864  -0.52253  -0.51911  -0.51604  -0.48809
 Alpha  occ. eigenvalues --   -0.45382  -0.41611  -0.39538  -0.36861  -0.36688
 Alpha  occ. eigenvalues --   -0.36040  -0.35632
 Alpha virt. eigenvalues --    0.02888   0.03299   0.03555   0.03914   0.04232
 Alpha virt. eigenvalues --    0.04862   0.05097   0.05866   0.06211   0.06553
 Alpha virt. eigenvalues --    0.06739   0.07885   0.08553   0.09201   0.09299

 Mulliken charges:
               1
     1  C    0.171136
     2  C    0.316527
     3  C   -0.057222
     4  C    0.400235
     5  C   -0.458685
     6  C    2.218729
     7  H   -0.313930
     8  H   -0.225293
     9  H   -0.215814
    10  H   -0.214594
    11  H   -0.335003
    12  C    0.735934
    13  O   -1.331191
    14  O   -1.437910
    15  S    0.916401
    16  C   -0.267309
    17  O   -1.409675
    18  C    2.317965
    19  C   -0.266380
    20  C    0.159164
    21  C    0.007665
    22  C    0.454581
    23  C    0.000749
    24  H   -0.209980
    25  H   -0.232162
    26  H   -0.182355
    27  H   -0.331146
    28  H   -0.210438
 Sum of Mulliken charges =  -0.00000

 Dipole moment (field-independent basis, Debye):
    X=              1.3418    Y=              0.3552    Z=             -1.1041  Tot=              1.7736

 Test job not archived.
 1\1\GINC-SE043\SP\RHF\Aug-CC-pVDZ\C14H10O3S1\OHZDE\08-Apr-2025\0\\#t h
 f aug-cc-pvdz iop(5/13=1,5/36=2,99/5=2) pseudo=read geom=check guess=(
 read,tcheck) scf=(maxcycle=1)\\title\\0,1\C,0,-3.448357,0.471621,-1.01
 7675\C,0,-4.754111,0.947102,-1.078391\C,0,-5.617055,0.764174,0.001089\
 C,0,-5.173858,0.106136,1.148357\C,0,-3.87017,-0.369188,1.216015\C,0,-3
 .003103,-0.19093,0.131757\H,0,-2.770275,0.614922,-1.847665\H,0,-5.0983
 23,1.462506,-1.967543\H,0,-6.634173,1.136389,-0.050447\H,0,-5.844183,-
 0.03372,1.988485\H,0,-3.50323,-0.879256,2.097768\C,0,-1.620978,-0.7214

 Normal termination of Gaussian 16 at Tue Apr  8 23:34:46 2025.
