 Gaussian 16, Revision C.01,

 ----------------------------------------------------------------------
 #t hf aug-cc-pvdz symm=none int=(grid=ultrafine) guess=(read,tcheck) s
 table=opt
 ----------------------------------------------------------------------
 -----
 title
 -----
 Symbolic Z-matrix:
 Charge =  0 Multiplicity = 2

 SCF Done:  E(UHF) =  -706.000989570     A.U. after   18 cycles
 Normal termination of Gaussian 16 at Tue Apr  8 23:06:17 2025.
 Gaussian 16:  ES64L-G16RevC.01  3-Jul-2019

 ----------------------------------------------------------------------
 #t hf aug-cc-pvdz iop(5/13=1,5/36=2,99/5=2) pseudo=read geom=check gue
 ss=(read,tcheck) scf=(maxcycle=1)
 ----------------------------------------------------------------------
 -----
 title
 -----
 Structure from the checkpoint file:  "BDE49_expt_387_mol2.chk"
 Charge =  0 Multiplicity = 2

                         Standard orientation:
 ---------------------------------------------------------------------
 Center     Atomic      Atomic             Coordinates (Angstroms)
 Number     Number       Type             X           Y           Z
 ---------------------------------------------------------------------
      1          8           0       -0.626423    1.280720   -0.201772
      2          6           0       -2.032608    1.206341    0.031289
      3          6           0       -2.306057   -0.128118    0.727513
      4          1           0       -2.566237    1.256661   -0.924580
      5          1           0       -2.300119    2.064989    0.647916
      6         16           0       -1.159678   -1.290037   -0.111522
      7          1           0       -3.335410   -0.459395    0.594032
      8          1           0       -2.066695   -0.085642    1.791012
      9          6           0       -0.160899    0.083411   -0.699248
     10          6           0        1.326019   -0.018655   -0.808105
     11          6           0        2.082220    0.089398    0.535125
     12          1           0        1.669787    0.779269   -1.477826
     13          1           0        1.576017   -0.965991   -1.297489
     14          6           0        3.600956    0.016449    0.363145
     15          1           0        1.741578   -0.712912    1.197711
     16          1           0        1.804228    1.032325    1.015238
     17          1           0        3.904436   -0.930813   -0.093968
     18          1           0        4.113612    0.098432    1.325517
     19          1           0        3.967252    0.824963   -0.277365
 ---------------------------------------------------------------------

 SCF Done:  E(UHF) =  -706.385694073     A.U. after    2 cycles

 The electronic state is 2-A.
 Alpha  occ. eigenvalues --  -93.94859 -20.57266 -11.31037 -11.30504 -11.27766
 Alpha  occ. eigenvalues --  -11.23535 -11.22714 -11.22210  -8.22995  -6.20783
 Alpha  occ. eigenvalues --   -6.20658  -6.20486  -1.50217  -1.09708  -1.08236
 Alpha  occ. eigenvalues --   -1.01654  -0.93285  -0.84632  -0.82940  -0.77028
 Alpha  occ. eigenvalues --   -0.69696  -0.67764  -0.64229  -0.61803  -0.59675
 Alpha  occ. eigenvalues --   -0.57592  -0.56849  -0.54074  -0.52031  -0.50522
 Alpha  occ. eigenvalues --   -0.49045  -0.48226  -0.47324  -0.45862  -0.39872
 Alpha  occ. eigenvalues --   -0.29305
 Alpha virt. eigenvalues --    0.03351   0.03882   0.04160   0.04455   0.05360
 Alpha virt. eigenvalues --    0.05492   0.05812   0.07133   0.08039   0.08405
 Alpha virt. eigenvalues --    0.09010   0.09996   0.12050   0.12184   0.13180

  Beta  occ. eigenvalues --  -93.94809 -20.56849 -11.30517 -11.28406 -11.27767
  Beta  occ. eigenvalues --  -11.23718 -11.22513 -11.22206  -8.22931  -6.20792
  Beta  occ. eigenvalues --   -6.20662  -6.20226  -1.48819  -1.08754  -1.07330
  Beta  occ. eigenvalues --   -1.00130  -0.93074  -0.84308  -0.81693  -0.74740
  Beta  occ. eigenvalues --   -0.68270  -0.67353  -0.63720  -0.59716  -0.58158
  Beta  occ. eigenvalues --   -0.56959  -0.55288  -0.53198  -0.51002  -0.48979
  Beta  occ. eigenvalues --   -0.48547  -0.47438  -0.46361  -0.45000  -0.36273
  Beta virt. eigenvalues --    0.03354   0.03892   0.04170   0.04458   0.05357
  Beta virt. eigenvalues --    0.05487   0.05779   0.07137   0.08051   0.08412
  Beta virt. eigenvalues --    0.09011   0.09958   0.11757   0.12232   0.12748

 Mulliken charges and spin densities:
               1          2
     1  O   -1.412467   0.034953
     2  C    0.501206  -0.016026
     3  C   -0.738586   0.002476
     4  H    0.172697  -0.008676
     5  H    0.001745   0.000592
     6  S    0.416025  -0.007585
     7  H    0.175110   0.001882
     8  H    0.141338  -0.003260
     9  C    0.692260   1.158736
    10  C   -0.347431  -0.202962
    11  C   -0.295895   0.051136
    12  H    0.208437   0.000496
    13  H    0.175032  -0.001107
    14  C   -0.423092   0.000358
    15  H    0.143864  -0.008380
    16  H    0.145164  -0.003740
    17  H    0.157892   0.000438
    18  H    0.126758   0.000444
    19  H    0.159943   0.000225
 Sum of Mulliken charges =  -0.00000   1.00000

 Dipole moment (field-independent basis, Debye):
    X=             -1.0859    Y=              0.9072    Z=              0.8506  Tot=              1.6510
                          Isotropic Fermi Contact Couplings
        Atom                 a.u.       MegaHertz       Gauss      10(-4) cm-1
     1  O(17)              0.03907     -23.68265      -8.45056      -7.89968
     2  C(13)             -0.00182      -2.04711      -0.73046      -0.68284
     3  C(13)             -0.00098      -1.09977      -0.39243      -0.36684
     4  H(1)               0.00014       0.64563       0.23038       0.21536
     5  H(1)              -0.00068      -3.03199      -1.08189      -1.01136
     6  S(33)              0.05769      19.81589       7.07080       6.60987
     7  H(1)              -0.00066      -2.96099      -1.05656      -0.98768
     8  H(1)               0.00109       4.86090       1.73449       1.62142

 Normal termination of Gaussian 16 at Tue Apr  8 23:06:27 2025.
