 Gaussian 16, Revision C.01,

 ----------------------------------------------------------------------
 #t hf aug-cc-pvdz symm=none int=(grid=ultrafine) guess=(read,tcheck) s
 table=(opt,rrhf)
 ----------------------------------------------------------------------
 -----
 title
 -----
 Symbolic Z-matrix:
 Charge =  0 Multiplicity = 1

 SCF Done:  E(RHF) =  -389.183200187     A.U. after   15 cycles
 Normal termination of Gaussian 16 at Wed Apr  9 00:39:44 2025.
 Gaussian 16:  ES64L-G16RevC.01  3-Jul-2019

 ----------------------------------------------------------------------
 #t hf aug-cc-pvdz iop(5/13=1,5/36=2,99/5=2) pseudo=read geom=check gue
 ss=(read,tcheck) scf=(maxcycle=1)
 ----------------------------------------------------------------------
 -----
 title
 -----
 Structure from the checkpoint file:  "BDE49_nonexpt_580_mol1.chk"
 Charge =  0 Multiplicity = 1

                         Standard orientation:
 ---------------------------------------------------------------------
 Center     Atomic      Atomic             Coordinates (Angstroms)
 Number     Number       Type             X           Y           Z
 ---------------------------------------------------------------------
      1          5           0       -2.208836   -0.000073    0.158484
      2          6           0        0.333029    0.000229   -0.563164
      3          6           0        1.018988    1.199584   -0.328724
      4          6           0        1.018944   -1.199311   -0.329541
      5          6           0        2.339400   -1.202238    0.114815
      6          6           0        3.006977   -0.000127    0.339777
      7          6           0        2.339443    1.202161    0.115634
      8          1           0        4.035792   -0.000262    0.681713
      9          1           0        2.848799    2.145305    0.282279
     10          1           0        0.511282    2.143147   -0.503906
     11          1           0        0.511205   -2.142736   -0.505368
     12          1           0        2.848722   -2.145514    0.280818
     13          7           0       -1.801074   -0.000719    1.493420
     14          6           0       -3.747717    0.000181   -0.214763
     15          1           0       -4.002760   -0.873512   -0.826440
     16          1           0       -4.002688    0.874544   -0.825512
     17          1           0       -4.414644   -0.000251    0.653348
     18          6           0       -1.109378    0.000405   -1.004759
     19          1           0       -1.303286    0.870425   -1.645645
     20          1           0       -1.303286   -0.869104   -1.646338
     21          1           0       -2.446790   -0.001051    2.267560
     22          1           0       -0.828771   -0.000893    1.765488
 ---------------------------------------------------------------------

 SCF Done:  E(RHF) =  -389.594371156     A.U. after    2 cycles

 The electronic state is 1-A.
 Alpha  occ. eigenvalues --  -15.48320 -11.24410 -11.23966 -11.23942 -11.23424
 Alpha  occ. eigenvalues --  -11.23288 -11.23287 -11.20708 -11.19668  -7.57225
 Alpha  occ. eigenvalues --   -1.16172  -1.14750  -1.03926  -1.00981  -0.95050
 Alpha  occ. eigenvalues --   -0.91888  -0.82947  -0.80344  -0.72219  -0.70698
 Alpha  occ. eigenvalues --   -0.70116  -0.64546  -0.63717  -0.59224  -0.58719
 Alpha  occ. eigenvalues --   -0.55904  -0.55279  -0.52744  -0.52697  -0.50990
 Alpha  occ. eigenvalues --   -0.49139  -0.48740  -0.45963  -0.45265  -0.34173
 Alpha  occ. eigenvalues --   -0.32599
 Alpha virt. eigenvalues --    0.03049   0.03567   0.03654   0.04236   0.04783
 Alpha virt. eigenvalues --    0.04835   0.05936   0.06702   0.07120   0.07351
 Alpha virt. eigenvalues --    0.08349   0.08908   0.10072   0.10512   0.10877

 Mulliken charges:
               1
     1  B    0.355016
     2  C    1.131312
     3  C    0.263199
     4  C    0.263180
     5  C    0.036276
     6  C    0.181997
     7  C    0.036315
     8  H   -0.220305
     9  H   -0.240162
    10  H   -0.340045
    11  H   -0.340016
    12  H   -0.240169
    13  N    0.458659
    14  C   -0.465206
    15  H    0.069870
    16  H    0.069893
    17  H   -0.100709
    18  C   -0.988904
    19  H    0.055491
    20  H    0.055546
    21  H   -0.046545
    22  H    0.005308
 Sum of Mulliken charges =  -0.00000

 Dipole moment (field-independent basis, Debye):
    X=             -0.3371    Y=             -0.0004    Z=              0.7614  Tot=              0.8327

 Test job not archived.
 1\1\GINC-SE461\SP\RHF\Aug-CC-pVDZ\C8H12B1N1\OHZDE\09-Apr-2025\0\\#t hf
  aug-cc-pvdz iop(5/13=1,5/36=2,99/5=2) pseudo=read geom=check guess=(r
 ead,tcheck) scf=(maxcycle=1)\\title\\0,1\B,0,-2.208836,-0.000073,0.158
 484\C,0,0.333029,0.000229,-0.563164\C,0,1.018988,1.199584,-0.328724\C,
 0,1.018944,-1.199311,-0.329541\C,0,2.3394,-1.202238,0.114815\C,0,3.006
 977,-0.000127,0.339777\C,0,2.339443,1.202161,0.115634\H,0,4.035792,-0.
 000262,0.681713\H,0,2.848799,2.145305,0.282279\H,0,0.511282,2.143147,-
 0.503906\H,0,0.511205,-2.142736,-0.505368\H,0,2.848722,-2.145514,0.280

 Normal termination of Gaussian 16 at Wed Apr  9 00:39:56 2025.
