 Gaussian 16, Revision C.01,

 ----------------------------------------------------------------------
 #t hf aug-cc-pvdz symm=none int=(grid=ultrafine) guess=(read,tcheck) s
 table=(opt,rrhf)
 ----------------------------------------------------------------------
 -----
 title
 -----
 Symbolic Z-matrix:
 Charge =  0 Multiplicity = 1

 SCF Done:  E(RHF) =  -1679.94535630     A.U. after   14 cycles
 Normal termination of Gaussian 16 at Wed Apr  9 00:15:04 2025.
 Gaussian 16:  ES64L-G16RevC.01  3-Jul-2019

 ----------------------------------------------------------------------
 #t hf aug-cc-pvdz iop(5/13=1,5/36=2,99/5=2) pseudo=read geom=check gue
 ss=(read,tcheck) scf=(maxcycle=1)
 ----------------------------------------------------------------------
 -----
 title
 -----
 Structure from the checkpoint file:  "BDE49_nonexpt_2438_mol1.chk"
 Charge =  0 Multiplicity = 1

                         Standard orientation:
 ---------------------------------------------------------------------
 Center     Atomic      Atomic             Coordinates (Angstroms)
 Number     Number       Type             X           Y           Z
 ---------------------------------------------------------------------
      1         14           0       -1.125746    1.740984    0.347723
      2         14           0        1.125785    1.740985   -0.347740
      3          6           0        1.913520    0.065787    0.117607
      4          1           0        1.868525    2.782286    0.402754
      5          1           0        1.267297    2.000324   -1.798098
      6         16           0        1.702059   -0.580896    1.615091
      7          8           0        2.625522   -0.466701   -0.871945
      8          6           0        3.286368   -1.735612   -0.675530
      9          1           0        3.779749   -1.943501   -1.621763
     10          1           0        2.551877   -2.505970   -0.437154
     11          1           0        4.009197   -1.660383    0.137938
     12          6           0       -1.913467    0.065769   -0.117587
     13          1           0       -1.868493    2.782267   -0.402792
     14          1           0       -1.267260    2.000352    1.798076
     15         16           0       -1.702082   -0.580898   -1.615089
     16          8           0       -2.625521   -0.466670    0.871953
     17          6           0       -3.286427   -1.735549    0.675537
     18          1           0       -3.779845   -1.943399    1.621759
     19          1           0       -2.551969   -2.505948    0.437193
     20          1           0       -4.009229   -1.660294   -0.137952
 ---------------------------------------------------------------------

 SCF Done:  E(RHF) =  -1680.43277959     A.U. after    2 cycles

 The electronic state is 1-A.
 Alpha  occ. eigenvalues --  -93.92447 -93.92445 -69.54632 -69.54632 -20.61611
 Alpha  occ. eigenvalues --  -20.61610 -11.37200 -11.37198 -11.30657 -11.30656
 Alpha  occ. eigenvalues --   -8.20731  -8.20731  -6.21772  -6.21760  -6.18572
 Alpha  occ. eigenvalues --   -6.18572  -6.18327  -6.18326  -6.18169  -6.18169
 Alpha  occ. eigenvalues --   -3.97143  -3.97121  -3.97107  -3.97085  -3.97077
 Alpha  occ. eigenvalues --   -3.97036  -1.53792  -1.53789  -1.06848  -1.06413
 Alpha  occ. eigenvalues --   -0.98497  -0.98482  -0.82581  -0.80053  -0.76714
 Alpha  occ. eigenvalues --   -0.73550  -0.67336  -0.67148  -0.66851  -0.65073
 Alpha  occ. eigenvalues --   -0.62503  -0.61590  -0.56031  -0.55449  -0.53768
 Alpha  occ. eigenvalues --   -0.53289  -0.50892  -0.48809  -0.47971  -0.47114
 Alpha  occ. eigenvalues --   -0.43254  -0.37984  -0.37806  -0.35227  -0.35150
 Alpha virt. eigenvalues --    0.03505   0.03527   0.03936   0.04657   0.05014
 Alpha virt. eigenvalues --    0.05207   0.05600   0.05627   0.06642   0.07020
 Alpha virt. eigenvalues --    0.07213   0.07960   0.08011   0.08798   0.09246

 Mulliken charges:
               1
     1  Si   0.517917
     2  Si   0.517945
     3  C    0.379133
     4  H   -0.134873
     5  H   -0.035503
     6  S    0.002723
     7  O   -1.350945
     8  C    0.247605
     9  H   -0.004753
    10  H    0.191688
    11  H    0.186982
    12  C    0.379140
    13  H   -0.134873
    14  H   -0.035499
    15  S    0.002723
    16  O   -1.350946
    17  C    0.247620
    18  H   -0.004752
    19  H    0.191683
    20  H    0.186985
 Sum of Mulliken charges =  -0.00000

 Dipole moment (field-independent basis, Debye):
    X=             -0.0000    Y=             -0.7926    Z=             -0.0000  Tot=              0.7926

 Test job not archived.
 1\1\GINC-SE126\SP\RHF\Aug-CC-pVDZ\C4H10O2S2Si2\OHZDE\09-Apr-2025\0\\#t
  hf aug-cc-pvdz iop(5/13=1,5/36=2,99/5=2) pseudo=read geom=check guess
 =(read,tcheck) scf=(maxcycle=1)\\title\\0,1\Si,0,1.125746,1.740984,-0.
 347723\Si,0,-1.125785,1.740985,0.34774\C,0,-1.91352,0.065787,-0.117607
 \H,0,-1.868525,2.782286,-0.402754\H,0,-1.267297,2.000324,1.798098\S,0,
 -1.702059,-0.580896,-1.615091\O,0,-2.625522,-0.466701,0.871945\C,0,-3.
 286368,-1.735612,0.67553\H,0,-3.779749,-1.943501,1.621763\H,0,-2.55187
 7,-2.50597,0.437154\H,0,-4.009197,-1.660383,-0.137938\C,0,1.913467,0.0

 Normal termination of Gaussian 16 at Wed Apr  9 00:15:18 2025.
