 Gaussian 16, Revision C.01,

 ----------------------------------------------------------------------
 #t hf aug-cc-pvdz symm=none int=(grid=ultrafine) guess=(read,tcheck) s
 table=(opt,rrhf)
 ----------------------------------------------------------------------
 -----
 title
 -----
 Symbolic Z-matrix:
 Charge =  0 Multiplicity = 1

 SCF Done:  E(RHF) =  -1426.57037703     A.U. after   18 cycles
 Normal termination of Gaussian 16 at Tue Apr  8 23:26:04 2025.
 Gaussian 16:  ES64L-G16RevC.01  3-Jul-2019

 ----------------------------------------------------------------------
 #t hf aug-cc-pvdz iop(5/13=1,5/36=2,99/5=2) pseudo=read geom=check gue
 ss=(read,tcheck) scf=(maxcycle=1)
 ----------------------------------------------------------------------
 -----
 title
 -----
 Structure from the checkpoint file:  "BDE49_nonexpt_1199_mol1.chk"
 Charge =  0 Multiplicity = 1

                         Standard orientation:
 ---------------------------------------------------------------------
 Center     Atomic      Atomic             Coordinates (Angstroms)
 Number     Number       Type             X           Y           Z
 ---------------------------------------------------------------------
      1          6           0        3.382822   -0.168914    0.387032
      2          8           0        3.025590   -0.133220    1.524566
      3          8           0        2.668643    0.375266   -0.671242
      4         16           0        1.142388    1.042308   -0.353810
      5          6           0        0.243380   -0.533175   -0.285729
      6          8           0        0.871073   -1.558649   -0.383215
      7          6           0        4.640990   -0.795192   -0.152112
      8          1           0        5.286184   -1.075737    0.677814
      9          1           0        5.155252   -0.108290   -0.825685
     10          1           0        4.367726   -1.683548   -0.726405
     11          6           0       -1.250531   -0.545776   -0.109894
     12          6           0       -1.828117   -1.827589   -0.101355
     13          6           0       -3.192870   -2.011165    0.049805
     14          6           0       -4.026445   -0.903936    0.199547
     15          6           0       -3.486244    0.375953    0.196778
     16          6           0       -2.113162    0.547274    0.042764
     17          1           0       -3.606040   -3.012501    0.052138
     18          1           0       -4.117932    1.246647    0.313605
     19          1           0       -1.159866   -2.670855   -0.216591
     20          1           0       -5.095915   -1.031445    0.319601
     21         17           0       -1.520530    2.198045    0.055564
 ---------------------------------------------------------------------

 SCF Done:  E(RHF) =  -1427.26671646     A.U. after    2 cycles

 The electronic state is 1-A.
 Alpha  occ. eigenvalues -- -105.59713 -94.02720 -20.60726 -20.55852 -20.54091
 Alpha  occ. eigenvalues --  -11.39597 -11.39303 -11.34525 -11.29133 -11.28311
 Alpha  occ. eigenvalues --  -11.27792 -11.27679 -11.26981 -11.25242 -10.64552
 Alpha  occ. eigenvalues --   -8.30157  -7.81510  -7.81138  -7.81085  -6.27950
 Alpha  occ. eigenvalues --   -6.27706  -6.27452  -1.54110  -1.50119  -1.45806
 Alpha  occ. eigenvalues --   -1.21219  -1.12437  -1.08203  -1.05688  -1.01587
 Alpha  occ. eigenvalues --   -0.99901  -0.89953  -0.86222  -0.81619  -0.77417
 Alpha  occ. eigenvalues --   -0.72663  -0.70759  -0.69106  -0.68340  -0.67161
 Alpha  occ. eigenvalues --   -0.66053  -0.64688  -0.62530  -0.60972  -0.60057
 Alpha  occ. eigenvalues --   -0.58260  -0.56608  -0.55615  -0.55098  -0.54147
 Alpha  occ. eigenvalues --   -0.53915  -0.50038  -0.48621  -0.47654  -0.44610
 Alpha  occ. eigenvalues --   -0.42258  -0.39274  -0.38009  -0.36901
 Alpha virt. eigenvalues --    0.02671   0.03485   0.04080   0.04126   0.04691
 Alpha virt. eigenvalues --    0.05663   0.06169   0.07120   0.07760   0.07793
 Alpha virt. eigenvalues --    0.09406   0.09857   0.10197   0.11172   0.11474

 Mulliken charges:
               1
     1  C    1.867128
     2  O   -1.212599
     3  O   -1.461890
     4  S    1.181973
     5  C   -0.223722
     6  O   -1.491848
     7  C   -0.636020
     8  H    0.201855
     9  H    0.212298
    10  H    0.258259
    11  C    3.012096
    12  C   -0.586333
    13  C    0.053139
    14  C   -0.131771
    15  C    0.318441
    16  C   -0.047729
    17  H   -0.214739
    18  H   -0.195421
    19  H   -0.360706
    20  H   -0.200804
    21  Cl  -0.341608
 Sum of Mulliken charges =  -0.00000

 Dipole moment (field-independent basis, Debye):
    X=             -2.8925    Y=             -0.9597    Z=             -1.2456  Tot=              3.2923

 Test job not archived.
 1\1\GINC-SE424\SP\RHF\Aug-CC-pVDZ\C9H7Cl1O3S1\OHZDE\08-Apr-2025\0\\#t
 hf aug-cc-pvdz iop(5/13=1,5/36=2,99/5=2) pseudo=read geom=check guess=
 (read,tcheck) scf=(maxcycle=1)\\title\\0,1\C,0,3.382822,-0.168914,0.38
 7032\O,0,3.02559,-0.13322,1.524566\O,0,2.668643,0.375266,-0.671242\S,0
 ,1.142388,1.042308,-0.35381\C,0,0.24338,-0.533175,-0.285729\O,0,0.8710
 73,-1.558649,-0.383215\C,0,4.64099,-0.795192,-0.152112\H,0,5.286184,-1
 .075737,0.677814\H,0,5.155252,-0.10829,-0.825685\H,0,4.367726,-1.68354
 8,-0.726405\C,0,-1.250531,-0.545776,-0.109894\C,0,-1.828117,-1.827589,

 Normal termination of Gaussian 16 at Tue Apr  8 23:26:22 2025.
