 Gaussian 16, Revision C.01,

 ----------------------------------------------------------------------
 #t hf aug-cc-pvdz symm=none int=(grid=ultrafine) guess=(read,tcheck) s
 table=(opt,rrhf)
 ----------------------------------------------------------------------
 -----
 title
 -----
 Symbolic Z-matrix:
 Charge =  0 Multiplicity = 1

 SCF Done:  E(RHF) =  -1186.83092604     A.U. after   12 cycles
 Normal termination of Gaussian 16 at Tue Apr  8 23:47:16 2025.
 Gaussian 16:  ES64L-G16RevC.01  3-Jul-2019

 ----------------------------------------------------------------------
 #t hf aug-cc-pvdz iop(5/13=1,5/36=2,99/5=2) pseudo=read geom=check gue
 ss=(read,tcheck) scf=(maxcycle=1)
 ----------------------------------------------------------------------
 -----
 title
 -----
 Structure from the checkpoint file:  "BDE49_nonexpt_1799_mol1.chk"
 Charge =  0 Multiplicity = 1

                         Standard orientation:
 ---------------------------------------------------------------------
 Center     Atomic      Atomic             Coordinates (Angstroms)
 Number     Number       Type             X           Y           Z
 ---------------------------------------------------------------------
      1         14           0        0.472686   -0.812057    0.378653
      2          6           0       -1.889180    1.151526    0.371528
      3         16           0       -1.448228   -0.433798   -0.458496
      4          1           0       -2.902993    1.388920    0.051257
      5          1           0       -1.217244    1.948754    0.057931
      6          1           0       -1.872589    1.041973    1.455307
      7         17           0        1.914989    0.582018   -0.205313
      8          1           0        0.886353   -2.133998   -0.119771
      9          1           0        0.440791   -0.739543    1.851232
 ---------------------------------------------------------------------

 SCF Done:  E(RHF) =  -1187.04871979     A.U. after    2 cycles

 The electronic state is 1-A.
 Alpha  occ. eigenvalues -- -105.56030 -93.95126 -69.60355 -11.28408 -10.61034
 Alpha  occ. eigenvalues --   -8.23450  -7.77918  -7.77612  -7.77604  -6.26812
 Alpha  occ. eigenvalues --   -6.21239  -6.21105  -6.20900  -4.02215  -4.02119
 Alpha  occ. eigenvalues --   -4.02041  -1.07477  -1.04811  -0.89915  -0.72878
 Alpha  occ. eigenvalues --   -0.61397  -0.61241  -0.55902  -0.54177  -0.51516
 Alpha  occ. eigenvalues --   -0.48590  -0.45953  -0.43734  -0.37988
 Alpha virt. eigenvalues --    0.03463   0.04370   0.04851   0.05216   0.06502
 Alpha virt. eigenvalues --    0.07035   0.08151   0.09729   0.10416   0.12387
 Alpha virt. eigenvalues --    0.12656   0.13931   0.14141   0.14672   0.15600

 Mulliken charges:
               1
     1  Si   1.421938
     2  C   -0.675284
     3  S   -0.320683
     4  H    0.157200
     5  H    0.162797
     6  H    0.141355
     7  Cl  -0.560615
     8  H   -0.183827
     9  H   -0.142881
 Sum of Mulliken charges =  -0.00000

 Dipole moment (field-independent basis, Debye):
    X=             -1.2097    Y=              0.3164    Z=              1.3773  Tot=              1.8602

 Test job not archived.
 1\1\GINC-SE364\SP\RHF\Aug-CC-pVDZ\C1H5Cl1S1Si1\OHZDE\08-Apr-2025\0\\#t
  hf aug-cc-pvdz iop(5/13=1,5/36=2,99/5=2) pseudo=read geom=check guess
 =(read,tcheck) scf=(maxcycle=1)\\title\\0,1\Si,0,0.472686,-0.812057,0.
 378653\C,0,-1.88918,1.151526,0.371528\S,0,-1.448228,-0.433798,-0.45849
 6\H,0,-2.902993,1.38892,0.051257\H,0,-1.217244,1.948754,0.057931\H,0,-
 1.872589,1.041973,1.455307\Cl,0,1.914989,0.582018,-0.205313\H,0,0.8863
 53,-2.133998,-0.119771\H,0,0.440791,-0.739543,1.851232\\Version=ES64L-
 G16RevC.01\State=1-A\HF=-1187.0487198\RMSD=4.385e-03\Dipole=-0.4759445

 Normal termination of Gaussian 16 at Tue Apr  8 23:47:19 2025.
