 Gaussian 16, Revision C.01,

 ----------------------------------------------------------------------
 #t hf aug-cc-pvdz symm=none int=(grid=ultrafine) guess=(read,tcheck) s
 table=(opt,rrhf)
 ----------------------------------------------------------------------
 -----
 title
 -----
 Symbolic Z-matrix:
 Charge =  0 Multiplicity = 1

 SCF Done:  E(RHF) =  -585.098772588     A.U. after   15 cycles
 Normal termination of Gaussian 16 at Wed Apr  9 00:47:17 2025.
 Gaussian 16:  ES64L-G16RevC.01  3-Jul-2019

 ----------------------------------------------------------------------
 #t hf aug-cc-pvdz iop(5/13=1,5/36=2,99/5=2) pseudo=read geom=check gue
 ss=(read,tcheck) scf=(maxcycle=1)
 ----------------------------------------------------------------------
 -----
 title
 -----
 Structure from the checkpoint file:  "BDE49_nonexpt_804_mol1.chk"
 Charge =  0 Multiplicity = 1

                         Standard orientation:
 ---------------------------------------------------------------------
 Center     Atomic      Atomic             Coordinates (Angstroms)
 Number     Number       Type             X           Y           Z
 ---------------------------------------------------------------------
      1          6           0        0.308720   -0.328606    0.548319
      2          6           0        1.080351   -1.265516   -0.151380
      3          6           0        2.337305   -0.931999   -0.649053
      4          6           0        2.850514    0.349616   -0.460221
      5          6           0        2.094663    1.292225    0.232923
      6          6           0        0.837770    0.956027    0.730676
      7          5           0       -2.622888    1.553248   -0.806863
      8          1           0        2.918162   -1.676428   -1.182602
      9          1           0        3.829927    0.609249   -0.845442
     10          1           0        2.485386    2.291323    0.392378
     11          1           0        0.262126    1.696807    1.276377
     12          1           0        0.692648   -2.267993   -0.302637
     13          6           0       -1.068421   -0.682483    1.056799
     14         14           0       -2.423422   -0.371321   -0.245135
     15          1           0       -2.284551    2.456758   -0.105859
     16          1           0       -3.149750    1.834505   -1.838864
     17          1           0       -2.185133   -1.267476   -1.406095
     18          1           0       -3.749019   -0.750299    0.332732
     19          1           0       -1.312073   -0.094102    1.946927
     20          1           0       -1.110793   -1.735682    1.350904
 ---------------------------------------------------------------------

 SCF Done:  E(RHF) =  -585.441808023     A.U. after    2 cycles

 The electronic state is 1-A.
 Alpha  occ. eigenvalues --  -69.51289 -11.25454 -11.24406 -11.24375 -11.23878
 Alpha  occ. eigenvalues --  -11.23841 -11.23831 -11.22957  -7.60677  -6.18524
 Alpha  occ. eigenvalues --   -3.93880  -3.93850  -3.93828  -1.15702  -1.04830
 Alpha  occ. eigenvalues --   -1.01512  -0.93758  -0.83532  -0.81137  -0.75335
 Alpha  occ. eigenvalues --   -0.70682  -0.66067  -0.65078  -0.64088  -0.59768
 Alpha  occ. eigenvalues --   -0.58674  -0.55840  -0.53470  -0.51077  -0.50150
 Alpha  occ. eigenvalues --   -0.49712  -0.47152  -0.45741  -0.41807  -0.34631
 Alpha  occ. eigenvalues --   -0.32798
 Alpha virt. eigenvalues --    0.02890   0.03209   0.03560   0.03825   0.04060
 Alpha virt. eigenvalues --    0.04782   0.05142   0.06092   0.06813   0.07673
 Alpha virt. eigenvalues --    0.07785   0.08441   0.09439   0.09630   0.09968

 Mulliken charges:
               1
     1  C    1.300806
     2  C    0.283804
     3  C    0.039167
     4  C    0.132730
     5  C    0.004911
     6  C    0.464768
     7  B   -1.187480
     8  H   -0.236503
     9  H   -0.214762
    10  H   -0.243697
    11  H   -0.328586
    12  H   -0.334410
    13  C   -1.149966
    14  Si   0.975055
    15  H    0.431207
    16  H    0.476428
    17  H   -0.136100
    18  H   -0.184197
    19  H   -0.009023
    20  H   -0.084153
 Sum of Mulliken charges =  -0.00000

 Dipole moment (field-independent basis, Debye):
    X=              0.1544    Y=              0.1580    Z=              0.3422  Tot=              0.4073

 Test job not archived.
 1\1\GINC-SE253\SP\RHF\Aug-CC-pVDZ\C7H11B1Si1\OHZDE\09-Apr-2025\0\\#t h
 f aug-cc-pvdz iop(5/13=1,5/36=2,99/5=2) pseudo=read geom=check guess=(
 read,tcheck) scf=(maxcycle=1)\\title\\0,1\C,0,0.30872,-0.328606,0.5483
 19\C,0,1.080351,-1.265516,-0.15138\C,0,2.337305,-0.931999,-0.649053\C,
 0,2.850514,0.349616,-0.460221\C,0,2.094663,1.292225,0.232923\C,0,0.837
 77,0.956027,0.730676\B,0,-2.622888,1.553248,-0.806863\H,0,2.918162,-1.
 676428,-1.182602\H,0,3.829927,0.609249,-0.845442\H,0,2.485386,2.291323
 ,0.392378\H,0,0.262126,1.696807,1.276377\H,0,0.692648,-2.267993,-0.302

 Normal termination of Gaussian 16 at Wed Apr  9 00:47:29 2025.
