 Gaussian 16, Revision C.01,

 ----------------------------------------------------------------------
 #t hf aug-cc-pvdz symm=none int=(grid=ultrafine) guess=(read,tcheck) s
 table=opt
 ----------------------------------------------------------------------
 -----
 title
 -----
 Symbolic Z-matrix:
 Charge =  0 Multiplicity = 2

 SCF Done:  E(UHF) =  -711.600328081     A.U. after   15 cycles

 1\1\GINC-SE102\Stability\UHF\Aug-CC-pVDZ\B1F4Si1\OHZDE\09-Apr-2025\0\\
 #t hf aug-cc-pvdz symm=none int=(grid=ultrafine) guess=(read,tcheck) s
 table=opt\\title\\0,2\F,0,-2.621452,0.093324,0.000019\B,0,-1.538552,-0
 .625136,0.000115\Si,0,0.386229,-0.015778,-0.000002\F,0,1.084329,-0.631
 812,-1.285447\F,0,0.70671,1.541756,-0.00024\F,0,1.084364,-0.631426,1.2
 85608\\Version=ES64L-G16RevC.01\HF=-711.6003281\S2=0.757937\S2-1=0.\S2
 A=0.750015\RMSD=3.616e-09\Dipole=-0.5648298,-0.1123554,0.0000262\Quadr
 upole=-0.6078932,-0.6316804,1.2395737,0.4628031,-0.0000471,0.0002766\P

 Normal termination of Gaussian 16 at Wed Apr  9 00:31:02 2025.
 Gaussian 16:  ES64L-G16RevC.01  3-Jul-2019

 ----------------------------------------------------------------------
 #t hf aug-cc-pvdz iop(5/13=1,5/36=2,99/5=2) pseudo=read geom=check gue
 ss=(read,tcheck) scf=(maxcycle=1)
 ----------------------------------------------------------------------
 -----
 title
 -----
 Structure from the checkpoint file:  "BDE49_nonexpt_359_mol2.chk"
 Charge =  0 Multiplicity = 2

                         Standard orientation:
 ---------------------------------------------------------------------
 Center     Atomic      Atomic             Coordinates (Angstroms)
 Number     Number       Type             X           Y           Z
 ---------------------------------------------------------------------
      1          9           0       -2.621452    0.093323    0.000019
      2          5           0       -1.538552   -0.625136    0.000115
      3         14           0        0.386229   -0.015778   -0.000002
      4          9           0        1.084329   -0.631812   -1.285447
      5          9           0        0.706710    1.541756   -0.000240
      6          9           0        1.084364   -0.631426    1.285608
 ---------------------------------------------------------------------

 SCF Done:  E(UHF) =  -712.008138413     A.U. after    2 cycles

 The electronic state is 2-A.
 Alpha  occ. eigenvalues --  -69.68604 -26.52666 -26.48953 -26.48919 -26.48918
 Alpha  occ. eigenvalues --   -7.72903  -6.34522  -4.09774  -4.09769  -4.09571
 Alpha  occ. eigenvalues --   -1.66050  -1.62760  -1.59458  -1.59419  -0.84914
 Alpha  occ. eigenvalues --   -0.81572  -0.74493  -0.73799  -0.73796  -0.71651
 Alpha  occ. eigenvalues --   -0.70373  -0.67735  -0.67673  -0.64857  -0.64843
 Alpha  occ. eigenvalues --   -0.63131  -0.58853  -0.37593
 Alpha virt. eigenvalues --    0.01701   0.04237   0.05258   0.05743   0.07542
 Alpha virt. eigenvalues --    0.08006   0.08034   0.08545   0.14626   0.17880
 Alpha virt. eigenvalues --    0.19053   0.19892   0.22883   0.23976   0.25051

  Beta  occ. eigenvalues --  -69.68485 -26.52321 -26.48921 -26.48920 -26.48810
  Beta  occ. eigenvalues --   -7.71118  -6.34316  -4.09682  -4.09674  -4.09272
  Beta  occ. eigenvalues --   -1.65165  -1.62629  -1.59464  -1.59146  -0.83509
  Beta  occ. eigenvalues --   -0.80693  -0.73695  -0.73561  -0.72466  -0.70363
  Beta  occ. eigenvalues --   -0.69471  -0.67732  -0.67337  -0.64835  -0.64660
  Beta  occ. eigenvalues --   -0.63062  -0.54581
  Beta virt. eigenvalues --    0.02851   0.02962   0.04722   0.05482   0.07505
  Beta virt. eigenvalues --    0.08033   0.08306   0.08726   0.09436   0.15234
  Beta virt. eigenvalues --    0.19566   0.19782   0.20923   0.24281   0.24486

 Mulliken charges and spin densities:
               1          2
     1  F   -0.532629  -0.017599
     2  B    0.082767   0.955040
     3  Si   2.936868   0.055386
     4  F   -0.830346   0.006665
     5  F   -0.826315  -0.006156
     6  F   -0.830346   0.006665
 Sum of Mulliken charges =  -0.00000   1.00000

 Dipole moment (field-independent basis, Debye):
    X=             -1.4162    Y=             -0.1440    Z=              0.0000  Tot=              1.4235
                          Isotropic Fermi Contact Couplings
        Atom                 a.u.       MegaHertz       Gauss      10(-4) cm-1
     1  F(19)              0.05611     236.05828      84.23146      78.74057
     2  B(11)              0.28437     407.89263     145.54623     136.05833
     3  Si(29)             0.23752    -211.08742     -75.32124     -70.41118
     4  F(19)             -0.00161      -6.79031      -2.42295      -2.26500
     5  F(19)              0.03240     136.30994      48.63878      45.46810
     6  F(19)             -0.00161      -6.79055      -2.42304      -2.26508
 --------------------------------------------------------
       Center         ----  Spin Dipole Couplings  ----

 Normal termination of Gaussian 16 at Wed Apr  9 00:31:04 2025.
