 Gaussian 16, Revision C.01,

 ----------------------------------------------------------------------
 #t hf aug-cc-pvdz symm=none int=(grid=ultrafine) guess=(read,tcheck) s
 table=opt
 ----------------------------------------------------------------------
 -----
 title
 -----
 Symbolic Z-matrix:
 Charge =  0 Multiplicity = 2

 SCF Done:  E(UHF) =  -253.197241418     A.U. after   15 cycles
 Normal termination of Gaussian 16 at Tue Apr  8 22:39:23 2025.
 Gaussian 16:  ES64L-G16RevC.01  3-Jul-2019

 ----------------------------------------------------------------------
 #t hf aug-cc-pvdz iop(5/13=1,5/36=2,99/5=2) pseudo=read geom=check gue
 ss=(read,tcheck) scf=(maxcycle=1)
 ----------------------------------------------------------------------
 -----
 title
 -----
 Structure from the checkpoint file:  "BDE49_expt_1275_mol3.chk"
 Charge =  0 Multiplicity = 2

                         Standard orientation:
 ---------------------------------------------------------------------
 Center     Atomic      Atomic             Coordinates (Angstroms)
 Number     Number       Type             X           Y           Z
 ---------------------------------------------------------------------
      1          7           0        0.000000   -0.000000    0.603513
      2          9           0        0.000000    1.064992   -0.234699
      3          9           0       -0.000000   -1.064992   -0.234699
 ---------------------------------------------------------------------

 SCF Done:  E(UHF) =  -253.423379027     A.U. after    2 cycles

 The electronic state is 2-B1.
 Alpha  occ. eigenvalues --  -26.54745 -26.54740 -15.77613  -1.74053  -1.63289
 Alpha  occ. eigenvalues --   -1.13731  -0.85999  -0.81785  -0.80208  -0.70418
 Alpha  occ. eigenvalues --   -0.64840  -0.62053  -0.56880
 Alpha virt. eigenvalues --    0.11003   0.12272   0.13183   0.14888   0.21890
 Alpha virt. eigenvalues --    0.23584   0.26843   0.27594   0.27658   0.29122
 Alpha virt. eigenvalues --    0.31329   0.36143   0.45710   0.49996   0.70530

  Beta  occ. eigenvalues --  -26.54421 -26.54415 -15.73521  -1.71308  -1.62472
  Beta  occ. eigenvalues --   -1.03793  -0.80981  -0.78868  -0.72785  -0.65758
  Beta  occ. eigenvalues --   -0.64906  -0.59563
  Beta virt. eigenvalues --    0.04981   0.11190   0.12547   0.13935   0.17439
  Beta virt. eigenvalues --    0.24128   0.24160   0.27694   0.27853   0.28459
  Beta virt. eigenvalues --    0.29500   0.33690   0.36186   0.45875   0.50291

 Mulliken charges and spin densities:
               1          2
     1  N    1.065529   0.997355
     2  F   -0.532765   0.001323
     3  F   -0.532765   0.001323
 Sum of Mulliken charges =  -0.00000   1.00000

 Dipole moment (field-independent basis, Debye):
    X=              0.0000    Y=             -0.0000    Z=              0.0835  Tot=              0.0835
                          Isotropic Fermi Contact Couplings
        Atom                 a.u.       MegaHertz       Gauss      10(-4) cm-1
     1  N(14)              0.36164     116.84621      41.69363      38.97570
     2  F(19)              0.05805     244.23818      87.15026      81.46909
     3  F(19)              0.05805     244.23818      87.15026      81.46909
 --------------------------------------------------------
       Center         ----  Spin Dipole Couplings  ----
                      3XX-RR        3YY-RR        3ZZ-RR
 --------------------------------------------------------
     1   Atom        2.696230     -1.276524     -1.419706

 Normal termination of Gaussian 16 at Tue Apr  8 22:39:24 2025.
