 Gaussian 16, Revision C.01,

 ----------------------------------------------------------------------
 #t hf aug-cc-pvdz symm=none int=(grid=ultrafine) guess=(read,tcheck) s
 table=(opt,rrhf)
 ----------------------------------------------------------------------
 -----
 title
 -----
 Symbolic Z-matrix:
 Charge =  0 Multiplicity = 1

 SCF Done:  E(RHF) =  -596.288706458     A.U. after   15 cycles
 Normal termination of Gaussian 16 at Tue Apr  8 23:03:43 2025.
 Gaussian 16:  ES64L-G16RevC.01  3-Jul-2019

 ----------------------------------------------------------------------
 #t hf aug-cc-pvdz iop(5/13=1,5/36=2,99/5=2) pseudo=read geom=check gue
 ss=(read,tcheck) scf=(maxcycle=1)
 ----------------------------------------------------------------------
 -----
 title
 -----
 Structure from the checkpoint file:  "BDE49_expt_322_mol1.chk"
 Charge =  0 Multiplicity = 1

                         Standard orientation:
 ---------------------------------------------------------------------
 Center     Atomic      Atomic             Coordinates (Angstroms)
 Number     Number       Type             X           Y           Z
 ---------------------------------------------------------------------
      1          7           0        1.189102    0.404613    0.570324
      2          7           0        2.438136    0.245035   -0.021518
      3          8           0        2.614058   -0.772449   -0.675780
      4          8           0        3.225527    1.161699    0.136419
      5          6           0        0.374813   -0.789618    0.799662
      6          1           0        1.263669    1.097060    1.304007
      7          7           0       -1.360464   -0.116754   -0.892826
      8          7           0       -2.406348    0.276698   -0.072216
      9          8           0       -2.756026   -0.506825    0.801028
     10          8           0       -2.911476    1.357392   -0.328353
     11          6           0       -0.465405   -1.166578   -0.427508
     12          1           0       -0.965212    0.700640   -1.339575
     13          1           0        0.187292   -1.402033   -1.267749
     14          1           0       -1.062557   -2.048781   -0.199034
     15          1           0       -0.283619   -0.556168    1.637464
     16          1           0        1.004323   -1.639224    1.079099
 ---------------------------------------------------------------------

 SCF Done:  E(RHF) =  -596.871228581     A.U. after    2 cycles

 The electronic state is 1-A.
 Alpha  occ. eigenvalues --  -20.61022 -20.60840 -20.60258 -20.60135 -15.84347
 Alpha  occ. eigenvalues --  -15.83684 -15.61156 -15.60258 -11.32323 -11.31622
 Alpha  occ. eigenvalues --   -1.70422  -1.69635  -1.53938  -1.53086  -1.33074
 Alpha  occ. eigenvalues --   -1.31443  -1.10578  -1.01914  -0.94593  -0.89386
 Alpha  occ. eigenvalues --   -0.84405  -0.83795  -0.80434  -0.79691  -0.79028
 Alpha  occ. eigenvalues --   -0.76553  -0.72419  -0.70967  -0.66347  -0.61674
 Alpha  occ. eigenvalues --   -0.59271  -0.53968  -0.53776  -0.52076  -0.51016
 Alpha  occ. eigenvalues --   -0.50137  -0.48539  -0.47796  -0.47081
 Alpha virt. eigenvalues --    0.02755   0.03850   0.04035   0.04721   0.05359
 Alpha virt. eigenvalues --    0.05724   0.06211   0.06321   0.09612   0.10046
 Alpha virt. eigenvalues --    0.11761   0.12587   0.13637   0.14250   0.14474

 Mulliken charges:
               1
     1  N    0.286302
     2  N    2.086430
     3  O   -1.313932
     4  O   -1.205241
     5  C   -0.429904
     6  H    0.231148
     7  N    0.305160
     8  N    2.328798
     9  O   -1.342230
    10  O   -1.301898
    11  C   -0.477795
    12  H    0.275663
    13  H    0.134402
    14  H    0.129354
    15  H    0.090838
    16  H    0.202906
 Sum of Mulliken charges =  -0.00000

 Dipole moment (field-independent basis, Debye):
    X=              0.7223    Y=             -1.4736    Z=              1.1581  Tot=              2.0086

 Test job not archived.
 1\1\GINC-SE334\SP\RHF\Aug-CC-pVDZ\C2H6N4O4\OHZDE\08-Apr-2025\0\\#t hf
 aug-cc-pvdz iop(5/13=1,5/36=2,99/5=2) pseudo=read geom=check guess=(re
 ad,tcheck) scf=(maxcycle=1)\\title\\0,1\N,0,1.189102,0.404613,0.570324
 \N,0,2.438136,0.245035,-0.021518\O,0,2.614058,-0.772449,-0.67578\O,0,3
 .225527,1.161699,0.136419\C,0,0.374813,-0.789618,0.799662\H,0,1.263669
 ,1.09706,1.304007\N,0,-1.360464,-0.116754,-0.892826\N,0,-2.406348,0.27
 6698,-0.072216\O,0,-2.756026,-0.506825,0.801028\O,0,-2.911476,1.357392
 ,-0.328353\C,0,-0.465405,-1.166578,-0.427508\H,0,-0.965212,0.70064,-1.

 Normal termination of Gaussian 16 at Tue Apr  8 23:03:50 2025.
