 Gaussian 16, Revision C.01,

 ----------------------------------------------------------------------
 #t hf aug-cc-pvdz symm=none int=(grid=ultrafine) guess=(read,tcheck) s
 table=(opt,rrhf)
 ----------------------------------------------------------------------
 -----
 title
 -----
 Symbolic Z-matrix:
 Charge =  0 Multiplicity = 1

 SCF Done:  E(RHF) =  -282.747949778     A.U. after   14 cycles
 Normal termination of Gaussian 16 at Tue Apr  8 22:43:30 2025.
 Gaussian 16:  ES64L-G16RevC.01  3-Jul-2019

 ----------------------------------------------------------------------
 #t hf aug-cc-pvdz iop(5/13=1,5/36=2,99/5=2) pseudo=read geom=check gue
 ss=(read,tcheck) scf=(maxcycle=1)
 ----------------------------------------------------------------------
 -----
 title
 -----
 Structure from the checkpoint file:  "BDE49_expt_1478_mol1.chk"
 Charge =  0 Multiplicity = 1

                         Standard orientation:
 ---------------------------------------------------------------------
 Center     Atomic      Atomic             Coordinates (Angstroms)
 Number     Number       Type             X           Y           Z
 ---------------------------------------------------------------------
      1          6           0       -0.721781    0.469173    0.000361
      2          8           0        0.102173   -0.723430   -0.000071
      3          7           0        1.488296   -0.527679    0.000206
      4          8           0        1.828732    0.603427   -0.000280
      5          6           0       -2.164437    0.004545   -0.000200
      6          1           0       -0.478271    1.066954   -0.882537
      7          1           0       -0.478685    1.066102    0.883946
      8          1           0       -2.379613   -0.595655   -0.886209
      9          1           0       -2.831423    0.870582    0.000069
     10          1           0       -2.380018   -0.596515    0.885128
 ---------------------------------------------------------------------

 SCF Done:  E(RHF) =  -283.029748282     A.U. after    2 cycles

 The electronic state is 1-A.
 Alpha  occ. eigenvalues --  -20.63506 -20.61439 -15.72317 -11.30713 -11.24495
 Alpha  occ. eigenvalues --   -1.66930  -1.49265  -1.07102  -0.95767  -0.85233
 Alpha  occ. eigenvalues --   -0.77880  -0.73553  -0.71667  -0.63765  -0.58870
 Alpha  occ. eigenvalues --   -0.57185  -0.54125  -0.53185  -0.47291  -0.45933
 Alpha virt. eigenvalues --    0.03651   0.04579   0.04676   0.05634   0.07152
 Alpha virt. eigenvalues --    0.07563   0.10670   0.12198   0.13600   0.14571
 Alpha virt. eigenvalues --    0.15673   0.16030   0.16714   0.16792   0.16955

 Mulliken charges:
               1
     1  C    0.429396
     2  O   -1.380276
     3  N    1.670550
     4  O   -0.968821
     5  C   -0.543699
     6  H    0.132963
     7  H    0.132888
     8  H    0.176256
     9  H    0.174498
    10  H    0.176246
 Sum of Mulliken charges =  -0.00000

 Dipole moment (field-independent basis, Debye):
    X=             -2.2098    Y=              1.3683    Z=              0.0004  Tot=              2.5992

 Test job not archived.
 1\1\GINC-SE334\SP\RHF\Aug-CC-pVDZ\C2H5N1O2\OHZDE\08-Apr-2025\0\\#t hf
 aug-cc-pvdz iop(5/13=1,5/36=2,99/5=2) pseudo=read geom=check guess=(re
 ad,tcheck) scf=(maxcycle=1)\\title\\0,1\C,0,-0.721781,0.469173,0.00036
 1\O,0,0.102173,-0.72343,-0.000071\N,0,1.488296,-0.527679,0.000206\O,0,
 1.828732,0.603427,-0.00028\C,0,-2.164437,0.004545,-0.0002\H,0,-0.47827
 1,1.066954,-0.882537\H,0,-0.478685,1.066102,0.883946\H,0,-2.379613,-0.
 595655,-0.886209\H,0,-2.831423,0.870582,0.000069\H,0,-2.380018,-0.5965
 15,0.885128\\Version=ES64L-G16RevC.01\State=1-A\HF=-283.0297483\RMSD=1

 Normal termination of Gaussian 16 at Tue Apr  8 22:43:33 2025.
