 Gaussian 16, Revision C.01,

 ----------------------------------------------------------------------
 #t hf aug-cc-pvdz symm=none int=(grid=ultrafine) guess=(read,tcheck) s
 table=(opt,rrhf)
 ----------------------------------------------------------------------
 -----
 title
 -----
 Symbolic Z-matrix:
 Charge =  0 Multiplicity = 1

 SCF Done:  E(RHF) =  -1304.79797053     A.U. after   16 cycles
 Normal termination of Gaussian 16 at Wed Apr  9 00:11:13 2025.
 Gaussian 16:  ES64L-G16RevC.01  3-Jul-2019

 ----------------------------------------------------------------------
 #t hf aug-cc-pvdz iop(5/13=1,5/36=2,99/5=2) pseudo=read geom=check gue
 ss=(read,tcheck) scf=(maxcycle=1)
 ----------------------------------------------------------------------
 -----
 title
 -----
 Structure from the checkpoint file:  "BDE49_nonexpt_2349_mol1.chk"
 Charge =  0 Multiplicity = 1

                         Standard orientation:
 ---------------------------------------------------------------------
 Center     Atomic      Atomic             Coordinates (Angstroms)
 Number     Number       Type             X           Y           Z
 ---------------------------------------------------------------------
      1         14           0        0.894667    1.536906    0.088217
      2         14           0       -1.255111    1.062766   -0.748574
      3          6           0        1.763825   -0.130413    0.496801
      4          8           0        2.333568   -0.509284    1.446160
      5          1           0        0.899013    2.340023    1.328455
      6          1           0        1.765605    2.162297   -0.930937
      7         17           0        1.616118   -1.284765   -1.030029
      8          6           0       -1.925785   -0.329782    0.433111
      9          1           0       -1.254792    0.694220   -2.182864
     10          1           0       -2.126196    2.252546   -0.568359
     11          8           0       -1.425193   -0.376695    1.539209
     12          6           0       -3.022765   -1.273937    0.001710
     13          1           0       -2.672228   -1.873889   -0.845022
     14          1           0       -3.893902   -0.709152   -0.347094
     15          1           0       -3.303948   -1.927817    0.828638
 ---------------------------------------------------------------------

 SCF Done:  E(RHF) =  -1305.19973162     A.U. after    2 cycles

 The electronic state is 1-A.
 Alpha  occ. eigenvalues -- -105.55820 -69.57219 -69.55942 -20.60627 -20.56405
 Alpha  occ. eigenvalues --  -11.41369 -11.35002 -11.25888 -10.60642  -7.77525
 Alpha  occ. eigenvalues --   -7.77224  -7.77213  -6.24308  -6.23133  -3.99689
 Alpha  occ. eigenvalues --   -3.99605  -3.99593  -3.98458  -3.98449  -3.98445
 Alpha  occ. eigenvalues --   -1.55062  -1.49046  -1.05454  -1.03014  -0.86589
 Alpha  occ. eigenvalues --   -0.82329  -0.75430  -0.72019  -0.65909  -0.64950
 Alpha  occ. eigenvalues --   -0.64118  -0.62304  -0.62016  -0.60356  -0.55916
 Alpha  occ. eigenvalues --   -0.53511  -0.51923  -0.50248  -0.46865  -0.46182
 Alpha  occ. eigenvalues --   -0.44744  -0.41928  -0.40035
 Alpha virt. eigenvalues --    0.02644   0.03294   0.04328   0.04674   0.05494
 Alpha virt. eigenvalues --    0.06223   0.06390   0.07047   0.07606   0.07926
 Alpha virt. eigenvalues --    0.08780   0.09098   0.09321   0.10184   0.10216

 Mulliken charges:
               1
     1  Si   0.715166
     2  Si   0.609587
     3  C    0.588441
     4  O   -0.955133
     5  H   -0.076800
     6  H   -0.120120
     7  Cl  -0.258420
     8  C    0.689781
     9  H   -0.027837
    10  H   -0.140744
    11  O   -1.083000
    12  C   -0.561236
    13  H    0.244957
    14  H    0.222619
    15  H    0.152739
 Sum of Mulliken charges =  -0.00000

 Dipole moment (field-independent basis, Debye):
    X=             -3.1155    Y=              2.5830    Z=             -2.1512  Tot=              4.5832

 Test job not archived.
 1\1\GINC-SE094\SP\RHF\Aug-CC-pVDZ\C3H7Cl1O2Si2\OHZDE\09-Apr-2025\0\\#t
  hf aug-cc-pvdz iop(5/13=1,5/36=2,99/5=2) pseudo=read geom=check guess
 =(read,tcheck) scf=(maxcycle=1)\\title\\0,1\Si,0,0.894667,1.536906,0.0
 88217\Si,0,-1.255111,1.062766,-0.748574\C,0,1.763825,-0.130413,0.49680
 1\O,0,2.333568,-0.509283,1.44616\H,0,0.899012,2.340023,1.328455\H,0,1.
 765604,2.162297,-0.930937\Cl,0,1.616118,-1.284765,-1.030029\C,0,-1.925
 785,-0.329782,0.433111\H,0,-1.254792,0.69422,-2.182864\H,0,-2.126197,2
 .252546,-0.568359\O,0,-1.425193,-0.376695,1.539209\C,0,-3.022765,-1.27

 Normal termination of Gaussian 16 at Wed Apr  9 00:11:20 2025.
