 Gaussian 16, Revision C.01,

 ----------------------------------------------------------------------
 #t hf aug-cc-pvdz symm=none int=(grid=ultrafine) guess=(read,tcheck) s
 table=(opt,rrhf)
 ----------------------------------------------------------------------
 -----
 title
 -----
 Symbolic Z-matrix:
 Charge =  0 Multiplicity = 1

 SCF Done:  E(RHF) =  -207.851500940     A.U. after   11 cycles

 1\1\GINC-SE273\Stability\RHF\Aug-CC-pVDZ\C4H12B2\OHZDE\08-Apr-2025\0\\
 #t hf aug-cc-pvdz symm=none int=(grid=ultrafine) guess=(read,tcheck) s
 table=(opt,rrhf)\\title\\0,1\B,0,0.838325,0.000007,-0.00001\B,0,-0.838
 325,-0.000002,-0.000001\C,0,1.655304,-1.011407,-0.900076\H,0,1.82898,-
 1.898619,-0.269351\H,0,2.648884,-0.645178,-1.182007\H,0,1.14123,-1.372
 581,-1.795396\C,0,-1.655294,-1.011409,0.900081\H,0,-1.82897,-1.898629,
 0.269366\H,0,-2.648874,-0.645181,1.182015\H,0,-1.141214,-1.372572,1.79
 5402\C,0,1.655304,1.011411,0.900066\H,0,2.648884,0.645179,1.181994\H,0

 Normal termination of Gaussian 16 at Tue Apr  8 23:56:51 2025.
 Gaussian 16:  ES64L-G16RevC.01  3-Jul-2019

 ----------------------------------------------------------------------
 #t hf aug-cc-pvdz iop(5/13=1,5/36=2,99/5=2) pseudo=read geom=check gue
 ss=(read,tcheck) scf=(maxcycle=1)
 ----------------------------------------------------------------------
 -----
 title
 -----
 Structure from the checkpoint file:  "BDE49_nonexpt_1_mol1.chk"
 Charge =  0 Multiplicity = 1

                         Standard orientation:
 ---------------------------------------------------------------------
 Center     Atomic      Atomic             Coordinates (Angstroms)
 Number     Number       Type             X           Y           Z
 ---------------------------------------------------------------------
      1          5           0       -0.838325   -0.000007   -0.000010
      2          5           0        0.838325    0.000002   -0.000001
      3          6           0       -1.655304    1.011407   -0.900076
      4          1           0       -1.828980    1.898619   -0.269351
      5          1           0       -2.648884    0.645178   -1.182007
      6          1           0       -1.141230    1.372581   -1.795396
      7          6           0        1.655294    1.011409    0.900081
      8          1           0        1.828970    1.898629    0.269366
      9          1           0        2.648874    0.645181    1.182015
     10          1           0        1.141214    1.372572    1.795402
     11          6           0       -1.655304   -1.011411    0.900066
     12          1           0       -2.648884   -0.645179    1.181994
     13          1           0       -1.141231   -1.372577    1.795390
     14          1           0       -1.828980   -1.898629    0.269350
     15          6           0        1.655313   -1.011403   -0.900068
     16          1           0        2.648894   -0.645168   -1.181991
     17          1           0        1.141247   -1.372575   -1.795393
     18          1           0        1.828990   -1.898618   -0.269347
 ---------------------------------------------------------------------

 SCF Done:  E(RHF) =  -208.084924630     A.U. after    2 cycles

 The electronic state is 1-A.
 Alpha  occ. eigenvalues --  -11.20067 -11.20066 -11.20050 -11.20044  -7.55481
 Alpha  occ. eigenvalues --   -7.55413  -0.97677  -0.95990  -0.92012  -0.91760
 Alpha  occ. eigenvalues --   -0.67315  -0.59270  -0.58087  -0.56007  -0.55896
 Alpha  occ. eigenvalues --   -0.54103  -0.53657  -0.53409  -0.53014  -0.52240
 Alpha  occ. eigenvalues --   -0.45363  -0.45267  -0.38216
 Alpha virt. eigenvalues --    0.03317   0.03538   0.03691   0.03751   0.05993
 Alpha virt. eigenvalues --    0.06110   0.06361   0.06560   0.07122   0.08889
 Alpha virt. eigenvalues --    0.08951   0.09003   0.09888   0.10265   0.10555

 Mulliken charges:
               1
     1  B    0.844011
     2  B    0.844011
     3  C   -0.446737
     4  H    0.149892
     5  H   -0.068097
     6  H   -0.057063
     7  C   -0.446740
     8  H    0.149892
     9  H   -0.068095
    10  H   -0.057064
    11  C   -0.446737
    12  H   -0.068094
    13  H   -0.057063
    14  H    0.149888
    15  C   -0.446737
    16  H   -0.068093
    17  H   -0.057065
    18  H    0.149891
 Sum of Mulliken charges =  -0.00000

 Dipole moment (field-independent basis, Debye):
    X=              0.0000    Y=             -0.0000    Z=             -0.0000  Tot=              0.0000

 Test job not archived.
 1\1\GINC-SE273\SP\RHF\Aug-CC-pVDZ\C4H12B2\OHZDE\08-Apr-2025\0\\#t hf a
 ug-cc-pvdz iop(5/13=1,5/36=2,99/5=2) pseudo=read geom=check guess=(rea
 d,tcheck) scf=(maxcycle=1)\\title\\0,1\B,0,0.838325,0.000007,-0.00001\
 B,0,-0.838325,-0.000002,-0.000001\C,0,1.655304,-1.011407,-0.900076\H,0
 ,1.82898,-1.898619,-0.269351\H,0,2.648884,-0.645178,-1.182007\H,0,1.14
 123,-1.372581,-1.795396\C,0,-1.655294,-1.011409,0.900081\H,0,-1.82897,
 -1.898629,0.269366\H,0,-2.648874,-0.645181,1.182015\H,0,-1.141214,-1.3
 72572,1.795402\C,0,1.655304,1.011411,0.900066\H,0,2.648884,0.645179,1.

 Normal termination of Gaussian 16 at Tue Apr  8 23:56:58 2025.
