 Gaussian 16, Revision C.01,

 ----------------------------------------------------------------------
 #t hf aug-cc-pvdz symm=none int=(grid=ultrafine) guess=(read,tcheck) s
 table=(opt,rrhf)
 ----------------------------------------------------------------------
 -----
 title
 -----
 Symbolic Z-matrix:
 Charge =  0 Multiplicity = 1

 SCF Done:  E(RHF) =  -517.313994168     A.U. after   12 cycles
 Normal termination of Gaussian 16 at Tue Apr  8 23:59:48 2025.
 Gaussian 16:  ES64L-G16RevC.01  3-Jul-2019

 ----------------------------------------------------------------------
 #t hf aug-cc-pvdz iop(5/13=1,5/36=2,99/5=2) pseudo=read geom=check gue
 ss=(read,tcheck) scf=(maxcycle=1)
 ----------------------------------------------------------------------
 -----
 title
 -----
 Structure from the checkpoint file:  "BDE49_nonexpt_2087_mol1.chk"
 Charge =  0 Multiplicity = 1

                         Standard orientation:
 ---------------------------------------------------------------------
 Center     Atomic      Atomic             Coordinates (Angstroms)
 Number     Number       Type             X           Y           Z
 ---------------------------------------------------------------------
      1          7           0        0.436424    1.411001   -0.182242
      2          7           0        0.436424   -1.411001   -0.182242
      3          6           0       -0.974107    1.285363    0.236227
      4          6           0       -1.675009   -0.000000   -0.255144
      5          6           0       -0.974107   -1.285363    0.236227
      6         14           0        1.405883    0.000000    0.105775
      7          1           0        0.523562    1.833569   -1.097507
      8          1           0        0.523562   -1.833569   -1.097507
      9          1           0       -1.006688   -1.304360    1.333669
     10          1           0       -1.527773   -2.167338   -0.097596
     11          1           0       -1.704766   -0.000000   -1.351802
     12          1           0       -2.714130   -0.000000    0.097392
     13          1           0       -1.527773    2.167339   -0.097596
     14          1           0       -1.006688    1.304360    1.333669
     15          1           0        1.802588    0.000000    1.531519
     16          1           0        2.585144    0.000000   -0.787572
 ---------------------------------------------------------------------

 SCF Done:  E(RHF) =  -517.591991638     A.U. after    2 cycles

 The electronic state is 1-A.
 Alpha  occ. eigenvalues --  -69.53818 -15.46534 -15.46506 -11.26338 -11.26330
 Alpha  occ. eigenvalues --  -11.23011  -6.20553  -3.95969  -3.95928  -3.95840
 Alpha  occ. eigenvalues --   -1.18982  -1.14492  -1.01704  -0.89229  -0.81478
 Alpha  occ. eigenvalues --   -0.75748  -0.66929  -0.66780  -0.61699  -0.59462
 Alpha  occ. eigenvalues --   -0.58232  -0.56359  -0.51630  -0.50216  -0.49584
 Alpha  occ. eigenvalues --   -0.47786  -0.41924  -0.39052
 Alpha virt. eigenvalues --    0.03443   0.04160   0.04243   0.04573   0.05615
 Alpha virt. eigenvalues --    0.05779   0.06251   0.06473   0.06591   0.09474
 Alpha virt. eigenvalues --    0.09866   0.10838   0.12032   0.13674   0.13735

 Mulliken charges:
               1
     1  N    0.153966
     2  N    0.153966
     3  C   -0.747501
     4  C   -0.202992
     5  C   -0.747500
     6  Si   0.690944
     7  H    0.125602
     8  H    0.125602
     9  H    0.103601
    10  H    0.068135
    11  H    0.136580
    12  H    0.185305
    13  H    0.068136
    14  H    0.103601
    15  H   -0.099470
    16  H   -0.117975
 Sum of Mulliken charges =  -0.00000

 Dipole moment (field-independent basis, Debye):
    X=             -1.5855    Y=             -0.0000    Z=             -1.5117  Tot=              2.1907

 Test job not archived.
 1\1\GINC-SE341\SP\RHF\Aug-CC-pVDZ\C3H10N2Si1\OHZDE\08-Apr-2025\0\\#t h
 f aug-cc-pvdz iop(5/13=1,5/36=2,99/5=2) pseudo=read geom=check guess=(
 read,tcheck) scf=(maxcycle=1)\\title\\0,1\N,0,0.436424,1.411001,-0.182
 242\N,0,0.436424,-1.411001,-0.182242\C,0,-0.974107,1.285363,0.236227\C
 ,0,-1.675009,0.,-0.255144\C,0,-0.974107,-1.285363,0.236227\Si,0,1.4058
 83,0.,0.105775\H,0,0.523562,1.833569,-1.097507\H,0,0.523562,-1.833569,
 -1.097507\H,0,-1.006688,-1.30436,1.333669\H,0,-1.527773,-2.167338,-0.0
 97596\H,0,-1.704766,0.,-1.351802\H,0,-2.71413,0.,0.097392\H,0,-1.52777

 Normal termination of Gaussian 16 at Tue Apr  8 23:59:54 2025.
