 Gaussian 16, Revision C.01,

 ----------------------------------------------------------------------
 #t hf aug-cc-pvdz symm=none int=(grid=ultrafine) guess=(read,tcheck) s
 table=(opt,rrhf)
 ----------------------------------------------------------------------
 -----
 title
 -----
 Symbolic Z-matrix:
 Charge =  0 Multiplicity = 1

 SCF Done:  E(RHF) =  -436.561875209     A.U. after   12 cycles
 Normal termination of Gaussian 16 at Tue Apr  8 23:27:49 2025.
 Gaussian 16:  ES64L-G16RevC.01  3-Jul-2019

 ----------------------------------------------------------------------
 #t hf aug-cc-pvdz iop(5/13=1,5/36=2,99/5=2) pseudo=read geom=check gue
 ss=(read,tcheck) scf=(maxcycle=1)
 ----------------------------------------------------------------------
 -----
 title
 -----
 Structure from the checkpoint file:  "BDE49_nonexpt_1315_mol1.chk"
 Charge =  0 Multiplicity = 1

                         Standard orientation:
 ---------------------------------------------------------------------
 Center     Atomic      Atomic             Coordinates (Angstroms)
 Number     Number       Type             X           Y           Z
 ---------------------------------------------------------------------
      1          6           0        1.450534    0.467045   -0.010632
      2         15           0       -0.070711   -0.602657   -0.095851
      3          1           0        2.322565   -0.176658    0.143618
      4          1           0        1.415432    1.201873    0.798696
      5          7           0       -1.395773    0.469822    0.059005
      6          1           0        1.584351    0.991421   -0.959931
      7          1           0       -1.865823    0.690342   -0.806412
      8          1           0       -1.322109    1.281303    0.659741
      9          1           0       -0.006541   -1.039443    1.252819
 ---------------------------------------------------------------------

 SCF Done:  E(RHF) =  -436.713874382     A.U. after    2 cycles

 The electronic state is 1-A.
 Alpha  occ. eigenvalues --  -84.28511 -15.49176 -11.23285  -6.75210  -4.27951
 Alpha  occ. eigenvalues --   -4.27364  -4.26826  -1.16193  -0.97324  -0.79741
 Alpha  occ. eigenvalues --   -0.70106  -0.59432  -0.57657  -0.55682  -0.50921
 Alpha  occ. eigenvalues --   -0.42154  -0.33068
 Alpha virt. eigenvalues --    0.03456   0.04609   0.05260   0.05542   0.07258
 Alpha virt. eigenvalues --    0.07517   0.09310   0.10654   0.11536   0.14769
 Alpha virt. eigenvalues --    0.16193   0.16603   0.17155   0.18706   0.20503

 Mulliken charges:
               1
     1  C   -0.812141
     2  P    0.241942
     3  H    0.129149
     4  H    0.070398
     5  N   -0.172690
     6  H    0.127919
     7  H    0.065609
     8  H   -0.011188
     9  H    0.361003
 Sum of Mulliken charges =   0.00000

 Dipole moment (field-independent basis, Debye):
    X=              0.6445    Y=              1.5929    Z=              0.0349  Tot=              1.7187

 Test job not archived.
 1\1\GINC-SE166\SP\RHF\Aug-CC-pVDZ\C1H6N1P1\OHZDE\08-Apr-2025\0\\#t hf
 aug-cc-pvdz iop(5/13=1,5/36=2,99/5=2) pseudo=read geom=check guess=(re
 ad,tcheck) scf=(maxcycle=1)\\title\\0,1\C,0,1.450534,0.467045,-0.01063
 2\P,0,-0.070711,-0.602657,-0.095851\H,0,2.322565,-0.176658,0.143618\H,
 0,1.415432,1.201873,0.798696\N,0,-1.395773,0.469822,0.059005\H,0,1.584
 351,0.991421,-0.959931\H,0,-1.865823,0.690342,-0.806412\H,0,-1.322109,
 1.281303,0.659741\H,0,-0.006541,-1.039443,1.252819\\Version=ES64L-G16R
 evC.01\State=1-A\HF=-436.7138744\RMSD=2.151e-02\Dipole=0.2535469,0.626

 Normal termination of Gaussian 16 at Tue Apr  8 23:27:51 2025.
