 Gaussian 16, Revision C.01,

 ----------------------------------------------------------------------
 #t hf aug-cc-pvdz symm=none int=(grid=ultrafine) guess=(read,tcheck) s
 table=(opt,rrhf)
 ----------------------------------------------------------------------
 -----
 title
 -----
 Symbolic Z-matrix:
 Charge =  0 Multiplicity = 1

 SCF Done:  E(RHF) =  -1367.88232284     A.U. after   14 cycles
 Normal termination of Gaussian 16 at Wed Apr  9 00:18:35 2025.
 Gaussian 16:  ES64L-G16RevC.01  3-Jul-2019

 ----------------------------------------------------------------------
 #t hf aug-cc-pvdz iop(5/13=1,5/36=2,99/5=2) pseudo=read geom=check gue
 ss=(read,tcheck) scf=(maxcycle=1)
 ----------------------------------------------------------------------
 -----
 title
 -----
 Structure from the checkpoint file:  "BDE49_nonexpt_2572_mol1.chk"
 Charge =  0 Multiplicity = 1

                         Standard orientation:
 ---------------------------------------------------------------------
 Center     Atomic      Atomic             Coordinates (Angstroms)
 Number     Number       Type             X           Y           Z
 ---------------------------------------------------------------------
      1         17           0        2.294974    0.150458   -0.000041
      2         16           0        0.528770   -0.892638    0.000023
      3          6           0       -0.678794    0.460446    0.000054
      4          8           0       -0.424230    1.621187    0.000104
      5         16           0       -2.371169   -0.158531   -0.000048
      6          1           0       -2.069561   -1.471251   -0.000046
 ---------------------------------------------------------------------

 SCF Done:  E(RHF) =  -1368.18293727     A.U. after    2 cycles

 The electronic state is 1-A.
 Alpha  occ. eigenvalues -- -105.60921 -94.04767 -94.01073 -20.58821 -11.43391
 Alpha  occ. eigenvalues --  -10.65616  -8.32586  -8.29210  -7.82569  -7.82082
 Alpha  occ. eigenvalues --   -7.82051  -6.30377  -6.30135  -6.29860  -6.27027
 Alpha  occ. eigenvalues --   -6.26890  -6.26642  -1.53670  -1.16302  -1.09704
 Alpha  occ. eigenvalues --   -0.97954  -0.78757  -0.69550  -0.67248  -0.61915
 Alpha  occ. eigenvalues --   -0.58499  -0.53599  -0.53576  -0.50016  -0.43504
 Alpha  occ. eigenvalues --   -0.43181  -0.40338
 Alpha virt. eigenvalues --    0.02668   0.04294   0.06891   0.07648   0.08702
 Alpha virt. eigenvalues --    0.09549   0.10671   0.11444   0.11771   0.12854
 Alpha virt. eigenvalues --    0.13396   0.13922   0.16181   0.16470   0.17476

 Mulliken charges:
               1
     1  Cl  -0.226369
     2  S    0.450385
     3  C    0.147018
     4  O   -0.876090
     5  S    0.121522
     6  H    0.383534
 Sum of Mulliken charges =  -0.00000

 Dipole moment (field-independent basis, Debye):
    X=             -1.0760    Y=             -2.6129    Z=             -0.0001  Tot=              2.8257

 Test job not archived.
 1\1\GINC-SE038\SP\RHF\Aug-CC-pVDZ\C1H1Cl1O1S2\OHZDE\09-Apr-2025\0\\#t
 hf aug-cc-pvdz iop(5/13=1,5/36=2,99/5=2) pseudo=read geom=check guess=
 (read,tcheck) scf=(maxcycle=1)\\title\\0,1\Cl,0,-2.294974,0.150457,0.0
 00041\S,0,-0.52877,-0.892638,-0.000023\C,0,0.678794,0.460446,-0.000054
 \O,0,0.42423,1.621187,-0.000104\S,0,2.371169,-0.158531,0.000048\H,0,2.
 069561,-1.471251,0.000046\\Version=ES64L-G16RevC.01\State=1-A\HF=-1368
 .1829373\RMSD=5.868e-03\Dipole=0.4233128,-1.0279798,0.0000341\Quadrupo
 le=2.0260838,-0.4876778,-1.538406,-2.5134195,0.0000756,0.0001508\PG=C0

 Normal termination of Gaussian 16 at Wed Apr  9 00:18:38 2025.
