 Gaussian 16, Revision C.01,

 ----------------------------------------------------------------------
 #t hf aug-cc-pvdz symm=none int=(grid=ultrafine) guess=(read,tcheck) s
 table=(opt,rrhf)
 ----------------------------------------------------------------------
 -----
 title
 -----
 Symbolic Z-matrix:
 Charge =  0 Multiplicity = 1

 SCF Done:  E(RHF) =  -986.254997243     A.U. after   15 cycles
 Normal termination of Gaussian 16 at Wed Apr  9 00:18:04 2025.
 Gaussian 16:  ES64L-G16RevC.01  3-Jul-2019

 ----------------------------------------------------------------------
 #t hf aug-cc-pvdz iop(5/13=1,5/36=2,99/5=2) pseudo=read geom=check gue
 ss=(read,tcheck) scf=(maxcycle=1)
 ----------------------------------------------------------------------
 -----
 title
 -----
 Structure from the checkpoint file:  "BDE49_nonexpt_2569_mol1.chk"
 Charge =  0 Multiplicity = 1

                         Standard orientation:
 ---------------------------------------------------------------------
 Center     Atomic      Atomic             Coordinates (Angstroms)
 Number     Number       Type             X           Y           Z
 ---------------------------------------------------------------------
      1         17           0       -1.423899   -0.457225    0.000000
      2         16           0        0.000000    1.011261    0.000000
      3          7           0        1.641556    0.059449    0.000000
      4          8           0        1.589424   -1.102937    0.000000
 ---------------------------------------------------------------------

 SCF Done:  E(RHF) =  -986.504374567     A.U. after    2 cycles

 The electronic state is 1-A'.
 Alpha  occ. eigenvalues -- -105.60735 -94.04539 -20.68707 -15.73352 -10.65465
 Alpha  occ. eigenvalues --   -8.32218  -7.82403  -7.81940  -7.81902  -6.29960
 Alpha  occ. eigenvalues --   -6.29701  -6.29417  -1.69429  -1.15551  -1.04640
 Alpha  occ. eigenvalues --   -0.90443  -0.75233  -0.75051  -0.69536  -0.55786
 Alpha  occ. eigenvalues --   -0.54047  -0.51294  -0.41945  -0.40219
 Alpha virt. eigenvalues --    0.03069   0.03938   0.05457   0.09122   0.11028
 Alpha virt. eigenvalues --    0.11502   0.11686   0.13839   0.14889   0.15707
 Alpha virt. eigenvalues --    0.17854   0.18484   0.19235   0.22733   0.25640

 Mulliken charges:
               1
     1  Cl  -0.191168
     2  S    0.374165
     3  N    0.614757
     4  O   -0.797755
 Sum of Mulliken charges =  -0.00000

 Dipole moment (field-independent basis, Debye):
    X=             -0.0479    Y=              0.2713    Z=              0.0000  Tot=              0.2755

 Test job not archived.
 1\1\GINC-SE038\SP\RHF\Aug-CC-pVDZ\Cl1N1O1S1\OHZDE\09-Apr-2025\0\\#t hf
  aug-cc-pvdz iop(5/13=1,5/36=2,99/5=2) pseudo=read geom=check guess=(r
 ead,tcheck) scf=(maxcycle=1)\\title\\0,1\Cl,0,-1.423899,-0.457225,0.\S
 ,0,0.,1.011261,0.\N,0,1.641556,0.059449,0.\O,0,1.589424,-1.102937,0.\\
 Version=ES64L-G16RevC.01\State=1-A'\HF=-986.5043746\RMSD=1.053e-02\Dip
 ole=-0.0188532,0.1067297,0.\Quadrupole=-0.2274135,0.7736688,-0.5462553
 ,0.2662504,0.,0.\PG=CS [SG(Cl1N1O1S1)]\\@

 Normal termination of Gaussian 16 at Wed Apr  9 00:18:06 2025.
