 Gaussian 16, Revision C.01,

 ----------------------------------------------------------------------
 #t hf aug-cc-pvdz symm=none int=(grid=ultrafine) guess=(read,tcheck) s
 table=(opt,rrhf)
 ----------------------------------------------------------------------
 -----
 title
 -----
 Symbolic Z-matrix:
 Charge =  0 Multiplicity = 1

 SCF Done:  E(RHF) =  -512.576250851     A.U. after   13 cycles
 Normal termination of Gaussian 16 at Tue Apr  8 22:46:27 2025.
 Gaussian 16:  ES64L-G16RevC.01  3-Jul-2019

 ----------------------------------------------------------------------
 #t hf aug-cc-pvdz iop(5/13=1,5/36=2,99/5=2) pseudo=read geom=check gue
 ss=(read,tcheck) scf=(maxcycle=1)
 ----------------------------------------------------------------------
 -----
 title
 -----
 Structure from the checkpoint file:  "BDE49_expt_1595_mol1.chk"
 Charge =  0 Multiplicity = 1

                         Standard orientation:
 ---------------------------------------------------------------------
 Center     Atomic      Atomic             Coordinates (Angstroms)
 Number     Number       Type             X           Y           Z
 ---------------------------------------------------------------------
      1         16           0        0.084187   -0.611969    0.010541
      2          6           0       -1.384519    0.446140    0.001425
      3          1           0       -1.396806    1.067453   -0.894558
      4          1           0       -1.447186    1.065053    0.898006
      5          1           0       -2.239721   -0.235681   -0.023292
      6          8           0        1.309618    0.554293   -0.117623
      7          1           0        1.566894    0.783491    0.783628
 ---------------------------------------------------------------------

 SCF Done:  E(RHF) =  -512.755937035     A.U. after    2 cycles

 The electronic state is 1-A.
 Alpha  occ. eigenvalues --  -93.99632 -20.58354 -11.27145  -8.27097  -6.24948
 Alpha  occ. eigenvalues --   -6.24704  -6.24454  -1.46001  -1.04942  -0.87254
 Alpha  occ. eigenvalues --   -0.68221  -0.61443  -0.60009  -0.57930  -0.53103
 Alpha  occ. eigenvalues --   -0.44494  -0.36126
 Alpha virt. eigenvalues --    0.03522   0.04201   0.05697   0.05956   0.08832
 Alpha virt. eigenvalues --    0.11027   0.12590   0.13669   0.15172   0.15642
 Alpha virt. eigenvalues --    0.16565   0.19907   0.21833   0.23659   0.24563

 Mulliken charges:
               1
     1  S    0.834512
     2  C   -0.753330
     3  H    0.206144
     4  H    0.167414
     5  H    0.200543
     6  O   -1.048792
     7  H    0.393509
 Sum of Mulliken charges =  -0.00000

 Dipole moment (field-independent basis, Debye):
    X=             -1.3413    Y=              1.0021    Z=              1.4073  Tot=              2.1872

 Test job not archived.
 1\1\GINC-SE328\SP\RHF\Aug-CC-pVDZ\C1H4O1S1\OHZDE\08-Apr-2025\0\\#t hf
 aug-cc-pvdz iop(5/13=1,5/36=2,99/5=2) pseudo=read geom=check guess=(re
 ad,tcheck) scf=(maxcycle=1)\\title\\0,1\S,0,0.084187,-0.611969,0.01054
 1\C,0,-1.384519,0.44614,0.001425\H,0,-1.396806,1.067453,-0.894558\H,0,
 -1.447186,1.065053,0.898006\H,0,-2.239721,-0.235681,-0.023292\O,0,1.30
 9618,0.554293,-0.117623\H,0,1.566894,0.78349,0.783628\\Version=ES64L-G
 16RevC.01\State=1-A\HF=-512.755937\RMSD=5.303e-03\Dipole=-0.5277211,0.
 394267,0.5536638\Quadrupole=1.3381715,-0.7513663,-0.5868051,0.2764023,

 Normal termination of Gaussian 16 at Tue Apr  8 22:46:29 2025.
