 Gaussian 16, Revision C.01,

 ----------------------------------------------------------------------
 #t hf aug-cc-pvdz symm=none int=(grid=ultrafine) guess=(read,tcheck) s
 table=(opt,rrhf)
 ----------------------------------------------------------------------
 -----
 title
 -----
 Symbolic Z-matrix:
 Charge =  0 Multiplicity = 1

 SCF Done:  E(RHF) =  -626.582175336     A.U. after   14 cycles
 Normal termination of Gaussian 16 at Tue Apr  8 23:17:48 2025.
 Gaussian 16:  ES64L-G16RevC.01  3-Jul-2019

 ----------------------------------------------------------------------
 #t hf aug-cc-pvdz iop(5/13=1,5/36=2,99/5=2) pseudo=read geom=check gue
 ss=(read,tcheck) scf=(maxcycle=1)
 ----------------------------------------------------------------------
 -----
 title
 -----
 Structure from the checkpoint file:  "BDE49_nonexpt_1051_mol1.chk"
 Charge =  0 Multiplicity = 1

                         Standard orientation:
 ---------------------------------------------------------------------
 Center     Atomic      Atomic             Coordinates (Angstroms)
 Number     Number       Type             X           Y           Z
 ---------------------------------------------------------------------
      1         17           0       -1.335747   -0.400181    0.000000
      2          8           0        0.000000    0.798017    0.000000
      3          6           0        1.161570    0.250466    0.000000
      4          7           0        2.248327   -0.154837    0.000000
 ---------------------------------------------------------------------

 SCF Done:  E(RHF) =  -626.810130198     A.U. after    2 cycles

 The electronic state is 1-A'.
 Alpha  occ. eigenvalues -- -105.69336 -20.72368 -15.53984 -11.36795 -10.73402
 Alpha  occ. eigenvalues --   -7.90385  -7.89766  -7.89745  -1.60018  -1.25399
 Alpha  occ. eigenvalues --   -1.10403  -0.83210  -0.71469  -0.70226  -0.63218
 Alpha  occ. eigenvalues --   -0.55182  -0.54314  -0.50973  -0.48840
 Alpha virt. eigenvalues --   -0.02404   0.05795   0.08747   0.09751   0.09938
 Alpha virt. eigenvalues --    0.12459   0.14023   0.14378   0.17994   0.18709
 Alpha virt. eigenvalues --    0.20401   0.22171   0.22387   0.24760   0.27124

 Mulliken charges:
               1
     1  Cl   0.445297
     2  O   -0.881054
     3  C   -0.139706
     4  N    0.575463
 Sum of Mulliken charges =   0.00000

 Dipole moment (field-independent basis, Debye):
    X=             -3.9272    Y=              0.3076    Z=              0.0000  Tot=              3.9392

 Test job not archived.
 1\1\GINC-SE106\SP\RHF\Aug-CC-pVDZ\C1Cl1N1O1\OHZDE\08-Apr-2025\0\\#t hf
  aug-cc-pvdz iop(5/13=1,5/36=2,99/5=2) pseudo=read geom=check guess=(r
 ead,tcheck) scf=(maxcycle=1)\\title\\0,1\Cl,0,-1.335747,-0.400181,0.\O
 ,0,0.,0.798017,0.\C,0,1.16157,0.250466,0.\N,0,2.248327,-0.154836,0.\\V
 ersion=ES64L-G16RevC.01\State=1-A'\HF=-626.8101302\RMSD=1.381e-02\Dipo
 le=-1.5450831,0.1210131,0.\Quadrupole=-3.6789643,2.1124465,1.5665178,2
 .3468683,0.,0.\PG=CS [SG(C1Cl1N1O1)]\\@

 Normal termination of Gaussian 16 at Tue Apr  8 23:17:50 2025.
