 Gaussian 16, Revision C.01,

 ----------------------------------------------------------------------
 #t hf aug-cc-pvdz symm=none int=(grid=ultrafine) guess=(read,tcheck) s
 table=(opt,rrhf)
 ----------------------------------------------------------------------
 -----
 title
 -----
 Symbolic Z-matrix:
 Charge =  0 Multiplicity = 1

 SCF Done:  E(RHF) =  -1190.22704421     A.U. after   14 cycles
 Normal termination of Gaussian 16 at Tue Apr  8 23:56:55 2025.
 Gaussian 16:  ES64L-G16RevC.01  3-Jul-2019

 ----------------------------------------------------------------------
 #t hf aug-cc-pvdz iop(5/13=1,5/36=2,99/5=2) pseudo=read geom=check gue
 ss=(read,tcheck) scf=(maxcycle=1)
 ----------------------------------------------------------------------
 -----
 title
 -----
 Structure from the checkpoint file:  "BDE49_nonexpt_200_mol1.chk"
 Charge =  0 Multiplicity = 1

                         Standard orientation:
 ---------------------------------------------------------------------
 Center     Atomic      Atomic             Coordinates (Angstroms)
 Number     Number       Type             X           Y           Z
 ---------------------------------------------------------------------
      1         17           0        1.744603   -1.520425    0.117147
      2         17           0        1.744565    1.520508    0.116418
      3          5           0        0.879882   -0.000014   -0.073130
      4          6           0       -0.615550   -0.000147   -0.560284
      5          8           0       -0.636117   -0.000595   -1.794471
      6          7           0       -1.713305    0.000079    0.231401
      7          6           0       -1.627581    0.000537    1.680447
      8          1           0       -0.582955    0.000661    1.995223
      9          1           0       -2.110985   -0.888374    2.099064
     10          1           0       -2.111026    0.889690    2.098501
     11          6           0       -3.040949   -0.000143   -0.368368
     12          1           0       -2.925037   -0.000480   -1.450425
     13          1           0       -3.599378    0.889842   -0.061341
     14          1           0       -3.599334   -0.889962   -0.060781
 ---------------------------------------------------------------------

 SCF Done:  E(RHF) =  -1190.65426518     A.U. after    2 cycles

 The electronic state is 1-A.
 Alpha  occ. eigenvalues -- -105.58582-105.58582 -20.52388 -15.54735 -11.35547
 Alpha  occ. eigenvalues --  -11.29749 -11.27808 -10.63577 -10.63550  -7.80476
 Alpha  occ. eigenvalues --   -7.80459  -7.80178  -7.80174  -7.80136  -7.80125
 Alpha  occ. eigenvalues --   -7.73197  -1.46433  -1.27285  -1.11812  -1.06719
 Alpha  occ. eigenvalues --   -1.00591  -0.98130  -0.82246  -0.75740  -0.68951
 Alpha  occ. eigenvalues --   -0.68644  -0.66405  -0.60464  -0.59989  -0.59120
 Alpha  occ. eigenvalues --   -0.58649  -0.56529  -0.53887  -0.53592  -0.50461
 Alpha  occ. eigenvalues --   -0.48573  -0.47239  -0.41658  -0.41211
 Alpha virt. eigenvalues --    0.02910   0.04174   0.04206   0.05163   0.06054
 Alpha virt. eigenvalues --    0.06222   0.06437   0.07133   0.07736   0.07922
 Alpha virt. eigenvalues --    0.09470   0.12282   0.12480   0.12604   0.14161

 Mulliken charges:
               1
     1  Cl  -0.348715
     2  Cl  -0.348709
     3  B    0.718608
     4  C    0.265031
     5  O   -1.187371
     6  N    0.899903
     7  C   -0.440158
     8  H   -0.035011
     9  H    0.168647
    10  H    0.168639
    11  C   -0.258048
    12  H    0.016585
    13  H    0.190304
    14  H    0.190294
 Sum of Mulliken charges =  -0.00000

 Dipole moment (field-independent basis, Debye):
    X=             -2.4261    Y=              0.0011    Z=              3.4104  Tot=              4.1853

 Test job not archived.
 1\1\GINC-SE424\SP\RHF\Aug-CC-pVDZ\C3H6B1Cl2N1O1\OHZDE\08-Apr-2025\0\\#
 t hf aug-cc-pvdz iop(5/13=1,5/36=2,99/5=2) pseudo=read geom=check gues
 s=(read,tcheck) scf=(maxcycle=1)\\title\\0,1\Cl,0,-1.744603,1.520425,0
 .117147\Cl,0,-1.744565,-1.520508,0.116418\B,0,-0.879882,0.000014,-0.07
 313\C,0,0.61555,0.000147,-0.560284\O,0,0.636117,0.000595,-1.794471\N,0
 ,1.713305,-0.000079,0.231401\C,0,1.627581,-0.000537,1.680447\H,0,0.582
 955,-0.000661,1.995223\H,0,2.110985,0.888374,2.099064\H,0,2.111026,-0.
 88969,2.098501\C,0,3.040949,0.000143,-0.368368\H,0,2.925037,0.00048,-1

 Normal termination of Gaussian 16 at Tue Apr  8 23:57:01 2025.
