 Gaussian 16, Revision C.01,

 ----------------------------------------------------------------------
 #t hf aug-cc-pvdz symm=none int=(grid=ultrafine) guess=(read,tcheck) s
 table=opt
 ----------------------------------------------------------------------
 -----
 title
 -----
 Symbolic Z-matrix:
 Charge =  0 Multiplicity = 2

 SCF Done:  E(UHF) =  -805.554373897     A.U. after   18 cycles
 Normal termination of Gaussian 16 at Wed Apr  9 00:11:22 2025.
 Gaussian 16:  ES64L-G16RevC.01  3-Jul-2019

 ----------------------------------------------------------------------
 #t hf aug-cc-pvdz iop(5/13=1,5/36=2,99/5=2) pseudo=read geom=check gue
 ss=(read,tcheck) scf=(maxcycle=1)
 ----------------------------------------------------------------------
 -----
 title
 -----
 Structure from the checkpoint file:  "BDE49_nonexpt_235_mol2.chk"
 Charge =  0 Multiplicity = 2

                         Standard orientation:
 ---------------------------------------------------------------------
 Center     Atomic      Atomic             Coordinates (Angstroms)
 Number     Number       Type             X           Y           Z
 ---------------------------------------------------------------------
      1         17           0        3.195835    0.252894   -0.000048
      2          5           0        1.671545   -0.631672   -0.000032
      3          8           0        0.506460    0.042204    0.000027
      4          6           0       -0.742706   -0.610526    0.000054
      5          8           0       -0.840640   -1.809263    0.000017
      6          7           0       -1.749967    0.293248    0.000023
      7          6           0       -1.585727    1.742693    0.000024
      8          1           0       -2.061508    2.172199    0.887809
      9          1           0       -2.061495    2.172199   -0.887767
     10          1           0       -0.533328    2.003686    0.000032
     11          6           0       -3.121323   -0.202740   -0.000006
     12          1           0       -3.651599    0.153648   -0.888901
     13          1           0       -3.651632    0.153638    0.888874
     14          1           0       -3.105609   -1.289044   -0.000011
 ---------------------------------------------------------------------

 SCF Done:  E(UHF) =  -805.972648183     A.U. after    2 cycles

 The electronic state is 2-A.
 Alpha  occ. eigenvalues -- -105.57235 -20.60906 -20.53305 -15.55065 -11.43502
 Alpha  occ. eigenvalues --  -11.28798 -11.28185 -10.62234  -7.79246  -7.78810
 Alpha  occ. eigenvalues --   -7.78785  -7.71615  -1.56027  -1.46955  -1.27775
 Alpha  occ. eigenvalues --   -1.08171  -1.00171  -0.99530  -0.84388  -0.76385
 Alpha  occ. eigenvalues --   -0.72540  -0.70548  -0.66385  -0.63378  -0.62900
 Alpha  occ. eigenvalues --   -0.61878  -0.59108  -0.58350  -0.56413  -0.53177
 Alpha  occ. eigenvalues --   -0.50536  -0.48224  -0.46088  -0.42285  -0.36770
 Alpha virt. eigenvalues --    0.02961   0.04326   0.04405   0.05269   0.05538
 Alpha virt. eigenvalues --    0.06171   0.06573   0.06779   0.07432   0.09244
 Alpha virt. eigenvalues --    0.09892   0.11633   0.12568   0.12936   0.13910

  Beta  occ. eigenvalues -- -105.57116 -20.60774 -20.53281 -15.55077 -11.43468
  Beta  occ. eigenvalues --  -11.28793 -11.28184 -10.62095  -7.78927  -7.78756
  Beta  occ. eigenvalues --   -7.78593  -7.69337  -1.55617  -1.46768  -1.27762
  Beta  occ. eigenvalues --   -1.06984  -1.00141  -0.99422  -0.83880  -0.76258
  Beta  occ. eigenvalues --   -0.71589  -0.70593  -0.65152  -0.62956  -0.61578
  Beta  occ. eigenvalues --   -0.59841  -0.58759  -0.58351  -0.56285  -0.53036
  Beta  occ. eigenvalues --   -0.48852  -0.48369  -0.45825  -0.42322
  Beta virt. eigenvalues --    0.02904   0.04301   0.04407   0.04719   0.05656
  Beta virt. eigenvalues --    0.06113   0.06350   0.06891   0.06924   0.09213
  Beta virt. eigenvalues --    0.10144   0.12393   0.12530   0.13316   0.13320

 Mulliken charges and spin densities:
               1          2
     1  Cl  -0.315836   0.043335
     2  B    0.117031   1.072576
     3  O   -1.000686  -0.163117
     4  C    1.061804   0.083399
     5  O   -1.043947  -0.010419
     6  N    0.863566  -0.016366
     7  C   -0.309569  -0.006427
     8  H    0.165013  -0.000126
     9  H    0.165011  -0.000127
    10  H    0.080691  -0.004775
    11  C   -0.202584   0.001902
    12  H    0.206674  -0.000479
    13  H    0.206689  -0.000479
    14  H    0.006145   0.001102
 Sum of Mulliken charges =  -0.00000   1.00000

 Dipole moment (field-independent basis, Debye):
    X=             -2.9371    Y=              2.9602    Z=              0.0001  Tot=              4.1701
                          Isotropic Fermi Contact Couplings
        Atom                 a.u.       MegaHertz       Gauss      10(-4) cm-1
     1  Cl(35)             0.12220      53.58216      19.11945      17.87308
     2  B(11)              0.45155     647.68244     231.10920     216.04361
     3  O(17)              0.00960      -5.81850      -2.07619      -1.94084
     4  C(13)              0.00683       7.67523       2.73871       2.56018
     5  O(17)              0.00465      -2.81636      -1.00495      -0.93944
     6  N(14)             -0.00190      -0.61541      -0.21959      -0.20528
     7  C(13)              0.00055       0.61922       0.22095       0.20655
     8  H(1)              -0.00004      -0.16685      -0.05954      -0.05566

 Normal termination of Gaussian 16 at Wed Apr  9 00:11:28 2025.
