 Gaussian 16, Revision C.01,

 ----------------------------------------------------------------------
 #t hf aug-cc-pvdz symm=none int=(grid=ultrafine) guess=(read,tcheck) s
 table=opt
 ----------------------------------------------------------------------
 -----
 title
 -----
 Symbolic Z-matrix:
 Charge =  0 Multiplicity = 2

 SCF Done:  E(UHF) =  -188.133314936     a.u. after   13 cycles
 Normal termination of Gaussian 16 at Tue Apr  8 22:42:26 2025.
 Gaussian 16:  ES64L-G16RevC.01  3-Jul-2019

 ----------------------------------------------------------------------
 #t hf aug-cc-pvdz iop(5/13=1,5/36=2,99/5=2) pseudo=read geom=check gue
 ss=(read,tcheck) scf=(maxcycle=1)
 ----------------------------------------------------------------------
 -----
 title
 -----
 Structure from the checkpoint file:  "BDE49_expt_1440_mol2.chk"
 Charge =  0 Multiplicity = 2

                         Standard orientation:
 ---------------------------------------------------------------------
 Center     Atomic      Atomic             Coordinates (Angstroms)
 Number     Number       Type             X           Y           Z
 ---------------------------------------------------------------------
      1          6           0        0.003877    0.206801   -0.000005
      2          8           0        1.164646   -0.161534    0.000001
      3          8           0       -1.164280   -0.164923    0.000001
      4          1           0       -0.026187    1.370850    0.000007
 ---------------------------------------------------------------------

 SCF Done:  E(UHF) =  -188.307942145     A.U. after    2 cycles

 The electronic state is 2-A.
 Alpha  occ. eigenvalues --  -20.71904 -20.56658 -11.42860  -1.65489  -1.49260
 Alpha  occ. eigenvalues --   -0.90107  -0.80841  -0.73241  -0.71297  -0.60928
 Alpha  occ. eigenvalues --   -0.50994  -0.46117
 Alpha virt. eigenvalues --    0.03731   0.07934   0.08378   0.09377   0.15013
 Alpha virt. eigenvalues --    0.16509   0.19975   0.20556   0.21597   0.25398
 Alpha virt. eigenvalues --    0.27632   0.28654   0.29127   0.33524   0.35689

  Beta  occ. eigenvalues --  -20.67946 -20.56571 -11.43324  -1.54929  -1.46976
  Beta  occ. eigenvalues --   -0.83806  -0.73894  -0.68259  -0.67228  -0.49765
  Beta  occ. eigenvalues --   -0.45897
  Beta virt. eigenvalues --   -0.00375   0.04130   0.08225   0.08493   0.09821
  Beta virt. eigenvalues --    0.15112   0.16513   0.20082   0.21755   0.22075
  Beta virt. eigenvalues --    0.27006   0.27927   0.28839   0.29772   0.34119

 Mulliken charges and spin densities:
               1          2
     1  C    1.181411  -0.167753
     2  O   -0.840793   0.017222
     3  O   -0.538609   0.989098
     4  H    0.197991   0.161432
 Sum of Mulliken charges =  -0.00000   1.00000

 Dipole moment (field-independent basis, Debye):
    X=             -1.9169    Y=              1.2552    Z=             -0.0000  Tot=              2.2913
                          Isotropic Fermi Contact Couplings
        Atom                 a.u.       MegaHertz       Gauss      10(-4) cm-1
     1  C(13)             -0.09718    -109.25365     -38.98442     -36.44309
     2  O(17)              0.00670      -4.05861      -1.44821      -1.35381
     3  O(17)              0.24793    -150.29150     -53.62775     -50.13185
     4  H(1)               0.07410     331.22058     118.18774     110.48329
 --------------------------------------------------------
       Center         ----  Spin Dipole Couplings  ----
                      3XX-RR        3YY-RR        3ZZ-RR
 --------------------------------------------------------

 Normal termination of Gaussian 16 at Tue Apr  8 22:42:28 2025.
