 Gaussian 16, Revision C.01,

 ----------------------------------------------------------------------
 #t hf aug-cc-pvdz symm=none int=(grid=ultrafine) guess=(read,tcheck) s
 table=opt
 ----------------------------------------------------------------------
 -----
 title
 -----
 Symbolic Z-matrix:
 Charge =  0 Multiplicity = 2

 SCF Done:  E(UHF) =  -295.722804586     A.U. after   18 cycles
 Normal termination of Gaussian 16 at Wed Apr  9 00:35:10 2025.
 Gaussian 16:  ES64L-G16RevC.01  3-Jul-2019

 ----------------------------------------------------------------------
 #t hf aug-cc-pvdz iop(5/13=1,5/36=2,99/5=2) pseudo=read geom=check gue
 ss=(read,tcheck) scf=(maxcycle=1)
 ----------------------------------------------------------------------
 -----
 title
 -----
 Structure from the checkpoint file:  "BDE49_nonexpt_445_mol2.chk"
 Charge =  0 Multiplicity = 2

                         Standard orientation:
 ---------------------------------------------------------------------
 Center     Atomic      Atomic             Coordinates (Angstroms)
 Number     Number       Type             X           Y           Z
 ---------------------------------------------------------------------
      1          9           0       -2.936774    0.000037    0.023200
      2          7           0       -0.384715   -0.000162   -0.048751
      3          6           0        1.686858    1.304656    0.026700
      4          6           0        0.962229    0.000005   -0.109300
      5          6           0        1.687153   -1.304483    0.026708
      6          5           0       -1.632663   -0.000183    0.010634
      7          1           0        1.141912    2.108599   -0.474918
      8          1           0        2.691840    1.245330   -0.400097
      9          1           0        1.800614    1.602109    1.082317
     10          1           0        1.142402   -2.108547   -0.474929
     11          1           0        1.800948   -1.601918    1.082326
     12          1           0        2.692130   -1.244922   -0.400064
 ---------------------------------------------------------------------

 SCF Done:  E(UHF) =  -296.015022699     A.U. after    2 cycles

 The electronic state is 2-A.
 Alpha  occ. eigenvalues --  -26.51316 -15.48342 -11.26871 -11.22700 -11.22691
 Alpha  occ. eigenvalues --   -7.68202  -1.64098  -1.19690  -1.03288  -0.94540
 Alpha  occ. eigenvalues --   -0.85869  -0.78935  -0.70797  -0.70252  -0.66807
 Alpha  occ. eigenvalues --   -0.62706  -0.60963  -0.55375  -0.54794  -0.51876
 Alpha  occ. eigenvalues --   -0.49636  -0.43270  -0.28571
 Alpha virt. eigenvalues --    0.03357   0.04563   0.04726   0.05117   0.05665
 Alpha virt. eigenvalues --    0.05743   0.06463   0.06838   0.08027   0.09692
 Alpha virt. eigenvalues --    0.12513   0.15328   0.15378   0.15440   0.16437

  Beta  occ. eigenvalues --  -26.51205 -15.49316 -11.24390 -11.23026 -11.23017
  Beta  occ. eigenvalues --   -7.67673  -1.63841  -1.19384  -1.01421  -0.94590
  Beta  occ. eigenvalues --   -0.84121  -0.78804  -0.69982  -0.69431  -0.64591
  Beta  occ. eigenvalues --   -0.60632  -0.58103  -0.55118  -0.53913  -0.51699
  Beta  occ. eigenvalues --   -0.49540  -0.44192
  Beta virt. eigenvalues --    0.03419   0.04572   0.04725   0.04973   0.05674
  Beta virt. eigenvalues --    0.05757   0.06486   0.06860   0.08138   0.09694
  Beta virt. eigenvalues --    0.12028   0.12901   0.15420   0.15456   0.15745

 Mulliken charges and spin densities:
               1          2
     1  F   -1.258617   0.016449
     2  N    1.075853  -0.245406
     3  C   -0.336594  -0.245822
     4  C   -0.887732   1.282153
     5  C   -0.336555  -0.245828
     6  B    0.700499   0.319054
     7  H    0.136481   0.008064
     8  H    0.148957   0.007428
     9  H    0.236132   0.044208
    10  H    0.136492   0.008065
    11  H    0.236137   0.044207
    12  H    0.148947   0.007427
 Sum of Mulliken charges =  -0.00000   1.00000

 Dipole moment (field-independent basis, Debye):
    X=              0.0434    Y=             -0.0001    Z=              0.1506  Tot=              0.1567
                          Isotropic Fermi Contact Couplings
        Atom                 a.u.       MegaHertz       Gauss      10(-4) cm-1
     1  F(19)              0.01261      53.03757      18.92512      17.69143
     2  N(14)             -0.17917     -57.88956     -20.65643     -19.30988
     3  C(13)             -0.05703     -64.11037     -22.87617     -21.38492
     4  C(13)              0.23441     263.51911      94.03017      87.90051
     5  C(13)             -0.05703     -64.11004     -22.87606     -21.38481
     6  B(11)              0.03182      45.64672      16.28789      15.22611
     7  H(1)               0.00719      32.14928      11.47166      10.72385
     8  H(1)               0.00519      23.18017       8.27126       7.73207

 Normal termination of Gaussian 16 at Wed Apr  9 00:35:14 2025.
