 Gaussian 16, Revision C.01,

 ----------------------------------------------------------------------
 #t hf aug-cc-pvdz symm=none int=(grid=ultrafine) guess=(read,tcheck) s
 table=(opt,rrhf)
 ----------------------------------------------------------------------
 -----
 title
 -----
 Symbolic Z-matrix:
 Charge =  0 Multiplicity = 1

 SCF Done:  E(RHF) =  -473.274114039     A.U. after   16 cycles
 Normal termination of Gaussian 16 at Tue Apr  8 22:39:36 2025.
 Gaussian 16:  ES64L-G16RevC.01  3-Jul-2019

 ----------------------------------------------------------------------
 #t hf aug-cc-pvdz iop(5/13=1,5/36=2,99/5=2) pseudo=read geom=check gue
 ss=(read,tcheck) scf=(maxcycle=1)
 ----------------------------------------------------------------------
 -----
 title
 -----
 Structure from the checkpoint file:  "BDE49_expt_1258_mol1.chk"
 Charge =  0 Multiplicity = 1

                         Standard orientation:
 ---------------------------------------------------------------------
 Center     Atomic      Atomic             Coordinates (Angstroms)
 Number     Number       Type             X           Y           Z
 ---------------------------------------------------------------------
      1          6           0        2.188565   -1.206403   -0.195975
      2          6           0        0.882399   -1.206983    0.284905
      3          6           0        2.843536    0.000002   -0.435757
      4          6           0        2.188561    1.206404   -0.195964
      5          6           0        0.882395    1.206975    0.284917
      6          6           0        0.223051   -0.000006    0.533612
      7          1           0        0.369727   -2.145400    0.464489
      8          7           0       -2.163370    0.000003   -0.148962
      9          8           0       -2.502918    1.087236   -0.585408
     10          8           0       -2.502955   -1.087218   -0.585407
     11          1           0        2.694363   -2.146652   -0.382822
     12          1           0        2.694357    2.146656   -0.382801
     13          1           0        3.861672    0.000006   -0.807902
     14          1           0        0.369721    2.145390    0.464509
     15          6           0       -1.197145   -0.000011    1.032735
     16          1           0       -1.433715    0.896518    1.601482
     17          1           0       -1.433716   -0.896553    1.601461
 ---------------------------------------------------------------------

 SCF Done:  E(RHF) =  -473.745785936     A.U. after    2 cycles

 The electronic state is 1-A.
 Alpha  occ. eigenvalues --  -20.59039 -20.59034 -15.78345 -11.32310 -11.27425
 Alpha  occ. eigenvalues --  -11.26415 -11.26405 -11.26231 -11.25979 -11.25965
 Alpha  occ. eigenvalues --   -1.66826  -1.50781  -1.18635  -1.12379  -1.03703
 Alpha  occ. eigenvalues --   -1.02622  -0.90001  -0.85859  -0.83748  -0.77372
 Alpha  occ. eigenvalues --   -0.75504  -0.75239  -0.71518  -0.68029  -0.65952
 Alpha  occ. eigenvalues --   -0.62087  -0.60717  -0.60495  -0.53799  -0.52756
 Alpha  occ. eigenvalues --   -0.52333  -0.48711  -0.48481  -0.44956  -0.36612
 Alpha  occ. eigenvalues --   -0.36372
 Alpha virt. eigenvalues --    0.03016   0.03223   0.03406   0.04629   0.05064
 Alpha virt. eigenvalues --    0.06117   0.07464   0.07807   0.08558   0.09073
 Alpha virt. eigenvalues --    0.09126   0.10898   0.12139   0.12413   0.13095

 Mulliken charges:
               1
     1  C    0.177960
     2  C   -0.028367
     3  C    0.055558
     4  C    0.177949
     5  C   -0.028375
     6  C    1.383181
     7  H   -0.262648
     8  N    2.663587
     9  O   -1.393538
    10  O   -1.393536
    11  H   -0.226080
    12  H   -0.226080
    13  H   -0.204403
    14  H   -0.262646
    15  C   -0.509883
    16  H    0.038663
    17  H    0.038660
 Sum of Mulliken charges =  -0.00000

 Dipole moment (field-independent basis, Debye):
    X=              3.3286    Y=             -0.0000    Z=              2.5197  Tot=              4.1747

 Test job not archived.
 1\1\GINC-SE073\SP\RHF\Aug-CC-pVDZ\C7H7N1O2\OHZDE\08-Apr-2025\0\\#t hf
 aug-cc-pvdz iop(5/13=1,5/36=2,99/5=2) pseudo=read geom=check guess=(re
 ad,tcheck) scf=(maxcycle=1)\\title\\0,1\C,0,2.188565,-1.206403,-0.1959
 75\C,0,0.882399,-1.206983,0.284905\C,0,2.843536,0.000002,-0.435757\C,0
 ,2.188561,1.206404,-0.195964\C,0,0.882395,1.206975,0.284917\C,0,0.2230
 51,-0.000006,0.533612\H,0,0.369727,-2.1454,0.464489\N,0,-2.16337,0.000
 003,-0.148962\O,0,-2.502918,1.087236,-0.585408\O,0,-2.502955,-1.087218
 ,-0.585407\H,0,2.694363,-2.146652,-0.382822\H,0,2.694357,2.146656,-0.3

 Normal termination of Gaussian 16 at Tue Apr  8 22:39:45 2025.
