 Gaussian 16, Revision C.01,

 ----------------------------------------------------------------------
 #t hf aug-cc-pvdz symm=none int=(grid=ultrafine) guess=(read,tcheck) s
 table=(opt,rrhf)
 ----------------------------------------------------------------------
 -----
 title
 -----
 Symbolic Z-matrix:
 Charge =  0 Multiplicity = 1

 SCF Done:  E(RHF) =  -995.882911124     A.U. after   12 cycles

 1\1\GINC-SE159\Stability\RHF\Aug-CC-pVDZ\C2H2Cl2\OHZDE\08-Apr-2025\0\\
 #t hf aug-cc-pvdz symm=none int=(grid=ultrafine) guess=(read,tcheck) s
 table=(opt,rrhf)\\title\\0,1\C,0,-0.000008,1.751062,0.\C,0,0.000002,0.
 426792,0.\H,0,-0.000014,2.299046,-0.93207\H,0,-0.000014,2.299046,0.932
 07\Cl,0,0.000002,-0.519565,-1.461714\Cl,0,0.000002,-0.519565,1.461714\
 \Version=ES64L-G16RevC.01\HF=-995.8829111\RMSD=9.227e-09\Dipole=-0.000
 006,0.6705302,0.\Quadrupole=-1.9836889,2.1981181,-0.2144292,-0.0000309
 ,0.,0.\PG=Unknown\\@

 Normal termination of Gaussian 16 at Tue Apr  8 22:47:28 2025.
 Gaussian 16:  ES64L-G16RevC.01  3-Jul-2019

 ----------------------------------------------------------------------
 #t hf aug-cc-pvdz iop(5/13=1,5/36=2,99/5=2) pseudo=read geom=check gue
 ss=(read,tcheck) scf=(maxcycle=1)
 ----------------------------------------------------------------------
 -----
 title
 -----
 Structure from the checkpoint file:  "BDE49_expt_1625_mol1.chk"
 Charge =  0 Multiplicity = 1

                         Standard orientation:
 ---------------------------------------------------------------------
 Center     Atomic      Atomic             Coordinates (Angstroms)
 Number     Number       Type             X           Y           Z
 ---------------------------------------------------------------------
      1          6           0        0.000008    1.751062    0.000000
      2          6           0       -0.000002    0.426792    0.000000
      3          1           0        0.000014    2.299046    0.932070
      4          1           0        0.000014    2.299046   -0.932070
      5         17           0       -0.000002   -0.519565    1.461714
      6         17           0       -0.000002   -0.519565   -1.461714
 ---------------------------------------------------------------------

 SCF Done:  E(RHF) =  -996.114079071     A.U. after    2 cycles

 The electronic state is 1-A'.
 Alpha  occ. eigenvalues -- -105.59422-105.59422 -11.37788 -11.27368 -10.64241
 Alpha  occ. eigenvalues --  -10.64237  -7.81208  -7.81200  -7.80773  -7.80773
 Alpha  occ. eigenvalues --   -7.80762  -7.80760  -1.19028  -1.06912  -1.01620
 Alpha  occ. eigenvalues --   -0.77421  -0.67499  -0.65723  -0.57492  -0.56060
 Alpha  occ. eigenvalues --   -0.50393  -0.48877  -0.46730  -0.38589
 Alpha virt. eigenvalues --    0.03749   0.05019   0.07314   0.07885   0.09074
 Alpha virt. eigenvalues --    0.10795   0.13916   0.14536   0.15662   0.16029
 Alpha virt. eigenvalues --    0.16922   0.16932   0.18209   0.18242   0.19329

 Mulliken charges:
               1
     1  C    0.313363
     2  C   -0.159603
     3  H    0.025068
     4  H    0.025068
     5  Cl  -0.101948
     6  Cl  -0.101948
 Sum of Mulliken charges =  -0.00000

 Dipole moment (field-independent basis, Debye):
    X=              0.0000    Y=              1.7094    Z=              0.0000  Tot=              1.7094

 Test job not archived.
 1\1\GINC-SE159\SP\RHF\Aug-CC-pVDZ\C2H2Cl2\OHZDE\08-Apr-2025\0\\#t hf a
 ug-cc-pvdz iop(5/13=1,5/36=2,99/5=2) pseudo=read geom=check guess=(rea
 d,tcheck) scf=(maxcycle=1)\\title\\0,1\C,0,-0.000008,1.751062,0.\C,0,0
 .000002,0.426792,0.\H,0,-0.000014,2.299046,-0.93207\H,0,-0.000014,2.29
 9046,0.93207\Cl,0,0.000002,-0.519565,-1.461714\Cl,0,0.000002,-0.519565
 ,1.461714\\Version=ES64L-G16RevC.01\State=1-A'\HF=-996.1140791\RMSD=8.
 189e-03\Dipole=-0.000006,0.6725139,0.\Quadrupole=-2.0977455,2.2612059,
 -0.1634604,-0.000032,0.,0.\PG=CS [SG(C2),X(H2Cl2)]\\@

 Normal termination of Gaussian 16 at Tue Apr  8 22:47:29 2025.
