 Gaussian 16, Revision C.01,

 ----------------------------------------------------------------------
 #t hf aug-cc-pvdz symm=none int=(grid=ultrafine) guess=(read,tcheck) s
 table=(opt,rrhf)
 ----------------------------------------------------------------------
 -----
 title
 -----
 Symbolic Z-matrix:
 Charge =  0 Multiplicity = 1

 SCF Done:  E(RHF) =  -652.397474610     A.U. after   16 cycles
 Normal termination of Gaussian 16 at Wed Apr  9 00:45:13 2025.
 Gaussian 16:  ES64L-G16RevC.01  3-Jul-2019

 ----------------------------------------------------------------------
 #t hf aug-cc-pvdz iop(5/13=1,5/36=2,99/5=2) pseudo=read geom=check gue
 ss=(read,tcheck) scf=(maxcycle=1)
 ----------------------------------------------------------------------
 -----
 title
 -----
 Structure from the checkpoint file:  "BDE49_nonexpt_764_mol1.chk"
 Charge =  0 Multiplicity = 1

                         Standard orientation:
 ---------------------------------------------------------------------
 Center     Atomic      Atomic             Coordinates (Angstroms)
 Number     Number       Type             X           Y           Z
 ---------------------------------------------------------------------
      1          6           0       -0.553209   -0.160420   -0.021413
      2          5           0        1.907651    0.523408    0.114029
      3         15           0        3.744641   -0.016804   -0.118117
      4          6           0       -1.108232    1.124008   -0.044688
      5          6           0       -2.489083    1.285715   -0.021016
      6          6           0       -3.339173    0.181346    0.017527
      7          6           0       -2.789033   -1.097391    0.032217
      8          6           0       -1.408389   -1.267891    0.014027
      9          1           0       -0.986743   -2.268523    0.031832
     10          1           0       -0.461635    1.990150   -0.087022
     11          1           0       -2.903573    2.287503   -0.039758
     12          1           0       -4.414069    0.316713    0.032028
     13          1           0       -3.433511   -1.968779    0.059545
     14          7           0        0.846746   -0.379670   -0.036665
     15          1           0        1.690214    1.679578    0.287784
     16          1           0        1.071674   -1.360361   -0.146195
     17          1           0        3.671838   -1.339725    0.391467
     18          1           0        4.253422    0.563948    1.068665
 ---------------------------------------------------------------------

 SCF Done:  E(RHF) =  -652.764575512     A.U. after    2 cycles

 The electronic state is 1-A.
 Alpha  occ. eigenvalues --  -84.25449 -15.52348 -11.29371 -11.25114 -11.25022
 Alpha  occ. eigenvalues --  -11.24477 -11.24124 -11.23950  -7.61061  -6.72807
 Alpha  occ. eigenvalues --   -4.25295  -4.25266  -4.24523  -1.23878  -1.14239
 Alpha  occ. eigenvalues --   -1.02455  -1.00751  -0.87945  -0.85453  -0.83255
 Alpha  occ. eigenvalues --   -0.75464  -0.74178  -0.68652  -0.63738  -0.62639
 Alpha  occ. eigenvalues --   -0.60426  -0.58088  -0.56880  -0.53254  -0.51051
 Alpha  occ. eigenvalues --   -0.49752  -0.48648  -0.44132  -0.35386  -0.34707
 Alpha  occ. eigenvalues --   -0.32102
 Alpha virt. eigenvalues --    0.03141   0.03569   0.03766   0.04538   0.04786
 Alpha virt. eigenvalues --    0.05368   0.06714   0.07004   0.07766   0.08122
 Alpha virt. eigenvalues --    0.08963   0.09766   0.10609   0.10773   0.11134

 Mulliken charges:
               1
     1  C   -1.707395
     2  B    0.021811
     3  P   -1.163518
     4  C    0.680133
     5  C    0.441253
     6  C    0.053647
     7  C    0.397118
     8  C    0.406193
     9  H   -0.351930
    10  H   -0.374003
    11  H   -0.227181
    12  H   -0.218414
    13  H   -0.222670
    14  N    1.459505
    15  H    0.140735
    16  H   -0.024004
    17  H    0.314049
    18  H    0.374670
 Sum of Mulliken charges =  -0.00000

 Dipole moment (field-independent basis, Debye):
    X=             -0.9871    Y=             -0.7617    Z=              0.3270  Tot=              1.2890

 Test job not archived.
 1\1\GINC-SE128\SP\RHF\Aug-CC-pVDZ\C6H9B1N1P1\OHZDE\09-Apr-2025\0\\#t h
 f aug-cc-pvdz iop(5/13=1,5/36=2,99/5=2) pseudo=read geom=check guess=(
 read,tcheck) scf=(maxcycle=1)\\title\\0,1\C,0,-0.553209,-0.16042,-0.02
 1413\B,0,1.907651,0.523408,0.114029\P,0,3.744641,-0.016804,-0.118117\C
 ,0,-1.108232,1.124008,-0.044688\C,0,-2.489083,1.285715,-0.021016\C,0,-
 3.339173,0.181346,0.017527\C,0,-2.789033,-1.097391,0.032217\C,0,-1.408
 389,-1.267891,0.014027\H,0,-0.986743,-2.268523,0.031832\H,0,-0.461635,
 1.99015,-0.087022\H,0,-2.903573,2.287503,-0.039758\H,0,-4.414069,0.316

 Normal termination of Gaussian 16 at Wed Apr  9 00:45:23 2025.
