 Gaussian 16, Revision C.01,

 ----------------------------------------------------------------------
 #t hf aug-cc-pvdz symm=none int=(grid=ultrafine) guess=(read,tcheck) s
 table=(opt,rrhf)
 ----------------------------------------------------------------------
 -----
 title
 -----
 Symbolic Z-matrix:
 Charge =  0 Multiplicity = 1

 SCF Done:  E(RHF) =  -233.302394679     A.U. after   13 cycles
 Normal termination of Gaussian 16 at Wed Apr  9 00:37:51 2025.
 Gaussian 16:  ES64L-G16RevC.01  3-Jul-2019

 ----------------------------------------------------------------------
 #t hf aug-cc-pvdz iop(5/13=1,5/36=2,99/5=2) pseudo=read geom=check gue
 ss=(read,tcheck) scf=(maxcycle=1)
 ----------------------------------------------------------------------
 -----
 title
 -----
 Structure from the checkpoint file:  "BDE49_nonexpt_570_mol1.chk"
 Charge =  0 Multiplicity = 1

                         Standard orientation:
 ---------------------------------------------------------------------
 Center     Atomic      Atomic             Coordinates (Angstroms)
 Number     Number       Type             X           Y           Z
 ---------------------------------------------------------------------
      1          6           0        1.693626   -0.616084   -0.000004
      2          6           0        0.410497    0.193702   -0.000007
      3          1           0        2.543334    0.062702   -0.000008
      4          1           0        1.742054   -1.260423   -0.883256
      5          1           0        1.742056   -1.260413    0.883256
      6          5           0       -2.098577   -0.116091    0.000017
      7          8           0        0.386468    1.397485   -0.000007
      8          7           0       -0.767998   -0.590991    0.000008
      9          1           0       -2.967111   -0.930375   -0.000006
     10          1           0       -2.305222    1.049278   -0.000017
     11          1           0       -0.602723   -1.588966    0.000011
 ---------------------------------------------------------------------

 SCF Done:  E(RHF) =  -233.541474546     A.U. after    2 cycles

 The electronic state is 1-A.
 Alpha  occ. eigenvalues --  -20.52971 -15.52660 -11.37386 -11.25868  -7.60271
 Alpha  occ. eigenvalues --   -1.47920  -1.22382  -1.02168  -0.84142  -0.77481
 Alpha  occ. eigenvalues --   -0.69754  -0.63484  -0.62757  -0.59941  -0.56815
 Alpha  occ. eigenvalues --   -0.55053  -0.49126  -0.46086  -0.43665
 Alpha virt. eigenvalues --    0.02679   0.04348   0.04406   0.05180   0.05491
 Alpha virt. eigenvalues --    0.05653   0.06605   0.08967   0.10674   0.11284
 Alpha virt. eigenvalues --    0.12085   0.13056   0.13271   0.14719   0.16309

 Mulliken charges:
               1
     1  C   -0.454796
     2  C    0.634196
     3  H    0.132987
     4  H    0.226049
     5  H    0.226053
     6  B   -0.729955
     7  O   -1.187235
     8  N    0.522706
     9  H    0.317793
    10  H    0.292990
    11  H    0.019212
 Sum of Mulliken charges =  -0.00000

 Dipole moment (field-independent basis, Debye):
    X=              1.0188    Y=             -3.6693    Z=              0.0000  Tot=              3.8081

 Test job not archived.
 1\1\GINC-SE340\SP\RHF\Aug-CC-pVDZ\C2H6B1N1O1\OHZDE\09-Apr-2025\0\\#t h
 f aug-cc-pvdz iop(5/13=1,5/36=2,99/5=2) pseudo=read geom=check guess=(
 read,tcheck) scf=(maxcycle=1)\\title\\0,1\C,0,1.693626,-0.616084,-0.00
 0004\C,0,0.410497,0.193702,-0.000007\H,0,2.543334,0.062701,-0.000008\H
 ,0,1.742054,-1.260423,-0.883256\H,0,1.742056,-1.260413,0.883256\B,0,-2
 .098577,-0.116091,0.000017\O,0,0.386468,1.397485,-0.000007\N,0,-0.7679
 98,-0.590991,0.000008\H,0,-2.967111,-0.930375,-0.000006\H,0,-2.305222,
 1.049278,-0.000017\H,0,-0.602723,-1.588966,0.000011\\Version=ES64L-G16

 Normal termination of Gaussian 16 at Wed Apr  9 00:37:54 2025.
