 Gaussian 16, Revision C.01,

 ----------------------------------------------------------------------
 #t hf aug-cc-pvdz symm=none int=(grid=ultrafine) guess=(read,tcheck) s
 table=opt
 ----------------------------------------------------------------------
 -----
 title
 -----
 Symbolic Z-matrix:
 Charge =  0 Multiplicity = 2

 SCF Done:  E(UHF) =  -788.478601359     A.U. after   26 cycles
 Normal termination of Gaussian 16 at Tue Apr  8 23:21:15 2025.
 Gaussian 16:  ES64L-G16RevC.01  3-Jul-2019

 ----------------------------------------------------------------------
 #t hf aug-cc-pvdz iop(5/13=1,5/36=2,99/5=2) pseudo=read geom=check gue
 ss=(read,tcheck) scf=(maxcycle=1)
 ----------------------------------------------------------------------
 -----
 title
 -----
 Structure from the checkpoint file:  "BDE49_expt_833_mol2.chk"
 Charge =  0 Multiplicity = 2

                         Standard orientation:
 ---------------------------------------------------------------------
 Center     Atomic      Atomic             Coordinates (Angstroms)
 Number     Number       Type             X           Y           Z
 ---------------------------------------------------------------------
      1          6           0        6.740012   -0.103233   -0.257507
      2          6           0        5.400662   -0.631124    0.264614
      3          1           0        6.907503    0.931352    0.058150
      4          1           0        6.773778   -0.123560   -1.351340
      5          1           0        7.577321   -0.702074    0.111225
      6          6           0        4.195778    0.178886   -0.227577
      7          1           0        5.410958   -0.631261    1.361354
      8          1           0        5.278336   -1.678342   -0.037462
      9          6           0        2.850577   -0.342119    0.290484
     10          1           0        4.185856    0.178960   -1.325351
     11          1           0        4.318924    1.227278    0.074087
     12          6           0        1.646353    0.468239   -0.202648
     13          1           0        2.861466   -0.341912    1.388133
     14          1           0        2.728586   -1.390420   -0.011147
     15          6           0        0.301400   -0.053215    0.316059
     16          1           0        1.635187    0.467480   -1.300198
     17          1           0        1.768376    1.516715    0.098615
     18          6           0       -0.902297    0.757459   -0.177889
     19          1           0        0.312257   -0.052418    1.413661
     20          1           0        0.178854   -1.101258    0.014513
     21          6           0       -2.245836    0.233030    0.339590
     22          1           0       -0.913799    0.756073   -1.275196
     23          1           0       -0.780480    1.805941    0.123711
     24          6           0       -3.446839    1.046547   -0.152347
     25          1           0       -2.237098    0.229781    1.437619
     26          1           0       -2.372920   -0.811101    0.028621
     27          6           0       -4.792355    0.521513    0.352486
     28          1           0       -3.458569    1.064015   -1.247249
     29          1           0       -3.341975    2.087891    0.179479
     30          1           0       -4.821099    0.471155    1.447039
     31         16           0       -5.305349   -1.097324   -0.283047
     32          1           0       -5.610597    1.196995    0.068900
 ---------------------------------------------------------------------

 SCF Done:  E(UHF) =  -788.970125644     A.U. after    2 cycles

 The electronic state is 2-A.
 Alpha  occ. eigenvalues --  -93.96151 -11.27299 -11.23812 -11.22889 -11.22663
 Alpha  occ. eigenvalues --  -11.22456 -11.22445 -11.22348 -11.22275 -11.22229
 Alpha  occ. eigenvalues --  -11.22071  -8.24189  -6.23368  -6.21604  -6.21299
 Alpha  occ. eigenvalues --   -1.11183  -1.09143  -1.06206  -1.02313  -0.97780
 Alpha  occ. eigenvalues --   -0.92793  -0.87548  -0.82520  -0.79340  -0.79106
 Alpha  occ. eigenvalues --   -0.78625  -0.66777  -0.65015  -0.63275  -0.61935
 Alpha  occ. eigenvalues --   -0.60156  -0.59267  -0.57940  -0.56424  -0.55708
 Alpha  occ. eigenvalues --   -0.54162  -0.52410  -0.50828  -0.49896  -0.49404
 Alpha  occ. eigenvalues --   -0.48262  -0.47512  -0.46825  -0.46632  -0.46494
 Alpha  occ. eigenvalues --   -0.46342  -0.44257  -0.42605  -0.37395
 Alpha virt. eigenvalues --    0.02977   0.03065   0.03438   0.03824   0.04287
 Alpha virt. eigenvalues --    0.04490   0.05048   0.05710   0.06132   0.06375
 Alpha virt. eigenvalues --    0.06985   0.07659   0.07985   0.08898   0.09323

  Beta  occ. eigenvalues --  -93.95258 -11.27427 -11.23807 -11.22881 -11.22664
  Beta  occ. eigenvalues --  -11.22456 -11.22444 -11.22348 -11.22275 -11.22229
  Beta  occ. eigenvalues --  -11.22071  -8.23163  -6.21076  -6.20760  -6.19404
  Beta  occ. eigenvalues --   -1.10593  -1.08679  -1.05485  -1.01273  -0.96382
  Beta  occ. eigenvalues --   -0.91143  -0.86013  -0.81554  -0.79173  -0.78843
  Beta  occ. eigenvalues --   -0.77474  -0.66712  -0.64865  -0.62230  -0.61587
  Beta  occ. eigenvalues --   -0.60121  -0.59074  -0.57794  -0.56343  -0.55267
  Beta  occ. eigenvalues --   -0.53976  -0.52231  -0.50569  -0.49571  -0.49275
  Beta  occ. eigenvalues --   -0.48057  -0.47451  -0.46720  -0.46511  -0.46359
  Beta  occ. eigenvalues --   -0.45859  -0.44001  -0.35216
  Beta virt. eigenvalues --    0.01225   0.03003   0.03144   0.03446   0.03869
  Beta virt. eigenvalues --    0.04296   0.04577   0.05079   0.05747   0.06183
  Beta virt. eigenvalues --    0.06410   0.07046   0.07691   0.08056   0.08906

 Mulliken charges and spin densities:
               1          2
     1  C   -0.400430   0.000002
     2  C   -0.173331   0.000013
     3  H    0.161786  -0.000000
     4  H    0.162093   0.000000
     5  H    0.112680  -0.000000
     6  C   -0.293441  -0.000035
     7  H    0.116970   0.000002
     8  H    0.117060  -0.000001
     9  C   -0.226676   0.000011
    10  H    0.108553  -0.000002
    11  H    0.106041  -0.000003
    12  C   -0.222634  -0.001793
    13  H    0.106587  -0.000000
    14  H    0.107522  -0.000005
    15  C   -0.205703  -0.019660
    16  H    0.117992   0.000115
    17  H    0.120062  -0.000074
    18  C   -0.361191  -0.004892
    19  H    0.114216  -0.000233
    20  H    0.115344  -0.002248
    21  C   -0.260575  -0.004018
    22  H    0.101828  -0.001291
    23  H    0.107384   0.000482
    24  C   -0.285596   0.010427
    25  H    0.115065  -0.001494
    26  H    0.133872   0.004594
    27  C   -0.482920  -0.118863
    28  H    0.114353  -0.002332
    29  H    0.132510   0.002368
    30  H    0.184461   0.010600
    31  S    0.241720   1.105186
    32  H    0.214395   0.023144
 Sum of Mulliken charges =  -0.00000   1.00000

 Dipole moment (field-independent basis, Debye):
    X=              0.7748    Y=              1.5949    Z=              0.5793  Tot=              1.8654
                          Isotropic Fermi Contact Couplings
        Atom                 a.u.       MegaHertz       Gauss      10(-4) cm-1
     1  C(13)              0.00000       0.00027       0.00010       0.00009
     2  C(13)             -0.00000      -0.00042      -0.00015      -0.00014
     3  H(1)               0.00000       0.00001       0.00000       0.00000
     4  H(1)               0.00000       0.00000       0.00000       0.00000
     5  H(1)              -0.00000      -0.00000      -0.00000      -0.00000
     6  C(13)              0.00000       0.00021       0.00007       0.00007
     7  H(1)               0.00000       0.00008       0.00003       0.00003
     8  H(1)               0.00000       0.00004       0.00001       0.00001

 Normal termination of Gaussian 16 at Tue Apr  8 23:21:41 2025.
