 Gaussian 16, Revision C.01,

 ----------------------------------------------------------------------
 #t hf aug-cc-pvdz symm=none int=(grid=ultrafine) guess=(read,tcheck) s
 table=(opt,rrhf)
 ----------------------------------------------------------------------
 -----
 title
 -----
 Symbolic Z-matrix:
 Charge =  0 Multiplicity = 1

 SCF Done:  E(RHF) =  -204.167601308     A.U. after   13 cycles
 Normal termination of Gaussian 16 at Tue Apr  8 23:06:44 2025.
 Gaussian 16:  ES64L-G16RevC.01  3-Jul-2019

 ----------------------------------------------------------------------
 #t hf aug-cc-pvdz iop(5/13=1,5/36=2,99/5=2) pseudo=read geom=check gue
 ss=(read,tcheck) scf=(maxcycle=1)
 ----------------------------------------------------------------------
 -----
 title
 -----
 Structure from the checkpoint file:  "BDE49_expt_419_mol1.chk"
 Charge =  0 Multiplicity = 1

                         Standard orientation:
 ---------------------------------------------------------------------
 Center     Atomic      Atomic             Coordinates (Angstroms)
 Number     Number       Type             X           Y           Z
 ---------------------------------------------------------------------
      1          6           0        0.017238    0.124158   -0.000308
      2          7           0        0.192024    1.389211    0.011157
      3          7           0        0.991373   -0.877076    0.078306
      4          7           0       -1.270319   -0.406311   -0.084960
      5          1           0        1.937818   -0.548691   -0.044201
      6          1           0        0.794599   -1.696101   -0.481470
      7          1           0       -1.967790    0.318714    0.010003
      8          1           0       -1.439535   -1.188003    0.534227
      9          1           0        1.179931    1.628363   -0.048235
 ---------------------------------------------------------------------

 SCF Done:  E(RHF) =  -204.381922112     A.U. after    2 cycles

 The electronic state is 1-A.
 Alpha  occ. eigenvalues --  -15.52389 -15.51247 -15.45706 -11.34905  -1.29028
 Alpha  occ. eigenvalues --   -1.17315  -1.14395  -0.84390  -0.76854  -0.74622
 Alpha  occ. eigenvalues --   -0.67010  -0.65242  -0.59870  -0.48281  -0.46949
 Alpha  occ. eigenvalues --   -0.41144
 Alpha virt. eigenvalues --    0.02665   0.04803   0.05256   0.06446   0.06957
 Alpha virt. eigenvalues --    0.11574   0.12317   0.14312   0.14673   0.15582
 Alpha virt. eigenvalues --    0.17127   0.17520   0.17881   0.19072   0.21125

 Mulliken charges:
               1
     1  C   -1.776795
     2  N    0.455697
     3  N    0.261444
     4  N    0.361719
     5  H    0.176222
     6  H    0.084898
     7  H    0.166409
     8  H    0.158959
     9  H    0.111448
 Sum of Mulliken charges =  -0.00000

 Dipole moment (field-independent basis, Debye):
    X=              0.9994    Y=             -2.8784    Z=             -0.0536  Tot=              3.0474

 Test job not archived.
 1\1\GINC-SE051\SP\RHF\Aug-CC-pVDZ\C1H5N3\OHZDE\08-Apr-2025\0\\#t hf au
 g-cc-pvdz iop(5/13=1,5/36=2,99/5=2) pseudo=read geom=check guess=(read
 ,tcheck) scf=(maxcycle=1)\\title\\0,1\C,0,0.017238,0.124158,-0.000308\
 N,0,0.192027,1.38921,0.011157\N,0,0.991371,-0.877078,0.078306\N,0,-1.2
 7032,-0.406308,-0.08496\H,0,1.937817,-0.548696,-0.044201\H,0,0.794595,
 -1.696103,-0.48147\H,0,-1.967789,0.318718,0.010003\H,0,-1.439538,-1.18
 8,0.534227\H,0,1.179934,1.62836,-0.048235\\Version=ES64L-G16RevC.01\St
 ate=1-A\HF=-204.3819221\RMSD=2.301e-02\Dipole=0.3931791,-1.132449,-0.0

 Normal termination of Gaussian 16 at Tue Apr  8 23:06:46 2025.
