 Gaussian 16, Revision C.01,

 ----------------------------------------------------------------------
 #t hf aug-cc-pvdz symm=none int=(grid=ultrafine) guess=(read,tcheck) s
 table=opt
 ----------------------------------------------------------------------
 -----
 title
 -----
 Symbolic Z-matrix:
 Charge =  0 Multiplicity = 2

 SCF Done:  E(UHF) =  -368.708933686     A.U. after   14 cycles

 1\1\GINC-SE404\Stability\UHF\Aug-CC-pVDZ\C2H7Si1\OHZDE\08-Apr-2025\0\\
 #t hf aug-cc-pvdz symm=none int=(grid=ultrafine) guess=(read,tcheck) s
 table=opt\\title\\0,2\Si,0,-1.223912,-0.038444,0.\C,0,0.531084,0.67298
 2,-0.000002\C,0,1.64014,-0.398943,0.000001\H,0,1.575209,-1.041644,-0.8
 82028\H,0,1.575209,-1.041638,0.882035\H,0,2.632462,0.063863,0.\H,0,0.6
 35938,1.323068,0.875199\H,0,0.635938,1.323063,-0.875207\H,0,-1.473664,
 -0.86637,-1.211484\H,0,-1.473665,-0.86636,1.21149\\Version=ES64L-G16Re
 vC.01\HF=-368.7089337\S2=0.754155\S2-1=0.\S2A=0.750007\RMSD=5.919e-09\

 Normal termination of Gaussian 16 at Tue Apr  8 23:40:11 2025.
 Gaussian 16:  ES64L-G16RevC.01  3-Jul-2019

 ----------------------------------------------------------------------
 #t hf aug-cc-pvdz iop(5/13=1,5/36=2,99/5=2) pseudo=read geom=check gue
 ss=(read,tcheck) scf=(maxcycle=1)
 ----------------------------------------------------------------------
 -----
 title
 -----
 Structure from the checkpoint file:  "BDE49_nonexpt_1634_mol2.chk"
 Charge =  0 Multiplicity = 2

                         Standard orientation:
 ---------------------------------------------------------------------
 Center     Atomic      Atomic             Coordinates (Angstroms)
 Number     Number       Type             X           Y           Z
 ---------------------------------------------------------------------
      1         14           0       -1.223912   -0.038444    0.000000
      2          6           0        0.531084    0.672982   -0.000002
      3          6           0        1.640140   -0.398943    0.000001
      4          1           0        1.575209   -1.041644   -0.882028
      5          1           0        1.575209   -1.041638    0.882035
      6          1           0        2.632462    0.063863    0.000000
      7          1           0        0.635938    1.323068    0.875199
      8          1           0        0.635938    1.323063   -0.875207
      9          1           0       -1.473664   -0.866370   -1.211484
     10          1           0       -1.473665   -0.866360    1.211490
 ---------------------------------------------------------------------

 SCF Done:  E(UHF) =  -368.829819508     A.U. after    2 cycles

 The electronic state is 2-A.
 Alpha  occ. eigenvalues --  -69.52956 -11.23525 -11.22928  -6.20106  -3.96069
 Alpha  occ. eigenvalues --   -3.95156  -3.95144  -1.02985  -0.85715  -0.71472
 Alpha  occ. eigenvalues --   -0.61782  -0.58135  -0.53187  -0.51202  -0.47638
 Alpha  occ. eigenvalues --   -0.44593  -0.32691
 Alpha virt. eigenvalues --    0.03664   0.04386   0.04557   0.04585   0.06363
 Alpha virt. eigenvalues --    0.07214   0.07930   0.08476   0.10056   0.11115
 Alpha virt. eigenvalues --    0.12398   0.14197   0.15307   0.16506   0.17015

  Beta  occ. eigenvalues --  -69.52400 -11.23428 -11.22889  -6.19265  -3.94773
  Beta  occ. eigenvalues --   -3.94763  -3.93910  -1.02552  -0.85114  -0.67717
  Beta  occ. eigenvalues --   -0.61639  -0.57250  -0.52566  -0.50975  -0.46916
  Beta  occ. eigenvalues --   -0.43769
  Beta virt. eigenvalues --    0.02578   0.03768   0.04469   0.04590   0.06153
  Beta virt. eigenvalues --    0.06635   0.07366   0.08498   0.08957   0.10558
  Beta virt. eigenvalues --    0.11350   0.12872   0.14475   0.15807   0.16880

 Mulliken charges and spin densities:
               1          2
     1  Si   0.728847   0.974024
     2  C   -0.718239  -0.003438
     3  C   -0.359682   0.009702
     4  H    0.142141  -0.004595
     5  H    0.142142  -0.004595
     6  H    0.109297   0.006511
     7  H    0.138460  -0.001994
     8  H    0.138461  -0.001994
     9  H   -0.160714   0.013189
    10  H   -0.160713   0.013189
 Sum of Mulliken charges =  -0.00000   1.00000

 Dipole moment (field-independent basis, Debye):
    X=              0.8739    Y=              0.2956    Z=             -0.0000  Tot=              0.9226
                          Isotropic Fermi Contact Couplings
        Atom                 a.u.       MegaHertz       Gauss      10(-4) cm-1
     1  Si(29)             0.56333    -500.64276    -178.64179    -166.99645
     2  C(13)              0.01157      13.01236       4.64313       4.34045
     3  C(13)              0.02577      28.97052      10.33740       9.66352
     4  H(1)              -0.00028      -1.26682      -0.45203      -0.42257
     5  H(1)              -0.00028      -1.26682      -0.45203      -0.42257
     6  H(1)               0.00295      13.19248       4.70740       4.40054
     7  H(1)               0.00024       1.09202       0.38966       0.36426
     8  H(1)               0.00024       1.09206       0.38968       0.36427

 Normal termination of Gaussian 16 at Tue Apr  8 23:40:14 2025.
