 Gaussian 16, Revision C.01,

 ----------------------------------------------------------------------
 #t hf aug-cc-pvdz symm=none int=(grid=ultrafine) guess=(read,tcheck) s
 table=(opt,rrhf)
 ----------------------------------------------------------------------
 -----
 title
 -----
 Symbolic Z-matrix:
 Charge =  0 Multiplicity = 1

 SCF Done:  E(RHF) =  -1360.56703483     A.U. after   13 cycles
 Normal termination of Gaussian 16 at Wed Apr  9 00:43:52 2025.
 Gaussian 16:  ES64L-G16RevC.01  3-Jul-2019

 ----------------------------------------------------------------------
 #t hf aug-cc-pvdz iop(5/13=1,5/36=2,99/5=2) pseudo=read geom=check gue
 ss=(read,tcheck) scf=(maxcycle=1)
 ----------------------------------------------------------------------
 -----
 title
 -----
 Structure from the checkpoint file:  "BDE49_nonexpt_755_mol1.chk"
 Charge =  0 Multiplicity = 1

                         Standard orientation:
 ---------------------------------------------------------------------
 Center     Atomic      Atomic             Coordinates (Angstroms)
 Number     Number       Type             X           Y           Z
 ---------------------------------------------------------------------
      1         15           0       -0.248534   -0.123496    0.878495
      2          5           0        0.566655    1.580821    0.286245
      3         17           0        1.036871   -1.420846   -0.208081
      4         17           0       -1.888918    0.101413   -0.428213
      5          8           0        1.667100    1.629961   -0.465351
      6          1           0        1.996848    0.753753   -0.722375
      7          1           0        0.045878    2.585260    0.653535
 ---------------------------------------------------------------------

 SCF Done:  E(RHF) =  -1360.86495257     A.U. after    2 cycles

 The electronic state is 1-A.
 Alpha  occ. eigenvalues -- -105.58895-105.58718 -84.37791 -20.59681 -10.63751
 Alpha  occ. eigenvalues --  -10.63550  -7.80642  -7.80456  -7.80305  -7.80279
 Alpha  occ. eigenvalues --   -7.80084  -7.80062  -7.66678  -6.84264  -4.36109
 Alpha  occ. eigenvalues --   -4.35903  -4.35516  -1.50011  -1.11089  -1.05603
 Alpha  occ. eigenvalues --   -0.83894  -0.78560  -0.65292  -0.62246  -0.57568
 Alpha  occ. eigenvalues --   -0.56099  -0.53327  -0.51880  -0.49741  -0.47537
 Alpha  occ. eigenvalues --   -0.45951  -0.36627
 Alpha virt. eigenvalues --    0.03293   0.04179   0.04633   0.05502   0.07000
 Alpha virt. eigenvalues --    0.07519   0.08286   0.09680   0.10837   0.11949
 Alpha virt. eigenvalues --    0.13937   0.14046   0.14625   0.15419   0.16267

 Mulliken charges:
               1
     1  P    0.321106
     2  B    1.020325
     3  Cl  -0.529338
     4  Cl  -0.462210
     5  O   -1.025075
     6  H    0.638020
     7  H    0.037173
 Sum of Mulliken charges =  -0.00000

 Dipole moment (field-independent basis, Debye):
    X=              0.7677    Y=              0.3211    Z=              1.2647  Tot=              1.5139

 Test job not archived.
 1\1\GINC-SE367\SP\RHF\Aug-CC-pVDZ\B1Cl2H2O1P1\OHZDE\09-Apr-2025\0\\#t
 hf aug-cc-pvdz iop(5/13=1,5/36=2,99/5=2) pseudo=read geom=check guess=
 (read,tcheck) scf=(maxcycle=1)\\title\\0,1\P,0,-0.248534,-0.123496,0.8
 78495\B,0,0.566656,1.580821,0.286245\Cl,0,1.036871,-1.420846,-0.208081
 \Cl,0,-1.888918,0.101413,-0.428213\O,0,1.667101,1.62996,-0.465351\H,0,
 1.996848,0.753752,-0.722375\H,0,0.045879,2.58526,0.653535\\Version=ES6
 4L-G16RevC.01\State=1-A\HF=-1360.8649526\RMSD=1.361e-02\Dipole=0.30203
 96,0.1263152,0.4975833\Quadrupole=0.0405772,-1.696667,1.6560898,-1.040

 Normal termination of Gaussian 16 at Wed Apr  9 00:43:55 2025.
