 Gaussian 16, Revision C.01,

 ----------------------------------------------------------------------
 #t hf aug-cc-pvdz symm=none int=(grid=ultrafine) guess=(read,tcheck) s
 table=(opt,rrhf)
 ----------------------------------------------------------------------
 -----
 title
 -----
 Symbolic Z-matrix:
 Charge =  0 Multiplicity = 1

 SCF Done:  E(RHF) =  -607.848398164     A.U. after   15 cycles
 Normal termination of Gaussian 16 at Tue Apr  8 23:31:15 2025.
 Gaussian 16:  ES64L-G16RevC.01  3-Jul-2019

 ----------------------------------------------------------------------
 #t hf aug-cc-pvdz iop(5/13=1,5/36=2,99/5=2) pseudo=read geom=check gue
 ss=(read,tcheck) scf=(maxcycle=1)
 ----------------------------------------------------------------------
 -----
 title
 -----
 Structure from the checkpoint file:  "BDE49_nonexpt_1395_mol1.chk"
 Charge =  0 Multiplicity = 1

                         Standard orientation:
 ---------------------------------------------------------------------
 Center     Atomic      Atomic             Coordinates (Angstroms)
 Number     Number       Type             X           Y           Z
 ---------------------------------------------------------------------
      1          6           0       -0.076217   -0.680994    1.386461
      2          6           0       -0.076217    0.657380    1.273999
      3         15           0        0.211106   -1.800135   -0.000000
      4          6           0       -0.076217   -0.680994   -1.386461
      5          6           0       -0.076217    0.657380   -1.273999
      6          6           0       -0.017311    1.408427    0.000000
      7          1           0       -0.128901   -1.139407    2.370275
      8          1           0       -0.138803    1.290064    2.154648
      9          8           0        0.039813    2.630483    0.000000
     10          1           0       -1.016614   -2.510353   -0.000000
     11          1           0       -0.138803    1.290064   -2.154648
     12          1           0       -0.128901   -1.139407   -2.370275
 ---------------------------------------------------------------------

 SCF Done:  E(RHF) =  -608.158731481     A.U. after    2 cycles

 The electronic state is 1-A'.
 Alpha  occ. eigenvalues --  -84.30210 -20.53527 -11.34622 -11.28385 -11.28364
 Alpha  occ. eigenvalues --  -11.26732 -11.26726  -6.77454  -4.30230  -4.30156
 Alpha  occ. eigenvalues --   -4.29183  -1.46410  -1.13287  -1.05798  -0.95974
 Alpha  occ. eigenvalues --   -0.84456  -0.83582  -0.69947  -0.67369  -0.67277
 Alpha  occ. eigenvalues --   -0.62476  -0.60313  -0.56615  -0.53139  -0.49713
 Alpha  occ. eigenvalues --   -0.44255  -0.42182  -0.40663  -0.33473
 Alpha virt. eigenvalues --    0.02982   0.03355   0.04547   0.05139   0.05407
 Alpha virt. eigenvalues --    0.06162   0.07530   0.08601   0.09307   0.10227
 Alpha virt. eigenvalues --    0.11195   0.12524   0.12802   0.13375   0.14404

 Mulliken charges:
               1
     1  C   -0.198837
     2  C    0.294780
     3  P    0.896082
     4  C   -0.198837
     5  C    0.294780
     6  C    0.648234
     7  H   -0.231360
     8  H   -0.233860
     9  O   -1.410897
    10  H    0.605137
    11  H   -0.233860
    12  H   -0.231360
 Sum of Mulliken charges =  -0.00000

 Dipole moment (field-independent basis, Debye):
    X=             -0.6584    Y=             -3.9520    Z=             -0.0000  Tot=              4.0064

 Test job not archived.
 1\1\GINC-SE086\SP\RHF\Aug-CC-pVDZ\C5H5O1P1\OHZDE\08-Apr-2025\0\\#t hf
 aug-cc-pvdz iop(5/13=1,5/36=2,99/5=2) pseudo=read geom=check guess=(re
 ad,tcheck) scf=(maxcycle=1)\\title\\0,1\C,0,-0.076217,-0.680994,1.3864
 61\C,0,-0.076217,0.65738,1.273999\P,0,0.211106,-1.800135,0.\C,0,-0.076
 217,-0.680994,-1.386461\C,0,-0.076217,0.65738,-1.273999\C,0,-0.017311,
 1.408427,0.\H,0,-0.128901,-1.139407,2.370275\H,0,-0.138803,1.290064,2.
 154648\O,0,0.039813,2.630483,0.\H,0,-1.016614,-2.510353,0.\H,0,-0.1388
 03,1.290064,-2.154648\H,0,-0.128901,-1.139407,-2.370275\\Version=ES64L

 Normal termination of Gaussian 16 at Tue Apr  8 23:31:20 2025.
