 Gaussian 16, Revision C.01,

 ----------------------------------------------------------------------
 #t hf aug-cc-pvdz symm=none int=(grid=ultrafine) guess=(read,tcheck) s
 table=(opt,rrhf)
 ----------------------------------------------------------------------
 -----
 title
 -----
 Symbolic Z-matrix:
 Charge =  0 Multiplicity = 1

 SCF Done:  E(RHF) =  -884.843990345     A.U. after   16 cycles
 Normal termination of Gaussian 16 at Tue Apr  8 22:52:42 2025.
 Gaussian 16:  ES64L-G16RevC.01  3-Jul-2019

 ----------------------------------------------------------------------
 #t hf aug-cc-pvdz iop(5/13=1,5/36=2,99/5=2) pseudo=read geom=check gue
 ss=(read,tcheck) scf=(maxcycle=1)
 ----------------------------------------------------------------------
 -----
 title
 -----
 Structure from the checkpoint file:  "BDE49_expt_1694_mol1.chk"
 Charge =  0 Multiplicity = 1

                         Standard orientation:
 ---------------------------------------------------------------------
 Center     Atomic      Atomic             Coordinates (Angstroms)
 Number     Number       Type             X           Y           Z
 ---------------------------------------------------------------------
      1          6           0       -0.927677    1.233012   -0.408482
      2          6           0        0.447453    1.231102   -0.184138
      3          6           0        1.170257    0.036651   -0.095650
      4          6           0        0.450112   -1.159458   -0.244176
      5          6           0       -0.919661   -1.161807   -0.468042
      6          6           0       -1.631913    0.038618   -0.554466
      7          1           0       -1.456946    2.178677   -0.467357
      8          1           0        0.951595    2.182479   -0.079373
      9          6           0       -3.105667    0.040431   -0.801565
     10          1           0       -1.444405   -2.105856   -0.573785
     11          1           0       -3.440779    0.953226   -1.288504
     12         17           0       -4.078264   -0.045588    0.761804
     13          1           0       -3.429157   -0.823719   -1.377315
     14          1           0        0.966094   -2.110806   -0.185752
     15          6           0        2.688077   -0.006757    0.152029
     16          6           0        3.299476    1.399484    0.289073
     17          1           0        3.159751    1.994659   -0.617442
     18          1           0        4.375122    1.315182    0.464804
     19          1           0        2.870500    1.949655    1.130883
     20          6           0        3.381813   -0.720544   -1.031647
     21          1           0        3.199140   -0.188821   -1.969414
     22          1           0        3.025266   -1.745771   -1.153765
     23          1           0        4.463076   -0.760810   -0.868429
     24          6           0        2.971959   -0.784971    1.458051
     25          1           0        2.493979   -0.299601    2.313129
     26          1           0        4.048857   -0.826224    1.647749
     27          1           0        2.603011   -1.811840    1.407984
 ---------------------------------------------------------------------

 SCF Done:  E(RHF) =  -885.372101022     A.U. after    2 cycles

 The electronic state is 1-A.
 Alpha  occ. eigenvalues -- -105.54779 -11.31007 -11.25595 -11.25329 -11.25222
 Alpha  occ. eigenvalues --  -11.24895 -11.24876 -11.24309 -11.24252 -11.22853
 Alpha  occ. eigenvalues --  -11.22832 -11.22770 -10.59537  -7.76469  -7.76107
 Alpha  occ. eigenvalues --   -7.76101  -1.17389  -1.12023  -1.08064  -1.02269
 Alpha  occ. eigenvalues --   -1.00713  -0.94011  -0.93806  -0.90990  -0.84163
 Alpha  occ. eigenvalues --   -0.82611  -0.76632  -0.69903  -0.67661  -0.64671
 Alpha  occ. eigenvalues --   -0.62887  -0.61338  -0.60917  -0.60479  -0.58789
 Alpha  occ. eigenvalues --   -0.57340  -0.55774  -0.54687  -0.53948  -0.52649
 Alpha  occ. eigenvalues --   -0.51485  -0.50240  -0.47898  -0.47723  -0.46868
 Alpha  occ. eigenvalues --   -0.44001  -0.43824  -0.35071  -0.33714
 Alpha virt. eigenvalues --    0.03074   0.03138   0.03449   0.03903   0.04398
 Alpha virt. eigenvalues --    0.04682   0.05788   0.06264   0.06736   0.07115
 Alpha virt. eigenvalues --    0.07353   0.08218   0.09346   0.09503   0.09882

 Mulliken charges:
               1
     1  C   -0.146142
     2  C    0.381918
     3  C    1.875317
     4  C    0.005737
     5  C   -0.309290
     6  C    1.335403
     7  H   -0.314312
     8  H   -0.479970
     9  C   -0.364923
    10  H   -0.327918
    11  H    0.011194
    12  Cl  -0.116298
    13  H    0.028147
    14  H   -0.403091
    15  C   -2.748986
    16  C    0.132386
    17  H    0.252291
    18  H    0.069665
    19  H    0.253263
    20  C   -0.068235
    21  H    0.177922
    22  H    0.156489
    23  H    0.168075
    24  C   -0.069616
    25  H    0.181557
    26  H    0.163943
    27  H    0.155476
 Sum of Mulliken charges =  -0.00000

 Dipole moment (field-independent basis, Debye):
    X=              2.3330    Y=              0.0852    Z=             -1.6873  Tot=              2.8804

 Test job not archived.
 1\1\GINC-SE368\SP\RHF\Aug-CC-pVDZ\C11H15Cl1\OHZDE\08-Apr-2025\0\\#t hf
  aug-cc-pvdz iop(5/13=1,5/36=2,99/5=2) pseudo=read geom=check guess=(r
 ead,tcheck) scf=(maxcycle=1)\\title\\0,1\C,0,-0.927677,1.233012,-0.408
 482\C,0,0.447453,1.231102,-0.184138\C,0,1.170257,0.036651,-0.09565\C,0
 ,0.450112,-1.159458,-0.244176\C,0,-0.919661,-1.161807,-0.468042\C,0,-1
 .631913,0.038618,-0.554466\H,0,-1.456946,2.178677,-0.467357\H,0,0.9515
 95,2.182479,-0.079373\C,0,-3.105667,0.040431,-0.801565\H,0,-1.444405,-
 2.105856,-0.573785\H,0,-3.440779,0.953226,-1.288504\Cl,0,-4.078264,-0.

 Normal termination of Gaussian 16 at Tue Apr  8 22:53:02 2025.
