 Gaussian 16, Revision C.01,

 ----------------------------------------------------------------------
 #t hf aug-cc-pvdz symm=none int=(grid=ultrafine) guess=(read,tcheck) s
 table=opt
 ----------------------------------------------------------------------
 -----
 title
 -----
 Symbolic Z-matrix:
 Charge =  0 Multiplicity = 2

 SCF Done:  E(UHF) =  -664.939404104     A.U. after   24 cycles
 Normal termination of Gaussian 16 at Wed Apr  9 00:20:14 2025.
 Gaussian 16:  ES64L-G16RevC.01  3-Jul-2019

 ----------------------------------------------------------------------
 #t hf aug-cc-pvdz iop(5/13=1,5/36=2,99/5=2) pseudo=read geom=check gue
 ss=(read,tcheck) scf=(maxcycle=1)
 ----------------------------------------------------------------------
 -----
 title
 -----
 Structure from the checkpoint file:  "BDE49_nonexpt_2587_mol2.chk"
 Charge =  0 Multiplicity = 2

                         Standard orientation:
 ---------------------------------------------------------------------
 Center     Atomic      Atomic             Coordinates (Angstroms)
 Number     Number       Type             X           Y           Z
 ---------------------------------------------------------------------
      1         16           0       -1.047583   -1.277335   -0.081922
      2          6           0       -0.211859    0.385126    0.051388
      3          8           0        0.958702    0.268428   -0.727276
      4          8           0        0.026149    0.686511    1.393862
      5          6           0        2.090874   -0.368999   -0.132591
      6          1           0        2.491125    0.233498    0.686897
      7          1           0        2.834719   -0.443668   -0.923796
      8          1           0        1.847651   -1.374086    0.225471
      9          6           0       -1.030449    1.509446   -0.549392
     10          1           0       -1.174396    1.336238   -1.614824
     11          1           0       -0.492383    2.449105   -0.403977
     12          1           0       -2.000926    1.567119   -0.056650
     13          1           0        0.285339   -0.123793    1.848525
 ---------------------------------------------------------------------

 SCF Done:  E(UHF) =  -665.268487355     A.U. after    2 cycles

 The electronic state is 2-A.
 Alpha  occ. eigenvalues --  -93.97124 -20.57934 -20.56751 -11.39259 -11.29428
 Alpha  occ. eigenvalues --  -11.23582  -8.25230  -6.24412  -6.22621  -6.22324
 Alpha  occ. eigenvalues --   -1.52378  -1.45461  -1.07224  -0.99227  -0.93944
 Alpha  occ. eigenvalues --   -0.81404  -0.73338  -0.67466  -0.66814  -0.63483
 Alpha  occ. eigenvalues --   -0.59098  -0.56418  -0.54990  -0.52861  -0.52602
 Alpha  occ. eigenvalues --   -0.48281  -0.45135  -0.42210  -0.39394
 Alpha virt. eigenvalues --    0.03595   0.04479   0.04636   0.05295   0.06629
 Alpha virt. eigenvalues --    0.06971   0.07310   0.08322   0.11271   0.12420
 Alpha virt. eigenvalues --    0.12862   0.14804   0.15346   0.15632   0.16286

  Beta  occ. eigenvalues --  -93.96215 -20.57886 -20.56587 -11.39407 -11.29432
  Beta  occ. eigenvalues --  -11.23576  -8.24187  -6.22062  -6.21776  -6.20392
  Beta  occ. eigenvalues --   -1.52173  -1.45165  -1.05555  -0.93909  -0.92988
  Beta  occ. eigenvalues --   -0.80634  -0.72699  -0.66778  -0.66114  -0.62711
  Beta  occ. eigenvalues --   -0.59018  -0.56286  -0.54834  -0.52532  -0.51990
  Beta  occ. eigenvalues --   -0.47566  -0.41459  -0.37166
  Beta virt. eigenvalues --    0.00261   0.03611   0.04628   0.04784   0.05331
  Beta virt. eigenvalues --    0.06738   0.07057   0.07335   0.08435   0.11508
  Beta virt. eigenvalues --    0.12838   0.13211   0.14805   0.15757   0.15870

 Mulliken charges and spin densities:
               1          2
     1  S    0.250916   1.104023
     2  C    1.339260  -0.096233
     3  O   -1.392374   0.003059
     4  O   -1.389113   0.004633
     5  C    0.209869  -0.000580
     6  H    0.136970   0.001219
     7  H   -0.028169  -0.000732
     8  H    0.171036  -0.005806
     9  C   -0.313439   0.003122
    10  H    0.201351  -0.005550
    11  H    0.202393  -0.001603
    12  H    0.180857   0.000647
    13  H    0.430444  -0.006199
 Sum of Mulliken charges =  -0.00000   1.00000

 Dipole moment (field-independent basis, Debye):
    X=              1.1907    Y=             -0.2762    Z=              0.6778  Tot=              1.3977
                          Isotropic Fermi Contact Couplings
        Atom                 a.u.       MegaHertz       Gauss      10(-4) cm-1
     1  S(33)              0.17594      60.43234      21.56376      20.15806
     2  C(13)             -0.02508     -28.19922     -10.06218      -9.40625
     3  O(17)              0.02547     -15.44247      -5.51026      -5.15105
     4  O(17)              0.00393      -2.38371      -0.85057      -0.79512
     5  C(13)             -0.00085      -0.95133      -0.33946      -0.31733
     6  H(1)              -0.00016      -0.71935      -0.25668      -0.23995
     7  H(1)               0.00004       0.18044       0.06438       0.06019
     8  H(1)              -0.00021      -0.95594      -0.34110      -0.31887

 Normal termination of Gaussian 16 at Wed Apr  9 00:20:19 2025.
