 Gaussian 16, Revision C.01,

 ----------------------------------------------------------------------
 #t hf aug-cc-pvdz symm=none int=(grid=ultrafine) guess=(read,tcheck) s
 table=(opt,rrhf)
 ----------------------------------------------------------------------
 -----
 title
 -----
 Symbolic Z-matrix:
 Charge =  0 Multiplicity = 1

 SCF Done:  E(RHF) =  -1375.27959462     A.U. after   13 cycles
 Normal termination of Gaussian 16 at Wed Apr  9 00:50:12 2025.
 Gaussian 16:  ES64L-G16RevC.01  3-Jul-2019

 ----------------------------------------------------------------------
 #t hf aug-cc-pvdz iop(5/13=1,5/36=2,99/5=2) pseudo=read geom=check gue
 ss=(read,tcheck) scf=(maxcycle=1)
 ----------------------------------------------------------------------
 -----
 title
 -----
 Structure from the checkpoint file:  "BDE49_nonexpt_888_mol1.chk"
 Charge =  0 Multiplicity = 1

                         Standard orientation:
 ---------------------------------------------------------------------
 Center     Atomic      Atomic             Coordinates (Angstroms)
 Number     Number       Type             X           Y           Z
 ---------------------------------------------------------------------
      1         16           0        0.186483   -1.154966   -0.585788
      2          5           0        1.441644    0.033483   -0.065671
      3         16           0        1.093694    1.820281    0.053977
      4          6           0       -1.348348   -0.173711   -0.896404
      5          6           0       -2.232374    0.071104    0.337059
      6          6           0       -3.368380    1.035069   -0.039464
      7          1           0       -2.980616    1.988065   -0.410086
      8          1           0       -3.999421    1.245290    0.828204
      9          1           0       -4.007882    0.605205   -0.817886
     10          6           0       -2.785798   -1.233894    0.920983
     11          1           0       -1.615300    0.556752    1.101086
     12          1           0       -3.424514   -1.746421    0.193005
     13          1           0       -3.389661   -1.033679    1.809961
     14          1           0       -1.983831   -1.917550    1.207826
     15          1           0       -1.893809   -0.754732   -1.645254
     16          1           0       -1.055346    0.766438   -1.366442
     17         16           0        3.114651   -0.566039    0.343569
     18          1           0        2.329748    2.216186    0.404843
     19          1           0        2.904570   -1.872787    0.101907
 ---------------------------------------------------------------------

 SCF Done:  E(RHF) =  -1375.65873681     A.U. after    2 cycles

 The electronic state is 1-A.
 Alpha  occ. eigenvalues --  -93.96083 -93.95741 -93.94839 -11.27706 -11.24768
 Alpha  occ. eigenvalues --  -11.23149 -11.22676  -8.24377  -8.24025  -8.23150
 Alpha  occ. eigenvalues --   -7.67654  -6.22217  -6.22075  -6.21904  -6.21868
 Alpha  occ. eigenvalues --   -6.21725  -6.21550  -6.20963  -6.20795  -6.20666
 Alpha  occ. eigenvalues --   -1.11763  -1.06593  -1.01822  -1.00596  -0.93856
 Alpha  occ. eigenvalues --   -0.89673  -0.78675  -0.67116  -0.65348  -0.61691
 Alpha  occ. eigenvalues --   -0.61235  -0.58994  -0.56089  -0.55146  -0.54133
 Alpha  occ. eigenvalues --   -0.51242  -0.49632  -0.48510  -0.48152  -0.45748
 Alpha  occ. eigenvalues --   -0.45514  -0.43231  -0.38152  -0.36560
 Alpha virt. eigenvalues --    0.03581   0.03618   0.03885   0.04005   0.05407
 Alpha virt. eigenvalues --    0.05898   0.06253   0.06569   0.06731   0.08177
 Alpha virt. eigenvalues --    0.08471   0.08973   0.09522   0.10091   0.10650

 Mulliken charges:
               1
     1  S    0.120622
     2  B    1.156406
     3  S   -0.615849
     4  C   -0.463799
     5  C   -1.290962
     6  C   -0.105408
     7  H    0.148391
     8  H    0.144479
     9  H    0.235349
    10  C   -0.128851
    11  H    0.168966
    12  H    0.213628
    13  H    0.149968
    14  H    0.180323
    15  H    0.215632
    16  H    0.090781
    17  S   -0.770454
    18  H    0.276143
    19  H    0.274633
 Sum of Mulliken charges =  -0.00000

 Dipole moment (field-independent basis, Debye):
    X=             -1.3047    Y=              0.2567    Z=             -0.0494  Tot=              1.3306

 Test job not archived.
 1\1\GINC-SE435\SP\RHF\Aug-CC-pVDZ\C4H11B1S3\OHZDE\09-Apr-2025\0\\#t hf
  aug-cc-pvdz iop(5/13=1,5/36=2,99/5=2) pseudo=read geom=check guess=(r
 ead,tcheck) scf=(maxcycle=1)\\title\\0,1\S,0,0.186483,-1.154966,-0.585
 788\B,0,1.441644,0.033483,-0.065671\S,0,1.093694,1.820281,0.053977\C,0
 ,-1.348348,-0.173711,-0.896404\C,0,-2.232374,0.071104,0.337059\C,0,-3.
 36838,1.035069,-0.039464\H,0,-2.980616,1.988065,-0.410086\H,0,-3.99942
 1,1.24529,0.828204\H,0,-4.007882,0.605205,-0.817886\C,0,-2.785798,-1.2
 33894,0.920983\H,0,-1.6153,0.556752,1.101086\H,0,-3.424514,-1.746421,0

 Normal termination of Gaussian 16 at Wed Apr  9 00:50:21 2025.
