 Gaussian 16, Revision C.01,

 ----------------------------------------------------------------------
 #t hf aug-cc-pvdz symm=none int=(grid=ultrafine) guess=(read,tcheck) s
 table=opt
 ----------------------------------------------------------------------
 -----
 title
 -----
 Symbolic Z-matrix:
 Charge =  0 Multiplicity = 2

 SCF Done:  E(UHF) =  -1376.39633996     A.U. after   20 cycles
 Normal termination of Gaussian 16 at Tue Apr  8 23:47:06 2025.
 Gaussian 16:  ES64L-G16RevC.01  3-Jul-2019

 ----------------------------------------------------------------------
 #t hf aug-cc-pvdz iop(5/13=1,5/36=2,99/5=2) pseudo=read geom=check gue
 ss=(read,tcheck) scf=(maxcycle=1)
 ----------------------------------------------------------------------
 -----
 title
 -----
 Structure from the checkpoint file:  "BDE49_nonexpt_1783_mol2.chk"
 Charge =  0 Multiplicity = 2

                         Standard orientation:
 ---------------------------------------------------------------------
 Center     Atomic      Atomic             Coordinates (Angstroms)
 Number     Number       Type             X           Y           Z
 ---------------------------------------------------------------------
      1         14           0        0.315511   -0.013452    0.608142
      2          6           0       -1.533904   -0.326890    0.026727
      3         17           0        0.945643    1.853506   -0.131164
      4         17           0        1.488392   -1.493600   -0.239753
      5          7           0       -2.285620    0.777397   -0.207399
      6          1           0       -1.863279    1.687967   -0.294756
      7          1           0       -3.243619    0.653639   -0.506742
      8          8           0       -1.935762   -1.469014   -0.014435
 ---------------------------------------------------------------------

 SCF Done:  E(UHF) =  -1376.74189715     A.U. after    2 cycles

 The electronic state is 2-A.
 Alpha  occ. eigenvalues -- -105.58847-105.58199 -69.65456 -20.54292 -15.55385
 Alpha  occ. eigenvalues --  -11.38312 -10.63796 -10.63170  -7.80753  -7.80390
 Alpha  occ. eigenvalues --   -7.80339  -7.80148  -7.79759  -7.79686  -6.31705
 Alpha  occ. eigenvalues --   -4.07328  -4.06693  -4.06531  -1.48876  -1.24808
 Alpha  occ. eigenvalues --   -1.09766  -1.06338  -0.88640  -0.80455  -0.74190
 Alpha  occ. eigenvalues --   -0.67748  -0.61850  -0.60659  -0.57811  -0.53996
 Alpha  occ. eigenvalues --   -0.51759  -0.50049  -0.48259  -0.46496  -0.44343
 Alpha  occ. eigenvalues --   -0.37527
 Alpha virt. eigenvalues --    0.02806   0.04944   0.05326   0.05579   0.06625
 Alpha virt. eigenvalues --    0.07996   0.08810   0.11478   0.12049   0.12142
 Alpha virt. eigenvalues --    0.12717   0.13280   0.15064   0.15825   0.16140

  Beta  occ. eigenvalues -- -105.58746-105.58090 -69.64869 -20.54143 -15.55356
  Beta  occ. eigenvalues --  -11.38015 -10.63686 -10.63052  -7.80523  -7.80285
  Beta  occ. eigenvalues --   -7.80163  -7.79900  -7.79629  -7.79514  -6.30749
  Beta  occ. eigenvalues --   -4.06312  -4.06204  -4.05320  -1.48489  -1.24573
  Beta  occ. eigenvalues --   -1.08731  -1.05506  -0.87666  -0.79732  -0.72216
  Beta  occ. eigenvalues --   -0.66272  -0.61614  -0.59233  -0.56577  -0.51840
  Beta  occ. eigenvalues --   -0.51184  -0.49074  -0.48067  -0.45859  -0.42148
  Beta virt. eigenvalues --   -0.01213   0.02897   0.05363   0.05792   0.05864
  Beta virt. eigenvalues --    0.06808   0.08282   0.10484   0.11799   0.12220
  Beta virt. eigenvalues --    0.12574   0.13550   0.14212   0.16031   0.16344

 Mulliken charges and spin densities:
               1          2
     1  Si   1.322358   0.796866
     2  C    0.044717   0.071351
     3  Cl  -0.539087   0.045044
     4  Cl  -0.455944   0.047321
     5  N    0.552710   0.000957
     6  H    0.053143   0.002082
     7  H    0.076500   0.002940
     8  O   -1.054397   0.033439
 Sum of Mulliken charges =  -0.00000   1.00000

 Dipole moment (field-independent basis, Debye):
    X=             -0.9982    Y=              2.8980    Z=              0.4084  Tot=              3.0922
                          Isotropic Fermi Contact Couplings
        Atom                 a.u.       MegaHertz       Gauss      10(-4) cm-1
     1  Si(29)             0.92144    -818.90598    -292.20602    -273.15763
     2  C(13)              0.07114      79.98050      28.53903      26.67862
     3  Cl(35)             0.05756      25.23898       9.00590       8.41882
     4  Cl(35)             0.05919      25.95236       9.26045       8.65677
     5  N(14)              0.00925       2.98891       1.06652       0.99699
     6  H(1)              -0.00018      -0.79520      -0.28375      -0.26525
     7  H(1)               0.00121       5.39364       1.92459       1.79913
     8  O(17)              0.01140      -6.91305      -2.46675      -2.30595

 Normal termination of Gaussian 16 at Tue Apr  8 23:47:10 2025.
