 Gaussian 16, Revision C.01,

 ----------------------------------------------------------------------
 #t hf aug-cc-pvdz symm=none int=(grid=ultrafine) guess=(read,tcheck) s
 table=(opt,rrhf)
 ----------------------------------------------------------------------
 -----
 title
 -----
 Symbolic Z-matrix:
 Charge =  0 Multiplicity = 1

 SCF Done:  E(RHF) =  -1415.48043483     A.U. after   13 cycles
 Normal termination of Gaussian 16 at Wed Apr  9 00:12:51 2025.
 Gaussian 16:  ES64L-G16RevC.01  3-Jul-2019

 ----------------------------------------------------------------------
 #t hf aug-cc-pvdz iop(5/13=1,5/36=2,99/5=2) pseudo=read geom=check gue
 ss=(read,tcheck) scf=(maxcycle=1)
 ----------------------------------------------------------------------
 -----
 title
 -----
 Structure from the checkpoint file:  "BDE49_nonexpt_2421_mol1.chk"
 Charge =  0 Multiplicity = 1

                         Standard orientation:
 ---------------------------------------------------------------------
 Center     Atomic      Atomic             Coordinates (Angstroms)
 Number     Number       Type             X           Y           Z
 ---------------------------------------------------------------------
      1         14           0       -2.582039   -0.789086   -0.081263
      2         14           0       -1.034961    0.846977    0.618541
      3         16           0        0.661580    1.047970   -0.736011
      4          1           0       -0.536656    0.570373    1.987874
      5          1           0       -1.669545    2.189923    0.606417
      6         16           0        1.593255   -0.816381   -0.426570
      7          1           0       -3.686656   -0.866762    0.907460
      8          1           0       -1.941398   -2.118876   -0.190078
      9          6           0        2.757996   -0.446904    0.930953
     10          1           0        3.308883   -1.375073    1.103129
     11          1           0        2.227739   -0.167346    1.840546
     12          1           0        3.453299    0.337733    0.636094
     13          1           0       -3.143018   -0.404443   -1.397752
 ---------------------------------------------------------------------

 SCF Done:  E(RHF) =  -1415.71833625     A.U. after    2 cycles

 The electronic state is 1-A.
 Alpha  occ. eigenvalues --  -93.97855 -93.96442 -69.55809 -69.53156 -11.27628
 Alpha  occ. eigenvalues --   -8.25709  -8.24542  -6.23520  -6.23318  -6.23080
 Alpha  occ. eigenvalues --   -6.22723  -6.22318  -6.22134  -6.21932  -6.20364
 Alpha  occ. eigenvalues --   -3.98090  -3.98009  -3.97969  -3.95718  -3.95715
 Alpha  occ. eigenvalues --   -3.95710  -1.09958  -0.98396  -0.84966  -0.77327
 Alpha  occ. eigenvalues --   -0.69119  -0.60989  -0.60723  -0.53752  -0.51885
 Alpha  occ. eigenvalues --   -0.50817  -0.48888  -0.48240  -0.45242  -0.43546
 Alpha  occ. eigenvalues --   -0.36776  -0.35837
 Alpha virt. eigenvalues --    0.03461   0.03793   0.04280   0.05066   0.05955
 Alpha virt. eigenvalues --    0.06404   0.06788   0.07173   0.07998   0.08444
 Alpha virt. eigenvalues --    0.09083   0.09759   0.10495   0.10737   0.11012

 Mulliken charges:
               1
     1  Si   0.374410
     2  Si   0.988098
     3  S   -0.626155
     4  H   -0.109784
     5  H   -0.184584
     6  S    0.096353
     7  H   -0.134733
     8  H   -0.109314
     9  C   -0.732744
    10  H    0.198563
    11  H    0.143687
    12  H    0.218092
    13  H   -0.121889
 Sum of Mulliken charges =  -0.00000

 Dipole moment (field-independent basis, Debye):
    X=              0.2653    Y=             -0.1898    Z=              1.9118  Tot=              1.9394

 Test job not archived.
 1\1\GINC-SE453\SP\RHF\Aug-CC-pVDZ\C1H8S2Si2\OHZDE\09-Apr-2025\0\\#t hf
  aug-cc-pvdz iop(5/13=1,5/36=2,99/5=2) pseudo=read geom=check guess=(r
 ead,tcheck) scf=(maxcycle=1)\\title\\0,1\Si,0,-2.582039,-0.789086,-0.0
 81263\Si,0,-1.034961,0.846977,0.618541\S,0,0.66158,1.04797,-0.736011\H
 ,0,-0.536656,0.570373,1.987874\H,0,-1.669545,2.189923,0.606417\S,0,1.5
 93255,-0.816381,-0.42657\H,0,-3.686656,-0.866762,0.90746\H,0,-1.941398
 ,-2.118876,-0.190078\C,0,2.757996,-0.446904,0.930953\H,0,3.308883,-1.3
 75073,1.103129\H,0,2.227739,-0.167346,1.840546\H,0,3.453299,0.337733,0

 Normal termination of Gaussian 16 at Wed Apr  9 00:12:56 2025.
