 Gaussian 16, Revision C.01,

 ----------------------------------------------------------------------
 #t hf aug-cc-pvdz symm=none int=(grid=ultrafine) guess=(read,tcheck) s
 table=(opt,rrhf)
 ----------------------------------------------------------------------
 -----
 title
 -----
 Symbolic Z-matrix:
 Charge =  0 Multiplicity = 1

 SCF Done:  E(RHF) =  -1291.02820124     A.U. after   15 cycles
 Normal termination of Gaussian 16 at Tue Apr  8 23:30:44 2025.
 Gaussian 16:  ES64L-G16RevC.01  3-Jul-2019

 ----------------------------------------------------------------------
 #t hf aug-cc-pvdz iop(5/13=1,5/36=2,99/5=2) pseudo=read geom=check gue
 ss=(read,tcheck) scf=(maxcycle=1)
 ----------------------------------------------------------------------
 -----
 title
 -----
 Structure from the checkpoint file:  "BDE49_nonexpt_1329_mol1.chk"
 Charge =  0 Multiplicity = 1

                         Standard orientation:
 ---------------------------------------------------------------------
 Center     Atomic      Atomic             Coordinates (Angstroms)
 Number     Number       Type             X           Y           Z
 ---------------------------------------------------------------------
      1          6           0        2.373739    0.000007   -0.018700
      2          6           0        1.678935    1.204526   -0.004327
      3          6           0        0.291341    1.186963    0.017688
      4          6           0        1.678947   -1.204519   -0.004328
      5          6           0        0.291352   -1.186969    0.017685
      6          6           0       -0.436027   -0.000006    0.017331
      7          9           0        3.704220    0.000013   -0.038782
      8          9           0        2.347118    2.358763   -0.008247
      9          9           0       -0.346995    2.371664    0.055826
     10          9           0        2.347141   -2.358750   -0.008247
     11          9           0       -0.346968   -2.371680    0.055832
     12         15           0       -2.263683   -0.000006    0.110446
     13          8           0       -2.732053   -0.000015    1.496326
     14          8           0       -2.718301   -1.190904   -0.841079
     15          1           0       -2.652949   -2.053740   -0.414921
     16          8           0       -2.718292    1.190916   -0.841052
     17          1           0       -2.652998    2.053734   -0.414849
 ---------------------------------------------------------------------

 SCF Done:  E(RHF) =  -1291.96313705     A.U. after    2 cycles

 The electronic state is 1-A.
 Alpha  occ. eigenvalues --  -84.46292 -26.53832 -26.53831 -26.53754 -26.53162
 Alpha  occ. eigenvalues --  -26.53162 -20.61352 -20.61346 -20.52481 -11.41015
 Alpha  occ. eigenvalues --  -11.40866 -11.40864 -11.39889 -11.39884 -11.31636
 Alpha  occ. eigenvalues --   -6.91427  -4.45629  -4.44981  -4.44611  -1.68092
 Alpha  occ. eigenvalues --   -1.67415  -1.66920  -1.65746  -1.65212  -1.56130
 Alpha  occ. eigenvalues --   -1.49617  -1.41149  -1.23705  -1.10460  -1.08899
 Alpha  occ. eigenvalues --   -0.96049  -0.93688  -0.88937  -0.85704  -0.83148
 Alpha  occ. eigenvalues --   -0.81196  -0.77169  -0.77022  -0.76692  -0.75458
 Alpha  occ. eigenvalues --   -0.73965  -0.73741  -0.72948  -0.71938  -0.70979
 Alpha  occ. eigenvalues --   -0.70412  -0.69017  -0.68106  -0.67365  -0.64581
 Alpha  occ. eigenvalues --   -0.64197  -0.64174  -0.61002  -0.58489  -0.56629
 Alpha  occ. eigenvalues --   -0.55535  -0.52933  -0.47987  -0.47773  -0.40776
 Alpha  occ. eigenvalues --   -0.39894
 Alpha virt. eigenvalues --    0.03666   0.04498   0.05002   0.05682   0.07392
 Alpha virt. eigenvalues --    0.07420   0.07942   0.08412   0.09970   0.10442
 Alpha virt. eigenvalues --    0.10917   0.11019   0.11026   0.13082   0.13589

 Mulliken charges:
               1
     1  C    1.724548
     2  C    0.601476
     3  C    1.564880
     4  C    0.601460
     5  C    1.564864
     6  C   -1.609821
     7  F   -1.003928
     8  F   -0.964009
     9  F   -1.104715
    10  F   -0.964008
    11  F   -1.104712
    12  P    4.191828
    13  O   -1.464684
    14  O   -1.433542
    15  H    0.416953
    16  O   -1.433544
    17  H    0.416953
 Sum of Mulliken charges =  -0.00000

 Dipole moment (field-independent basis, Debye):
    X=              1.0447    Y=              0.0000    Z=             -1.4875  Tot=              1.8177

 Test job not archived.
 1\1\GINC-SE454\SP\RHF\Aug-CC-pVDZ\C6H2F5O3P1\OHZDE\08-Apr-2025\0\\#t h
 f aug-cc-pvdz iop(5/13=1,5/36=2,99/5=2) pseudo=read geom=check guess=(
 read,tcheck) scf=(maxcycle=1)\\title\\0,1\C,0,-2.373739,-0.000007,-0.0
 187\C,0,-1.678935,-1.204526,-0.004327\C,0,-0.291341,-1.186963,0.017688
 \C,0,-1.678947,1.204519,-0.004328\C,0,-0.291352,1.186969,0.017685\C,0,
 0.436027,0.000006,0.017331\F,0,-3.70422,-0.000013,-0.038782\F,0,-2.347
 118,-2.358763,-0.008247\F,0,0.346995,-2.371664,0.055826\F,0,-2.347141,
 2.35875,-0.008247\F,0,0.346968,2.37168,0.055832\P,0,2.263683,0.000006,

 Normal termination of Gaussian 16 at Tue Apr  8 23:30:58 2025.
