 Gaussian 16, Revision C.01,

 ----------------------------------------------------------------------
 #t hf aug-cc-pvdz symm=none int=(grid=ultrafine) guess=(read,tcheck) s
 table=(opt,rrhf)
 ----------------------------------------------------------------------
 -----
 title
 -----
 Symbolic Z-matrix:
 Charge =  0 Multiplicity = 1

 SCF Done:  E(RHF) =  -237.436470162     A.U. after   14 cycles
 Normal termination of Gaussian 16 at Wed Apr  9 00:42:28 2025.
 Gaussian 16:  ES64L-G16RevC.01  3-Jul-2019

 ----------------------------------------------------------------------
 #t hf aug-cc-pvdz iop(5/13=1,5/36=2,99/5=2) pseudo=read geom=check gue
 ss=(read,tcheck) scf=(maxcycle=1)
 ----------------------------------------------------------------------
 -----
 title
 -----
 Structure from the checkpoint file:  "BDE49_nonexpt_70_mol1.chk"
 Charge =  0 Multiplicity = 1

                         Standard orientation:
 ---------------------------------------------------------------------
 Center     Atomic      Atomic             Coordinates (Angstroms)
 Number     Number       Type             X           Y           Z
 ---------------------------------------------------------------------
      1          5           0        0.783851    1.175879   -0.247832
      2          5           0       -0.783861    1.175882    0.247825
      3          6           0       -1.826346    0.116889   -0.248704
      4          7           0       -1.845662   -1.094984    0.165919
      5          1           0       -2.622388    0.402850   -0.948506
      6          1           0       -1.067924   -1.287805    0.807370
      7          6           0        1.826339    0.116895    0.248710
      8          7           0        1.845674   -1.094976   -0.165919
      9          1           0        2.622373    0.402862    0.948518
     10          1           0        1.067947   -1.287803   -0.807382
     11          1           0       -1.163623    1.969053    1.061816
     12          1           0        1.163618    1.969059   -1.061813
 ---------------------------------------------------------------------

 SCF Done:  E(RHF) =  -237.675770070     A.U. after    2 cycles

 The electronic state is 1-A.
 Alpha  occ. eigenvalues --  -15.51056 -15.51031 -11.28664 -11.28662  -7.61237
 Alpha  occ. eigenvalues --   -7.61218  -1.21692  -1.21225  -0.88094  -0.86244
 Alpha  occ. eigenvalues --   -0.78436  -0.72199  -0.64702  -0.63601  -0.61468
 Alpha  occ. eigenvalues --   -0.57916  -0.53497  -0.47926  -0.45597  -0.44546
 Alpha  occ. eigenvalues --   -0.42185
 Alpha virt. eigenvalues --    0.01762   0.02607   0.02877   0.03353   0.04458
 Alpha virt. eigenvalues --    0.05511   0.06247   0.07021   0.07461   0.07909
 Alpha virt. eigenvalues --    0.08483   0.08689   0.10356   0.10487   0.11622

 Mulliken charges:
               1
     1  B    0.049510
     2  B    0.049502
     3  C   -0.767117
     4  N    0.523853
     5  H   -0.123842
     6  H    0.080066
     7  C   -0.767120
     8  N    0.523854
     9  H   -0.123844
    10  H    0.080065
    11  H    0.237538
    12  H    0.237536
 Sum of Mulliken charges =  -0.00000

 Dipole moment (field-independent basis, Debye):
    X=             -0.0000    Y=              4.5899    Z=             -0.0000  Tot=              4.5899

 Test job not archived.
 1\1\GINC-SE162\SP\RHF\Aug-CC-pVDZ\C2H6B2N2\OHZDE\09-Apr-2025\0\\#t hf
 aug-cc-pvdz iop(5/13=1,5/36=2,99/5=2) pseudo=read geom=check guess=(re
 ad,tcheck) scf=(maxcycle=1)\\title\\0,1\B,0,0.783851,1.175879,-0.24783
 2\B,0,-0.783861,1.175882,0.247825\C,0,-1.826346,0.116889,-0.248704\N,0
 ,-1.845662,-1.094984,0.165919\H,0,-2.622388,0.40285,-0.948506\H,0,-1.0
 67924,-1.287805,0.80737\C,0,1.826339,0.116895,0.24871\N,0,1.845674,-1.
 094976,-0.165919\H,0,2.622373,0.402862,0.948518\H,0,1.067947,-1.287803
 ,-0.807382\H,0,-1.163623,1.969053,1.061816\H,0,1.163618,1.969059,-1.06

 Normal termination of Gaussian 16 at Wed Apr  9 00:42:32 2025.
