 Gaussian 16, Revision C.01,

 ----------------------------------------------------------------------
 #t hf aug-cc-pvdz symm=none int=(grid=ultrafine) guess=(read,tcheck) s
 table=(opt,rrhf)
 ----------------------------------------------------------------------
 -----
 title
 -----
 Symbolic Z-matrix:
 Charge =  0 Multiplicity = 1

 SCF Done:  E(RHF) =  -573.587307542     A.U. after   11 cycles
 Normal termination of Gaussian 16 at Tue Apr  8 22:37:27 2025.
 Gaussian 16:  ES64L-G16RevC.01  3-Jul-2019

 ----------------------------------------------------------------------
 #t hf aug-cc-pvdz iop(5/13=1,5/36=2,99/5=2) pseudo=read geom=check gue
 ss=(read,tcheck) scf=(maxcycle=1)
 ----------------------------------------------------------------------
 -----
 title
 -----
 Structure from the checkpoint file:  "BDE49_expt_119_mol1.chk"
 Charge =  0 Multiplicity = 1

                         Standard orientation:
 ---------------------------------------------------------------------
 Center     Atomic      Atomic             Coordinates (Angstroms)
 Number     Number       Type             X           Y           Z
 ---------------------------------------------------------------------
      1          6           0       -0.603755    0.751692   -0.000000
      2          9           0       -0.234569    1.446937    1.102033
      3          6           0        0.120702   -0.602927    0.000000
      4          9           0       -0.234569    1.446937   -1.102033
      5          1           0       -1.686986    0.612043   -0.000000
      6          9           0       -0.234569   -1.303746    1.088715
      7          9           0        1.447754   -0.453564    0.000000
      8          9           0       -0.234569   -1.303746   -1.088715
 ---------------------------------------------------------------------

 SCF Done:  E(RHF) =  -574.111758547     A.U. after    2 cycles

 The electronic state is 1-A'.
 Alpha  occ. eigenvalues --  -26.53294 -26.53291 -26.53062 -26.51681 -26.51679
 Alpha  occ. eigenvalues --  -11.54953 -11.46918  -1.74339  -1.68271  -1.64228
 Alpha  occ. eigenvalues --   -1.64103  -1.61645  -1.07537  -0.94110  -0.85973
 Alpha  occ. eigenvalues --   -0.84442  -0.84191  -0.79707  -0.77652  -0.71086
 Alpha  occ. eigenvalues --   -0.70693  -0.70587  -0.67945  -0.66061  -0.65989
 Alpha  occ. eigenvalues --   -0.64516  -0.63643  -0.62685  -0.55451
 Alpha virt. eigenvalues --    0.03543   0.07621   0.08796   0.08912   0.11643
 Alpha virt. eigenvalues --    0.11794   0.12027   0.15699   0.20506   0.20988
 Alpha virt. eigenvalues --    0.21806   0.24876   0.25664   0.27914   0.28363

 Mulliken charges:
               1
     1  C    1.220360
     2  F   -0.679372
     3  C    2.162990
     4  F   -0.679372
     5  H    0.086287
     6  F   -0.706484
     7  F   -0.697925
     8  F   -0.706484
 Sum of Mulliken charges =  -0.00000

 Dipole moment (field-independent basis, Debye):
    X=             -1.6373    Y=             -0.0462    Z=             -0.0000  Tot=              1.6379

 Test job not archived.
 1\1\GINC-SE082\SP\RHF\Aug-CC-pVDZ\C2H1F5\OHZDE\08-Apr-2025\0\\#t hf au
 g-cc-pvdz iop(5/13=1,5/36=2,99/5=2) pseudo=read geom=check guess=(read
 ,tcheck) scf=(maxcycle=1)\\title\\0,1\C,0,-0.603755,0.751692,0.\F,0,-0
 .234569,1.446937,1.102033\C,0,0.120702,-0.602927,0.\F,0,-0.234569,1.44
 6937,-1.102033\H,0,-1.686986,0.612043,0.\F,0,-0.234569,-1.303746,1.088
 715\F,0,1.447754,-0.453564,0.\F,0,-0.234569,-1.303746,-1.088715\\Versi
 on=ES64L-G16RevC.01\State=1-A'\HF=-574.1117585\RMSD=5.016e-03\Dipole=-
 0.6441516,-0.0181726,0.\Quadrupole=2.466807,-1.2665694,-1.2002376,-0.7

 Normal termination of Gaussian 16 at Tue Apr  8 22:37:29 2025.
