 Gaussian 16, Revision C.01,

 ----------------------------------------------------------------------
 #t hf aug-cc-pvdz symm=none int=(grid=ultrafine) guess=(read,tcheck) s
 table=(opt,rrhf)
 ----------------------------------------------------------------------
 -----
 title
 -----
 Symbolic Z-matrix:
 Charge =  0 Multiplicity = 1

 SCF Done:  E(RHF) =  -551.795658372     A.U. after   12 cycles

 1\1\GINC-SE116\Stability\RHF\Aug-CC-pVDZ\C1Cl1N1\OHZDE\08-Apr-2025\0\\
 #t hf aug-cc-pvdz symm=none int=(grid=ultrafine) guess=(read,tcheck) s
 table=(opt,rrhf)\\title\\0,1\C,0,0.,0.,-0.660046\N,0,0.,0.,-1.815665\C
 l,0,0.,0.,0.980584\\Version=ES64L-G16RevC.01\HF=-551.7956584\RMSD=1.30
 4e-09\Dipole=0.,0.,1.1996232\Quadrupole=0.9895092,0.9895092,-1.9790184
 ,0.,0.,0.\PG=Unknown\\@
 The archive entry for this job was punched.

 Normal termination of Gaussian 16 at Tue Apr  8 22:46:39 2025.
 Gaussian 16:  ES64L-G16RevC.01  3-Jul-2019

 ----------------------------------------------------------------------
 #t hf aug-cc-pvdz iop(5/13=1,5/36=2,99/5=2) pseudo=read geom=check gue
 ss=(read,tcheck) scf=(maxcycle=1)
 ----------------------------------------------------------------------
 -----
 title
 -----
 Structure from the checkpoint file:  "BDE49_expt_1610_mol1.chk"
 Charge =  0 Multiplicity = 1

                         Standard orientation:
 ---------------------------------------------------------------------
 Center     Atomic      Atomic             Coordinates (Angstroms)
 Number     Number       Type             X           Y           Z
 ---------------------------------------------------------------------
      1          6           0        0.000000    0.000000   -0.660046
      2          7           0        0.000000    0.000000   -1.815665
      3         17           0        0.000000    0.000000    0.980584
 ---------------------------------------------------------------------

 SCF Done:  E(RHF) =  -551.958989536     A.U. after    2 cycles

 The electronic state is 1-SG.
 Alpha  occ. eigenvalues -- -105.66733 -15.54931 -11.35638 -10.71421  -7.88435
 Alpha  occ. eigenvalues --   -7.87904  -7.87904  -1.27496  -1.17387  -0.76327
 Alpha  occ. eigenvalues --   -0.63385  -0.61761  -0.61761  -0.49673  -0.49673
 Alpha virt. eigenvalues --    0.04765   0.08242   0.11042   0.11042   0.12390
 Alpha virt. eigenvalues --    0.13132   0.13132   0.15721   0.15721   0.17489
 Alpha virt. eigenvalues --    0.22405   0.25919   0.25919   0.28431   0.31884

 Mulliken charges:
               1
     1  C   -0.598280
     2  N    0.374806
     3  Cl   0.223474
 Sum of Mulliken charges =   0.00000

 Dipole moment (field-independent basis, Debye):
    X=             -0.0000    Y=              0.0000    Z=              3.6531  Tot=              3.6531

 Test job not archived.
 1\1\GINC-SE116\SP\RHF\Aug-CC-pVDZ\C1Cl1N1\OHZDE\08-Apr-2025\0\\#t hf a
 ug-cc-pvdz iop(5/13=1,5/36=2,99/5=2) pseudo=read geom=check guess=(rea
 d,tcheck) scf=(maxcycle=1)\\title\\0,1\C,0,0.,0.,-0.660046\N,0,0.,0.,-
 1.815665\Cl,0,0.,0.,0.980584\\Version=ES64L-G16RevC.01\State=1-SG\HF=-
 551.9589895\RMSD=1.299e-02\Dipole=0.,0.,1.4372206\Quadrupole=1.1704706
 ,1.1704706,-2.3409412,0.,0.,0.\PG=C*V [C*(N1C1Cl1)]\\@

 Normal termination of Gaussian 16 at Tue Apr  8 22:46:42 2025.
