 Gaussian 16, Revision C.01,

 ----------------------------------------------------------------------
 #t hf aug-cc-pvdz symm=none int=(grid=ultrafine) guess=(read,tcheck) s
 table=(opt,rrhf)
 ----------------------------------------------------------------------
 -----
 title
 -----
 Symbolic Z-matrix:
 Charge =  0 Multiplicity = 1

 SCF Done:  E(RHF) =  -710.272266946     A.U. after   13 cycles
 Normal termination of Gaussian 16 at Tue Apr  8 22:30:29 2025.
 Gaussian 16:  ES64L-G16RevC.01  3-Jul-2019

 ----------------------------------------------------------------------
 #t hf aug-cc-pvdz iop(5/13=1,5/36=2,99/5=2) pseudo=read geom=check gue
 ss=(read,tcheck) scf=(maxcycle=1)
 ----------------------------------------------------------------------
 -----
 title
 -----
 Structure from the checkpoint file:  "BDE49_expt_1023_mol1.chk"
 Charge =  0 Multiplicity = 1

                         Standard orientation:
 ---------------------------------------------------------------------
 Center     Atomic      Atomic             Coordinates (Angstroms)
 Number     Number       Type             X           Y           Z
 ---------------------------------------------------------------------
      1          6           0       -1.124437    0.134411    0.000001
      2          9           0       -1.819694   -0.261481    1.082730
      3          9           0       -1.819705   -0.261523   -1.082706
      4          9           0       -1.074725    1.474015   -0.000026
      5          6           0        0.244237   -0.475363    0.000005
      6          6           0        1.411279    0.160452   -0.000007
      7          9           0        0.230425   -1.819092    0.000025
      8          9           0        1.568266    1.462965   -0.000025
      9          9           0        2.561380   -0.474551    0.000001
 ---------------------------------------------------------------------

 SCF Done:  E(RHF) =  -710.919899798     A.U. after    2 cycles

 The electronic state is 1-A.
 Alpha  occ. eigenvalues --  -26.55679 -26.55493 -26.53409 -26.52716 -26.52712
 Alpha  occ. eigenvalues --  -26.52660 -11.56040 -11.49137 -11.39225  -1.74096
 Alpha  occ. eigenvalues --   -1.73043  -1.66562  -1.65323  -1.63964  -1.63378
 Alpha  occ. eigenvalues --   -1.13922  -1.01127  -0.91475  -0.87431  -0.84731
 Alpha  occ. eigenvalues --   -0.83613  -0.82267  -0.79143  -0.78611  -0.72555
 Alpha  occ. eigenvalues --   -0.70800  -0.70589  -0.70291  -0.69559  -0.69119
 Alpha  occ. eigenvalues --   -0.67904  -0.65584  -0.65434  -0.64113  -0.59940
 Alpha  occ. eigenvalues --   -0.43375
 Alpha virt. eigenvalues --    0.06278   0.07932   0.07992   0.08671   0.10494
 Alpha virt. eigenvalues --    0.10951   0.11248   0.13470   0.13611   0.13931
 Alpha virt. eigenvalues --    0.15412   0.20366   0.20612   0.23000   0.24376

 Mulliken charges:
               1
     1  C    2.428646
     2  F   -0.689499
     3  F   -0.689500
     4  F   -0.747488
     5  C    0.203537
     6  C    1.783103
     7  F   -0.891414
     8  F   -0.712901
     9  F   -0.684484
 Sum of Mulliken charges =  -0.00000

 Dipole moment (field-independent basis, Debye):
    X=              1.0642    Y=              0.3790    Z=             -0.0000  Tot=              1.1297

 Test job not archived.
 1\1\GINC-SE095\SP\RHF\Aug-CC-pVDZ\C3F6\OHZDE\08-Apr-2025\0\\#t hf aug-
 cc-pvdz iop(5/13=1,5/36=2,99/5=2) pseudo=read geom=check guess=(read,t
 check) scf=(maxcycle=1)\\title\\0,1\C,0,-1.124437,0.134411,0.000001\F,
 0,-1.819694,-0.261481,1.08273\F,0,-1.819705,-0.261523,-1.082706\F,0,-1
 .074725,1.474015,-0.000026\C,0,0.244237,-0.475363,0.000005\C,0,1.41127
 9,0.160452,-0.000007\F,0,0.230425,-1.819092,0.000025\F,0,1.568266,1.46
 2965,-0.000025\F,0,2.56138,-0.474551,0.000001\\Version=ES64L-G16RevC.0
 1\State=1-A\HF=-710.9198998\RMSD=1.097e-02\Dipole=0.4186865,0.1491013,

 Normal termination of Gaussian 16 at Tue Apr  8 22:30:33 2025.
