 Gaussian 16, Revision C.01,

 ----------------------------------------------------------------------
 #t hf aug-cc-pvdz symm=none int=(grid=ultrafine) guess=(read,tcheck) s
 table=opt
 ----------------------------------------------------------------------
 -----
 title
 -----
 Symbolic Z-matrix:
 Charge =  0 Multiplicity = 2

 SCF Done:  E(UHF) =  -511.968170517     A.U. after   19 cycles
 Normal termination of Gaussian 16 at Tue Apr  8 23:43:10 2025.
 Gaussian 16:  ES64L-G16RevC.01  3-Jul-2019

 ----------------------------------------------------------------------
 #t hf aug-cc-pvdz iop(5/13=1,5/36=2,99/5=2) pseudo=read geom=check gue
 ss=(read,tcheck) scf=(maxcycle=1)
 ----------------------------------------------------------------------
 -----
 title
 -----
 Structure from the checkpoint file:  "BDE49_nonexpt_1713_mol2.chk"
 Charge =  0 Multiplicity = 2

                         Standard orientation:
 ---------------------------------------------------------------------
 Center     Atomic      Atomic             Coordinates (Angstroms)
 Number     Number       Type             X           Y           Z
 ---------------------------------------------------------------------
      1         16           0        1.100078   -0.125470    0.000003
      2          8           0       -0.369330    0.606272   -0.000005
      3          6           0       -1.530795   -0.250720   -0.000001
      4          1           0       -2.391353    0.417867   -0.000017
      5          1           0       -1.535250   -0.878090    0.893501
      6          1           0       -1.535237   -0.878116   -0.893486
 ---------------------------------------------------------------------

 SCF Done:  E(UHF) =  -512.137771172     A.U. after    2 cycles

 The electronic state is 2-A.
 Alpha  occ. eigenvalues --  -94.01402 -20.60545 -11.30438  -8.28877  -6.27894
 Alpha  occ. eigenvalues --   -6.26344  -6.25910  -1.50231  -1.01660  -0.90133
 Alpha  occ. eigenvalues --   -0.67548  -0.65463  -0.64051  -0.53938  -0.52243
 Alpha  occ. eigenvalues --   -0.41220  -0.38419
 Alpha virt. eigenvalues --    0.03628   0.05456   0.05600   0.07555   0.08589
 Alpha virt. eigenvalues --    0.12670   0.12777   0.14515   0.15468   0.16589
 Alpha virt. eigenvalues --    0.19498   0.21773   0.23065   0.26287   0.28085

  Beta  occ. eigenvalues --  -94.00566 -20.59729 -11.30489  -8.27919  -6.25984
  Beta  occ. eigenvalues --   -6.25411  -6.24078  -1.48121  -0.98539  -0.85274
  Beta  occ. eigenvalues --   -0.64782  -0.64453  -0.62285  -0.51407  -0.47779
  Beta  occ. eigenvalues --   -0.36441
  Beta virt. eigenvalues --    0.01265   0.03647   0.05486   0.06079   0.07923
  Beta virt. eigenvalues --    0.08862   0.12874   0.14532   0.15121   0.15547
  Beta virt. eigenvalues --    0.16673   0.20489   0.22053   0.23720   0.26975

 Mulliken charges and spin densities:
               1          2
     1  S    0.542333   0.928192
     2  O   -1.168159   0.079321
     3  C    0.309250  -0.009710
     4  H    0.037652   0.001090
     5  H    0.139461   0.000554
     6  H    0.139463   0.000554
 Sum of Mulliken charges =  -0.00000   1.00000

 Dipole moment (field-independent basis, Debye):
    X=             -1.5813    Y=             -1.0188    Z=              0.0000  Tot=              1.8811
                          Isotropic Fermi Contact Couplings
        Atom                 a.u.       MegaHertz       Gauss      10(-4) cm-1
     1  S(33)              0.19387      66.58909      23.76064      22.21173
     2  O(17)              0.07780     -47.16102     -16.82823     -15.73122
     3  C(13)             -0.00742      -8.34271      -2.97688      -2.78283
     4  H(1)              -0.00014      -0.63953      -0.22820      -0.21333
     5  H(1)               0.00107       4.77987       1.70558       1.59439
     6  H(1)               0.00107       4.77983       1.70556       1.59438
 --------------------------------------------------------
       Center         ----  Spin Dipole Couplings  ----

 Normal termination of Gaussian 16 at Tue Apr  8 23:43:12 2025.
