 Gaussian 16, Revision C.01,

 ----------------------------------------------------------------------
 #t hf aug-cc-pvdz symm=none int=(grid=ultrafine) guess=(read,tcheck) s
 table=(opt,rrhf)
 ----------------------------------------------------------------------
 -----
 title
 -----
 Symbolic Z-matrix:
 Charge =  0 Multiplicity = 1

 SCF Done:  E(RHF) =  -667.383831312     A.U. after   12 cycles
 Normal termination of Gaussian 16 at Wed Apr  9 00:35:59 2025.
 Gaussian 16:  ES64L-G16RevC.01  3-Jul-2019

 ----------------------------------------------------------------------
 #t hf aug-cc-pvdz iop(5/13=1,5/36=2,99/5=2) pseudo=read geom=check gue
 ss=(read,tcheck) scf=(maxcycle=1)
 ----------------------------------------------------------------------
 -----
 title
 -----
 Structure from the checkpoint file:  "BDE49_nonexpt_480_mol1.chk"
 Charge =  0 Multiplicity = 1

                         Standard orientation:
 ---------------------------------------------------------------------
 Center     Atomic      Atomic             Coordinates (Angstroms)
 Number     Number       Type             X           Y           Z
 ---------------------------------------------------------------------
      1          1           0        3.257722   -0.776806   -0.238701
      2          1           0        2.423371    1.005932    0.477991
      3          5           0        2.324117   -0.091899    0.030543
      4         15           0       -0.340481    0.022606    0.112987
      5          8           0       -0.644740    0.260859    1.521325
      6          8           0       -0.302713    1.285820   -0.854212
      7          1           0       -0.939458    1.962560   -0.595357
      8          8           0       -1.330879   -0.971046   -0.640979
      9          1           0       -1.745898   -1.592532   -0.031325
     10          8           0        1.089694   -0.635477   -0.208649
 ---------------------------------------------------------------------

 SCF Done:  E(RHF) =  -667.749071571     A.U. after    2 cycles

 The electronic state is 1-A.
 Alpha  occ. eigenvalues --  -84.47440 -20.60963 -20.60542 -20.59369 -20.51891
 Alpha  occ. eigenvalues --   -7.65145  -6.92252  -4.46444  -4.45745  -4.45663
 Alpha  occ. eigenvalues --   -1.57513  -1.49327  -1.49157  -1.40387  -0.90069
 Alpha  occ. eigenvalues --   -0.78193  -0.75635  -0.69562  -0.66162  -0.64478
 Alpha  occ. eigenvalues --   -0.61321  -0.59245  -0.58066  -0.55576  -0.54159
 Alpha  occ. eigenvalues --   -0.48951  -0.47338  -0.46479
 Alpha virt. eigenvalues --    0.03336   0.04076   0.04623   0.04935   0.06051
 Alpha virt. eigenvalues --    0.08101   0.10027   0.10847   0.11295   0.12142
 Alpha virt. eigenvalues --    0.12379   0.14031   0.15032   0.18795   0.19291

 Mulliken charges:
               1
     1  H    0.211027
     2  H    0.019861
     3  B    0.203581
     4  P    4.249436
     5  O   -1.338740
     6  O   -1.210666
     7  H    0.348258
     8  O   -1.209384
     9  H    0.330743
    10  O   -1.604115
 Sum of Mulliken charges =  -0.00000

 Dipole moment (field-independent basis, Debye):
    X=             -0.6470    Y=              0.0877    Z=             -1.3104  Tot=              1.4640

 Test job not archived.
 1\1\GINC-SE284\SP\RHF\Aug-CC-pVDZ\B1H4O4P1\OHZDE\09-Apr-2025\0\\#t hf
 aug-cc-pvdz iop(5/13=1,5/36=2,99/5=2) pseudo=read geom=check guess=(re
 ad,tcheck) scf=(maxcycle=1)\\title\\0,1\H,0,3.257722,-0.776806,-0.2387
 01\H,0,2.423371,1.005932,0.477991\B,0,2.324117,-0.091899,0.030543\P,0,
 -0.340481,0.022606,0.112987\O,0,-0.64474,0.260859,1.521325\O,0,-0.3027
 13,1.28582,-0.854212\H,0,-0.939458,1.96256,-0.595357\O,0,-1.330879,-0.
 971046,-0.640979\H,0,-1.745898,-1.592532,-0.031325\O,0,1.089694,-0.635
 477,-0.208649\\Version=ES64L-G16RevC.01\State=1-A\HF=-667.7490716\RMSD

 Normal termination of Gaussian 16 at Wed Apr  9 00:36:04 2025.
