 Gaussian 16, Revision C.01,

 ----------------------------------------------------------------------
 #t hf aug-cc-pvdz symm=none int=(grid=ultrafine) guess=(read,tcheck) s
 table=(opt,rrhf)
 ----------------------------------------------------------------------
 -----
 title
 -----
 Symbolic Z-matrix:
 Charge =  0 Multiplicity = 1

 SCF Done:  E(RHF) =  -1748.77218330     A.U. after   17 cycles
 Normal termination of Gaussian 16 at Tue Apr  8 23:47:14 2025.
 Gaussian 16:  ES64L-G16RevC.01  3-Jul-2019

 ----------------------------------------------------------------------
 #t hf aug-cc-pvdz iop(5/13=1,5/36=2,99/5=2) pseudo=read geom=check gue
 ss=(read,tcheck) scf=(maxcycle=1)
 ----------------------------------------------------------------------
 -----
 title
 -----
 Structure from the checkpoint file:  "BDE49_nonexpt_1628_mol1.chk"
 Charge =  0 Multiplicity = 1

                         Standard orientation:
 ---------------------------------------------------------------------
 Center     Atomic      Atomic             Coordinates (Angstroms)
 Number     Number       Type             X           Y           Z
 ---------------------------------------------------------------------
      1          6           0        1.730416    1.886330   -0.190013
      2         15           0        1.193327    0.466665    0.936890
      3          6           0       -0.563894    0.175824    0.478418
      4         15           0        2.328535   -1.124080   -0.133819
      5          8           0        1.783464   -1.557890   -1.431581
      6          8           0        2.882997    1.960131   -0.581738
      7          6           0       -0.997357   -0.255830   -0.785306
      8          6           0       -2.352399   -0.430664   -1.044243
      9          6           0       -3.281071   -0.174866   -0.037999
     10          6           0       -2.878054    0.241946    1.225701
     11          6           0       -1.519189    0.409878    1.477406
     12          1           0       -1.200466    0.725342    2.464776
     13          1           0       -3.612672    0.425749    1.998817
     14          1           0       -0.272457   -0.486450   -1.555927
     15          1           0       -2.687243   -0.767301   -2.016971
     16          6           0        0.735033    2.983249   -0.472155
     17          1           0        0.001902    2.628377   -1.202190
     18          1           0        1.260915    3.849278   -0.874116
     19          1           0        0.182058    3.254777    0.430212
     20         17           0       -4.988415   -0.391483   -0.368333
     21          8           0        3.793734   -0.522089   -0.074701
     22          1           0        3.781704    0.423299   -0.355127
     23          8           0        2.441623   -2.308472    0.941179
     24          1           0        2.065940   -3.125274    0.589990
 ---------------------------------------------------------------------

 SCF Done:  E(RHF) =  -1749.54147456     A.U. after    2 cycles

 The electronic state is 1-A.
 Alpha  occ. eigenvalues -- -105.58844 -84.43870 -84.31144 -20.59805 -20.58252
 Alpha  occ. eigenvalues --  -20.58108 -20.51213 -11.38530 -11.33528 -11.28436
 Alpha  occ. eigenvalues --  -11.28314 -11.27684 -11.27604 -11.27426 -11.26972
 Alpha  occ. eigenvalues --  -10.63639  -7.80606  -7.80202  -7.80189  -6.89084
 Alpha  occ. eigenvalues --   -6.78391  -4.43193  -4.42589  -4.41593  -4.31277
 Alpha  occ. eigenvalues --   -4.30908  -4.30439  -1.53731  -1.51402  -1.47114
 Alpha  occ. eigenvalues --   -1.39406  -1.20528  -1.12059  -1.05536  -1.05364
 Alpha  occ. eigenvalues --   -1.01613  -0.92987  -0.87750  -0.85084  -0.83264
 Alpha  occ. eigenvalues --   -0.78185  -0.72824  -0.70497  -0.69223  -0.67795
 Alpha  occ. eigenvalues --   -0.67168  -0.66020  -0.65408  -0.64035  -0.63381
 Alpha  occ. eigenvalues --   -0.62858  -0.59104  -0.58449  -0.57219  -0.57210
 Alpha  occ. eigenvalues --   -0.54884  -0.54627  -0.54417  -0.54040  -0.50159
 Alpha  occ. eigenvalues --   -0.48990  -0.47996  -0.46398  -0.45768  -0.41980
 Alpha  occ. eigenvalues --   -0.37957  -0.36454  -0.35527
 Alpha virt. eigenvalues --    0.02649   0.03414   0.03785   0.04133   0.05090
 Alpha virt. eigenvalues --    0.05529   0.05719   0.06385   0.06481   0.07408
 Alpha virt. eigenvalues --    0.07429   0.08712   0.09091   0.09361   0.09514

 Mulliken charges:
               1
     1  C    0.765501
     2  P    0.206170
     3  C    0.344133
     4  P    4.179461
     5  O   -1.696524
     6  O   -1.415133
     7  C    0.523729
     8  C    0.375702
     9  C    0.023701
    10  C    0.564089
    11  C   -0.538585
    12  H   -0.280582
    13  H   -0.193700
    14  H   -0.394628
    15  H   -0.180933
    16  C   -0.601484
    17  H    0.301181
    18  H    0.097028
    19  H    0.296385
    20  Cl  -0.296456
    21  O   -1.662171
    22  H    0.650210
    23  O   -1.416606
    24  H    0.349511
 Sum of Mulliken charges =  -0.00000

 Dipole moment (field-independent basis, Debye):
    X=             -2.6220    Y=              1.9229    Z=              2.1381  Tot=              3.8915

 Test job not archived.
 1\1\GINC-SE226\SP\RHF\Aug-CC-pVDZ\C8H9Cl1O4P2\OHZDE\08-Apr-2025\0\\#t
 hf aug-cc-pvdz iop(5/13=1,5/36=2,99/5=2) pseudo=read geom=check guess=
 (read,tcheck) scf=(maxcycle=1)\\title\\0,1\C,0,1.730416,1.88633,-0.190
 013\P,0,1.193327,0.466665,0.93689\C,0,-0.563894,0.175824,0.478418\P,0,
 2.328535,-1.12408,-0.133819\O,0,1.783464,-1.55789,-1.431581\O,0,2.8829
 97,1.960131,-0.581738\C,0,-0.997357,-0.25583,-0.785306\C,0,-2.352399,-
 0.430664,-1.044243\C,0,-3.281071,-0.174866,-0.037999\C,0,-2.878054,0.2
 41946,1.225701\C,0,-1.519189,0.409878,1.477406\H,0,-1.200466,0.725342,

 Normal termination of Gaussian 16 at Tue Apr  8 23:47:42 2025.
