 Gaussian 16, Revision C.01,

 ----------------------------------------------------------------------
 #t hf aug-cc-pvdz symm=none int=(grid=ultrafine) guess=(read,tcheck) s
 table=(opt,rrhf)
 ----------------------------------------------------------------------
 -----
 title
 -----
 Symbolic Z-matrix:
 Charge =  0 Multiplicity = 1

 SCF Done:  E(RHF) =  -1560.16492757     A.U. after   15 cycles
 Normal termination of Gaussian 16 at Wed Apr  9 00:51:08 2025.
 Gaussian 16:  ES64L-G16RevC.01  3-Jul-2019

 ----------------------------------------------------------------------
 #t hf aug-cc-pvdz iop(5/13=1,5/36=2,99/5=2) pseudo=read geom=check gue
 ss=(read,tcheck) scf=(maxcycle=1)
 ----------------------------------------------------------------------
 -----
 title
 -----
 Structure from the checkpoint file:  "BDE49_nonexpt_937_mol1.chk"
 Charge =  0 Multiplicity = 1

                         Standard orientation:
 ---------------------------------------------------------------------
 Center     Atomic      Atomic             Coordinates (Angstroms)
 Number     Number       Type             X           Y           Z
 ---------------------------------------------------------------------
      1         17           0        1.443315    1.450136    0.040573
      2         16           0       -1.103820   -0.000000   -0.155773
      3          8           0       -1.570647   -1.259716   -0.656920
      4          7           0        0.641737    0.000000   -0.579264
      5          6           0       -1.184609   -0.000000    1.632192
      6          1           0       -2.249205   -0.000000    1.868495
      7          1           0       -0.708258   -0.902736    2.008410
      8         17           0        1.443315   -1.450136    0.040573
      9          8           0       -1.570647    1.259716   -0.656921
     10          1           0       -0.708259    0.902737    2.008410
 ---------------------------------------------------------------------

 SCF Done:  E(RHF) =  -1560.61810562     A.U. after    2 cycles

 The electronic state is 1-A.
 Alpha  occ. eigenvalues -- -105.63469-105.63469 -94.24492 -20.57247 -20.57245
 Alpha  occ. eigenvalues --  -15.67102 -11.31558 -10.67965 -10.67925  -8.49528
 Alpha  occ. eigenvalues --   -7.84904  -7.84899  -7.84404  -7.84399  -7.84379
 Alpha  occ. eigenvalues --   -7.84374  -6.47631  -6.47421  -6.47299  -1.60051
 Alpha  occ. eigenvalues --   -1.47941  -1.29593  -1.09256  -1.09147  -1.00609
 Alpha  occ. eigenvalues --   -0.85519  -0.75533  -0.71917  -0.70282  -0.66530
 Alpha  occ. eigenvalues --   -0.65607  -0.63558  -0.62148  -0.55556  -0.52937
 Alpha  occ. eigenvalues --   -0.52423  -0.51612  -0.50143  -0.49174  -0.47827
 Alpha  occ. eigenvalues --   -0.45235
 Alpha virt. eigenvalues --    0.02170   0.02983   0.04776   0.05355   0.07522
 Alpha virt. eigenvalues --    0.08118   0.10434   0.11590   0.11699   0.11948
 Alpha virt. eigenvalues --    0.13239   0.13919   0.14670   0.15628   0.15710

 Mulliken charges:
               1
     1  Cl   0.080103
     2  S    3.171626
     3  O   -1.466233
     4  N   -0.460142
     5  C   -0.736467
     6  H    0.269621
     7  H    0.263811
     8  Cl   0.080103
     9  O   -1.466232
    10  H    0.263811
 Sum of Mulliken charges =  -0.00000

 Dipole moment (field-independent basis, Debye):
    X=              0.7970    Y=             -0.0000    Z=              4.5789  Tot=              4.6477

 Test job not archived.
 1\1\GINC-SE072\SP\RHF\Aug-CC-pVDZ\C1H3Cl2N1O2S1\OHZDE\09-Apr-2025\0\\#
 t hf aug-cc-pvdz iop(5/13=1,5/36=2,99/5=2) pseudo=read geom=check gues
 s=(read,tcheck) scf=(maxcycle=1)\\title\\0,1\Cl,0,1.443315,1.450136,0.
 040573\S,0,-1.10382,0.,-0.155773\O,0,-1.570647,-1.259716,-0.65692\N,0,
 0.641737,0.,-0.579264\C,0,-1.184609,0.,1.632192\H,0,-2.249205,0.,1.868
 495\H,0,-0.708258,-0.902736,2.00841\Cl,0,1.443315,-1.450136,0.040573\O
 ,0,-1.570647,1.259716,-0.656921\H,0,-0.708259,0.902737,2.00841\\Versio
 n=ES64L-G16RevC.01\State=1-A\HF=-1560.6181056\RMSD=8.027e-03\Dipole=0.

 Normal termination of Gaussian 16 at Wed Apr  9 00:51:12 2025.
