 Gaussian 16, Revision C.01,

 ----------------------------------------------------------------------
 #t hf aug-cc-pvdz symm=none int=(grid=ultrafine) guess=(read,tcheck) s
 table=opt
 ----------------------------------------------------------------------
 -----
 title
 -----
 Symbolic Z-matrix:
 Charge =  0 Multiplicity = 2

 SCF Done:  E(UHF) =  -820.920800758     A.U. after   15 cycles
 Normal termination of Gaussian 16 at Wed Apr  9 00:48:56 2025.
 Gaussian 16:  ES64L-G16RevC.01  3-Jul-2019

 ----------------------------------------------------------------------
 #t hf aug-cc-pvdz iop(5/13=1,5/36=2,99/5=2) pseudo=read geom=check gue
 ss=(read,tcheck) scf=(maxcycle=1)
 ----------------------------------------------------------------------
 -----
 title
 -----
 Structure from the checkpoint file:  "BDE49_nonexpt_889_mol3.chk"
 Charge =  0 Multiplicity = 2

                         Standard orientation:
 ---------------------------------------------------------------------
 Center     Atomic      Atomic             Coordinates (Angstroms)
 Number     Number       Type             X           Y           Z
 ---------------------------------------------------------------------
      1          5           0        0.001414   -0.619037   -0.000001
      2         16           0        1.594875    0.166067   -0.000003
      3         16           0       -1.652380    0.002674    0.000002
      4          1           0       -1.438204    1.343775    0.000004
      5          1           0        2.351206   -0.948444    0.000003
 ---------------------------------------------------------------------

 SCF Done:  E(UHF) =  -821.060910990     A.U. after    2 cycles

 The electronic state is 2-A.
 Alpha  occ. eigenvalues --  -93.97062 -93.96952  -8.25370  -8.25259  -7.67229
 Alpha  occ. eigenvalues --   -6.23202  -6.23100  -6.23030  -6.22897  -6.22863
 Alpha  occ. eigenvalues --   -6.22736  -1.06309  -1.02142  -0.68282  -0.61324
 Alpha  occ. eigenvalues --   -0.53673  -0.48816  -0.45298  -0.38672  -0.34992
 Alpha virt. eigenvalues --    0.03869   0.04335   0.05240   0.05502   0.07886
 Alpha virt. eigenvalues --    0.08288   0.09319   0.11898   0.12107   0.13275
 Alpha virt. eigenvalues --    0.14833   0.16730   0.16859   0.17581   0.18311

  Beta  occ. eigenvalues --  -93.97081 -93.96986  -8.25396  -8.25269  -7.65208
  Beta  occ. eigenvalues --   -6.23237  -6.23168  -6.23033  -6.22965  -6.22959
  Beta  occ. eigenvalues --   -6.22827  -1.05178  -1.01920  -0.64523  -0.59387
  Beta  occ. eigenvalues --   -0.51127  -0.47946  -0.44892  -0.39232
  Beta virt. eigenvalues --    0.03187   0.04426   0.04998   0.05690   0.06781
  Beta virt. eigenvalues --    0.08020   0.11037   0.11126   0.12029   0.12690
  Beta virt. eigenvalues --    0.13271   0.15162   0.16954   0.17140   0.17989

 Mulliken charges and spin densities:
               1          2
     1  B    0.345210   1.070482
     2  S   -0.507326  -0.042478
     3  S   -0.449938  -0.108466
     4  H    0.274386   0.062578
     5  H    0.337669   0.017884
 Sum of Mulliken charges =  -0.00000   1.00000

 Dipole moment (field-independent basis, Debye):
    X=              0.7168    Y=              0.3334    Z=              0.0000  Tot=              0.7905
                          Isotropic Fermi Contact Couplings
        Atom                 a.u.       MegaHertz       Gauss      10(-4) cm-1
     1  B(11)              0.30030     430.74244     153.69961     143.68021
     2  S(33)             -0.03946     -13.55430      -4.83651      -4.52123
     3  S(33)              0.12667      43.50764      15.52461      14.51259
     4  H(1)               0.02317     103.56703      36.95529      34.54624
     5  H(1)               0.01478      66.04760      23.56743      22.03111
 --------------------------------------------------------
       Center         ----  Spin Dipole Couplings  ----
                      3XX-RR        3YY-RR        3ZZ-RR

 Normal termination of Gaussian 16 at Wed Apr  9 00:48:58 2025.
