 Gaussian 16, Revision C.01,

 ----------------------------------------------------------------------
 #t hf aug-cc-pvdz symm=none int=(grid=ultrafine) guess=(read,tcheck) s
 table=(opt,rrhf)
 ----------------------------------------------------------------------
 -----
 title
 -----
 Symbolic Z-matrix:
 Charge =  0 Multiplicity = 1

 SCF Done:  E(RHF) =  -271.984395487     A.U. after   15 cycles
 Normal termination of Gaussian 16 at Wed Apr  9 00:27:21 2025.
 Gaussian 16:  ES64L-G16RevC.01  3-Jul-2019

 ----------------------------------------------------------------------
 #t hf aug-cc-pvdz iop(5/13=1,5/36=2,99/5=2) pseudo=read geom=check gue
 ss=(read,tcheck) scf=(maxcycle=1)
 ----------------------------------------------------------------------
 -----
 title
 -----
 Structure from the checkpoint file:  "BDE49_nonexpt_281_mol1.chk"
 Charge =  0 Multiplicity = 1

                         Standard orientation:
 ---------------------------------------------------------------------
 Center     Atomic      Atomic             Coordinates (Angstroms)
 Number     Number       Type             X           Y           Z
 ---------------------------------------------------------------------
      1          6           0        1.210097    0.275359    0.000000
      2          6           0        1.186991   -1.111800    0.000000
      3          6           0       -0.054149   -1.750374    0.000000
      4          7           0       -1.226897   -1.106331   -0.000000
      5          6           0       -1.181927    0.225948   -0.000000
      6          6           0       -0.000000    0.996464   -0.000000
      7          1           0        2.099990   -1.695538    0.000000
      8          1           0       -0.109780   -2.835969    0.000000
      9          1           0        2.153745    0.811069    0.000000
     10          5           0       -0.048539    2.531392   -0.000000
     11          1           0       -2.144880    0.730544   -0.000000
     12          1           0       -1.096768    3.099375   -0.000000
     13          1           0        0.962591    3.164302   -0.000000
 ---------------------------------------------------------------------

 SCF Done:  E(RHF) =  -272.262874057     A.U. after    2 cycles

 The electronic state is 1-A'.
 Alpha  occ. eigenvalues --  -15.51010 -11.29826 -11.29385 -11.27862 -11.25423
 Alpha  occ. eigenvalues --  -11.22955  -7.60011  -1.26655  -1.09716  -1.04437
 Alpha  occ. eigenvalues --   -0.88760  -0.87544  -0.75364  -0.70458  -0.69668
 Alpha  occ. eigenvalues --   -0.63937  -0.59869  -0.57734  -0.56756  -0.51334
 Alpha  occ. eigenvalues --   -0.48968  -0.45152  -0.41287  -0.36786
 Alpha virt. eigenvalues --    0.02950   0.03074   0.03722   0.04007   0.05132
 Alpha virt. eigenvalues --    0.05573   0.05746   0.07982   0.08086   0.08569
 Alpha virt. eigenvalues --    0.10552   0.11302   0.12640   0.12745   0.13171

 Mulliken charges:
               1
     1  C    0.191439
     2  C    0.735422
     3  C   -0.795314
     4  N    1.003821
     5  C   -0.881062
     6  C    0.745145
     7  H   -0.174323
     8  H   -0.162373
     9  H   -0.216977
    10  B   -0.709491
    11  H   -0.190597
    12  H    0.217007
    13  H    0.237304
 Sum of Mulliken charges =  -0.00000

 Dipole moment (field-independent basis, Debye):
    X=              2.3145    Y=             -0.0084    Z=              0.0000  Tot=              2.3145

 Test job not archived.
 1\1\GINC-SE179\SP\RHF\Aug-CC-pVDZ\C5H6B1N1\OHZDE\09-Apr-2025\0\\#t hf
 aug-cc-pvdz iop(5/13=1,5/36=2,99/5=2) pseudo=read geom=check guess=(re
 ad,tcheck) scf=(maxcycle=1)\\title\\0,1\C,0,1.210097,0.275359,0.\C,0,1
 .186991,-1.1118,0.\C,0,-0.054149,-1.750374,0.\N,0,-1.226897,-1.106331,
 0.\C,0,-1.181927,0.225948,0.\C,0,0.,0.996464,0.\H,0,2.09999,-1.695538,
 0.\H,0,-0.10978,-2.835969,0.\H,0,2.153745,0.811069,0.\B,0,-0.048539,2.
 531392,0.\H,0,-2.14488,0.730544,0.\H,0,-1.096768,3.099375,0.\H,0,0.962
 591,3.164302,0.\\Version=ES64L-G16RevC.01\State=1-A'\HF=-272.2628741\R

 Normal termination of Gaussian 16 at Wed Apr  9 00:27:25 2025.
