 Gaussian 16, Revision C.01,

 ----------------------------------------------------------------------
 #t hf aug-cc-pvdz symm=none int=(grid=ultrafine) guess=(read,tcheck) s
 table=(opt,rrhf)
 ----------------------------------------------------------------------
 -----
 title
 -----
 Symbolic Z-matrix:
 Charge =  0 Multiplicity = 1

 SCF Done:  E(RHF) =  -1092.27846524     A.U. after   14 cycles
 Normal termination of Gaussian 16 at Wed Apr  9 00:10:25 2025.
 Gaussian 16:  ES64L-G16RevC.01  3-Jul-2019

 ----------------------------------------------------------------------
 #t hf aug-cc-pvdz iop(5/13=1,5/36=2,99/5=2) pseudo=read geom=check gue
 ss=(read,tcheck) scf=(maxcycle=1)
 ----------------------------------------------------------------------
 -----
 title
 -----
 Structure from the checkpoint file:  "BDE49_nonexpt_234_mol1.chk"
 Charge =  0 Multiplicity = 1

                         Standard orientation:
 ---------------------------------------------------------------------
 Center     Atomic      Atomic             Coordinates (Angstroms)
 Number     Number       Type             X           Y           Z
 ---------------------------------------------------------------------
      1         17           0       -1.367668   -1.542610    0.024477
      2          5           0       -0.501825    0.000005   -0.018701
      3         17           0       -1.367631    1.542636    0.024461
      4          7           0        0.885841   -0.000025    0.069882
      5          7           0        1.927450   -0.000090   -0.566083
      6          6           0        3.152015    0.000030    0.249406
      7          1           0        3.730980    0.880517   -0.041632
      8          1           0        3.730982   -0.880534   -0.041393
      9          1           0        2.942121    0.000176    1.321564
 ---------------------------------------------------------------------

 SCF Done:  E(RHF) =  -1092.60380372     A.U. after    2 cycles

 The electronic state is 1-A.
 Alpha  occ. eigenvalues -- -105.57611-105.57611 -15.61596 -15.57443 -11.28577
 Alpha  occ. eigenvalues --  -10.62620 -10.62583  -7.79514  -7.79493  -7.79196
 Alpha  occ. eigenvalues --   -7.79192  -7.79174  -7.79164  -7.73201  -1.39968
 Alpha  occ. eigenvalues --   -1.12219  -1.07014  -1.05957  -0.93776  -0.76525
 Alpha  occ. eigenvalues --   -0.70911  -0.67112  -0.65009  -0.59858  -0.58198
 Alpha  occ. eigenvalues --   -0.52964  -0.52910  -0.50047  -0.47975  -0.46478
 Alpha  occ. eigenvalues --   -0.42453
 Alpha virt. eigenvalues --    0.03271   0.04056   0.05233   0.05303   0.05975
 Alpha virt. eigenvalues --    0.06371   0.06562   0.06748   0.10165   0.11828
 Alpha virt. eigenvalues --    0.12411   0.12692   0.14213   0.14664   0.16133

 Mulliken charges:
               1
     1  Cl  -0.331944
     2  B    0.276078
     3  Cl  -0.331926
     4  N    0.509096
     5  N   -0.212038
     6  C   -0.331028
     7  H    0.183098
     8  H    0.183102
     9  H    0.055562
 Sum of Mulliken charges =  -0.00000

 Dipole moment (field-independent basis, Debye):
    X=              2.6444    Y=              0.0002    Z=              0.6829  Tot=              2.7311

 Test job not archived.
 1\1\GINC-SE247\SP\RHF\Aug-CC-pVDZ\C1H3B1Cl2N2\OHZDE\09-Apr-2025\0\\#t
 hf aug-cc-pvdz iop(5/13=1,5/36=2,99/5=2) pseudo=read geom=check guess=
 (read,tcheck) scf=(maxcycle=1)\\title\\0,1\Cl,0,1.367668,1.54261,0.024
 477\B,0,0.501825,-0.000005,-0.018701\Cl,0,1.367631,-1.542636,0.024461\
 N,0,-0.885841,0.000025,0.069882\N,0,-1.92745,0.00009,-0.566083\C,0,-3.
 152015,-0.00003,0.249406\H,0,-3.73098,-0.880517,-0.041632\H,0,-3.73098
 2,0.880534,-0.041393\H,0,-2.942121,-0.000176,1.321564\\Version=ES64L-G
 16RevC.01\State=1-A\HF=-1092.6038037\RMSD=3.570e-02\Dipole=-1.0403694,

 Normal termination of Gaussian 16 at Wed Apr  9 00:10:28 2025.
