 Gaussian 16, Revision C.01,

 ----------------------------------------------------------------------
 #t hf aug-cc-pvdz symm=none int=(grid=ultrafine) guess=(read,tcheck) s
 table=(opt,rrhf)
 ----------------------------------------------------------------------
 -----
 title
 -----
 Symbolic Z-matrix:
 Charge =  0 Multiplicity = 1

 SCF Done:  E(RHF) =  -1428.90024362     A.U. after   16 cycles
 Normal termination of Gaussian 16 at Tue Apr  8 23:55:03 2025.
 Gaussian 16:  ES64L-G16RevC.01  3-Jul-2019

 ----------------------------------------------------------------------
 #t hf aug-cc-pvdz iop(5/13=1,5/36=2,99/5=2) pseudo=read geom=check gue
 ss=(read,tcheck) scf=(maxcycle=1)
 ----------------------------------------------------------------------
 -----
 title
 -----
 Structure from the checkpoint file:  "BDE49_nonexpt_1946_mol1.chk"
 Charge =  0 Multiplicity = 1

                         Standard orientation:
 ---------------------------------------------------------------------
 Center     Atomic      Atomic             Coordinates (Angstroms)
 Number     Number       Type             X           Y           Z
 ---------------------------------------------------------------------
      1          6           0       -1.001383   -0.458308   -1.462719
      2         14           0        0.436088   -1.493011   -0.760283
      3          6           0        1.751185   -0.354767    0.014516
      4          1           0        1.068212   -2.207456   -1.894182
      5          1           0       -0.037582   -2.443364    0.259408
      6         16           0        2.438833   -0.637675    1.476412
      7          8           0        2.036001    0.657244   -0.806894
      8          6           0        3.001547    1.654374   -0.411343
      9          1           0        3.033622    2.357974   -1.239524
     10          1           0        3.975493    1.190614   -0.248852
     11          1           0        2.673772    2.144352    0.506171
     12          6           0       -1.836680    0.182102   -0.400254
     13         16           0       -1.637331    1.718000    0.157243
     14          8           0       -2.741674   -0.688786    0.055827
     15          6           0       -3.626660   -0.302003    1.121420
     16          1           0       -4.252530   -1.174465    1.296009
     17          1           0       -4.227611    0.557118    0.820529
     18          1           0       -3.054607   -0.046044    2.014094
     19          1           0       -1.619451   -1.140362   -2.055788
     20          1           0       -0.571269    0.302543   -2.113546
 ---------------------------------------------------------------------

 SCF Done:  E(RHF) =  -1429.39715127     A.U. after    2 cycles

 The electronic state is 1-A.
 Alpha  occ. eigenvalues --  -93.92410 -93.91544 -69.55803 -20.61329 -20.61212
 Alpha  occ. eigenvalues --  -11.39216 -11.36754 -11.30585 -11.30331 -11.25553
 Alpha  occ. eigenvalues --   -8.20688  -8.19853  -6.22818  -6.18519  -6.18290
 Alpha  occ. eigenvalues --   -6.18111  -6.17709  -6.17438  -6.17288  -3.98189
 Alpha  occ. eigenvalues --   -3.98163  -3.98148  -1.54034  -1.53419  -1.10085
 Alpha  occ. eigenvalues --   -1.06412  -0.99832  -0.98286  -0.95917  -0.80909
 Alpha  occ. eigenvalues --   -0.78046  -0.74852  -0.69094  -0.67800  -0.67082
 Alpha  occ. eigenvalues --   -0.66591  -0.64916  -0.61615  -0.58366  -0.57576
 Alpha  occ. eigenvalues --   -0.55554  -0.54686  -0.52825  -0.50268  -0.49816
 Alpha  occ. eigenvalues --   -0.48015  -0.47225  -0.38105  -0.37416  -0.35250
 Alpha  occ. eigenvalues --   -0.34838
 Alpha virt. eigenvalues --    0.03006   0.03532   0.04042   0.04420   0.05408
 Alpha virt. eigenvalues --    0.05669   0.05702   0.06255   0.06555   0.07038
 Alpha virt. eigenvalues --    0.07884   0.07925   0.08867   0.09460   0.09653

 Mulliken charges:
               1
     1  C   -0.958392
     2  Si   1.219936
     3  C    0.157659
     4  H   -0.167443
     5  H   -0.089193
     6  S    0.031346
     7  O   -1.265343
     8  C    0.276919
     9  H    0.000225
    10  H    0.166083
    11  H    0.182244
    12  C    1.038146
    13  S   -0.043369
    14  O   -1.478143
    15  C    0.272634
    16  H    0.002817
    17  H    0.190270
    18  H    0.186235
    19  H    0.085933
    20  H    0.191435
 Sum of Mulliken charges =  -0.00000

 Dipole moment (field-independent basis, Debye):
    X=             -1.2584    Y=             -0.7795    Z=             -2.1449  Tot=              2.6061

 Test job not archived.
 1\1\GINC-SE368\SP\RHF\Aug-CC-pVDZ\C5H10O2S2Si1\OHZDE\08-Apr-2025\0\\#t
  hf aug-cc-pvdz iop(5/13=1,5/36=2,99/5=2) pseudo=read geom=check guess
 =(read,tcheck) scf=(maxcycle=1)\\title\\0,1\C,0,1.001383,0.458308,-1.4
 62719\Si,0,-0.436088,1.493011,-0.760283\C,0,-1.751185,0.354767,0.01451
 6\H,0,-1.068212,2.207456,-1.894182\H,0,0.037582,2.443364,0.259408\S,0,
 -2.438833,0.637675,1.476412\O,0,-2.036001,-0.657244,-0.806894\C,0,-3.0
 01547,-1.654374,-0.411343\H,0,-3.033622,-2.357974,-1.239524\H,0,-3.975
 493,-1.190615,-0.248852\H,0,-2.673772,-2.144352,0.506171\C,0,1.83668,-

 Normal termination of Gaussian 16 at Tue Apr  8 23:55:13 2025.
