 Gaussian 16, Revision C.01,

 ----------------------------------------------------------------------
 #t hf aug-cc-pvdz symm=none int=(grid=ultrafine) guess=(read,tcheck) s
 table=(opt,rrhf)
 ----------------------------------------------------------------------
 -----
 title
 -----
 Symbolic Z-matrix:
 Charge =  0 Multiplicity = 1

 SCF Done:  E(RHF) =  -1814.47291909     A.U. after   14 cycles
 Normal termination of Gaussian 16 at Wed Apr  9 00:15:57 2025.
 Gaussian 16:  ES64L-G16RevC.01  3-Jul-2019

 ----------------------------------------------------------------------
 #t hf aug-cc-pvdz iop(5/13=1,5/36=2,99/5=2) pseudo=read geom=check gue
 ss=(read,tcheck) scf=(maxcycle=1)
 ----------------------------------------------------------------------
 -----
 title
 -----
 Structure from the checkpoint file:  "BDE49_nonexpt_2530_mol1.chk"
 Charge =  0 Multiplicity = 1

                         Standard orientation:
 ---------------------------------------------------------------------
 Center     Atomic      Atomic             Coordinates (Angstroms)
 Number     Number       Type             X           Y           Z
 ---------------------------------------------------------------------
      1         17           0       -2.399740    0.014077    0.206374
      2         16           0       -0.676200   -0.959653   -0.407858
      3          6           0        0.584749    0.048655    0.415412
      4         17           0        2.094347   -0.870626    0.110497
      5         17           0        0.710401    1.737158   -0.167099
      6          1           0        0.425566    0.092161    1.487151
 ---------------------------------------------------------------------

 SCF Done:  E(RHF) =  -1814.79901354     A.U. after    2 cycles

 The electronic state is 1-A.
 Alpha  occ. eigenvalues -- -105.60797-105.60431-105.59658 -94.04341 -11.42757
 Alpha  occ. eigenvalues --  -10.65589 -10.65142 -10.64470  -8.32048  -7.82535
 Alpha  occ. eigenvalues --   -7.82120  -7.82099  -7.82082  -7.81630  -7.81588
 Alpha  occ. eigenvalues --   -7.81417  -7.80994  -7.80986  -6.29824  -6.29590
 Alpha  occ. eigenvalues --   -6.29274  -1.21311  -1.12376  -1.07344  -0.98069
 Alpha  occ. eigenvalues --   -0.85600  -0.68710  -0.63895  -0.62792  -0.54886
 Alpha  occ. eigenvalues --   -0.53796  -0.50589  -0.49917  -0.49300  -0.47335
 Alpha  occ. eigenvalues --   -0.46139  -0.39865
 Alpha virt. eigenvalues --    0.03779   0.04264   0.06547   0.07784   0.08474
 Alpha virt. eigenvalues --    0.10551   0.11042   0.12518   0.13442   0.13643
 Alpha virt. eigenvalues --    0.14347   0.16078   0.16306   0.17113   0.17575

 Mulliken charges:
               1
     1  Cl  -0.251278
     2  S    0.681904
     3  C   -1.074002
     4  Cl   0.135086
     5  Cl   0.092671
     6  H    0.415619
 Sum of Mulliken charges =  -0.00000

 Dipole moment (field-independent basis, Debye):
    X=              0.2606    Y=             -0.3835    Z=              0.9461  Tot=              1.0536

 Test job not archived.
 1\1\GINC-SE166\SP\RHF\Aug-CC-pVDZ\C1H1Cl3S1\OHZDE\09-Apr-2025\0\\#t hf
  aug-cc-pvdz iop(5/13=1,5/36=2,99/5=2) pseudo=read geom=check guess=(r
 ead,tcheck) scf=(maxcycle=1)\\title\\0,1\Cl,0,-2.39974,0.014077,0.2063
 74\S,0,-0.6762,-0.959653,-0.407858\C,0,0.584749,0.048655,0.415412\Cl,0
 ,2.094347,-0.870626,0.110497\Cl,0,0.710401,1.737158,-0.167099\H,0,0.42
 5566,0.092161,1.487151\\Version=ES64L-G16RevC.01\State=1-A\HF=-1814.79
 90135\RMSD=3.610e-03\Dipole=0.102534,-0.1508661,0.3722395\Quadrupole=-
 0.6093206,-0.2489722,0.8582928,-0.5926333,0.2574324,0.7634057\PG=C01 [

 Normal termination of Gaussian 16 at Wed Apr  9 00:16:00 2025.
