 Gaussian 16, Revision C.01,

 ----------------------------------------------------------------------
 #t hf aug-cc-pvdz symm=none int=(grid=ultrafine) guess=(read,tcheck) s
 table=(opt,rrhf)
 ----------------------------------------------------------------------
 -----
 title
 -----
 Symbolic Z-matrix:
 Charge =  0 Multiplicity = 1

 SCF Done:  E(RHF) =  -867.387129007     A.U. after   11 cycles
 Normal termination of Gaussian 16 at Tue Apr  8 22:58:53 2025.
 Gaussian 16:  ES64L-G16RevC.01  3-Jul-2019

 ----------------------------------------------------------------------
 #t hf aug-cc-pvdz iop(5/13=1,5/36=2,99/5=2) pseudo=read geom=check gue
 ss=(read,tcheck) scf=(maxcycle=1)
 ----------------------------------------------------------------------
 -----
 title
 -----
 Structure from the checkpoint file:  "BDE49_expt_1944_mol1.chk"
 Charge =  0 Multiplicity = 1

                         Standard orientation:
 ---------------------------------------------------------------------
 Center     Atomic      Atomic             Coordinates (Angstroms)
 Number     Number       Type             X           Y           Z
 ---------------------------------------------------------------------
      1         14           0        0.342989    0.000027   -0.000019
      2         17           0       -1.767770   -0.000059    0.000043
      3          6           0        0.895653   -0.458480    1.727290
      4          1           0        0.527347    0.261158    2.462906
      5          1           0        1.989141   -0.474125    1.785877
      6          1           0        0.527200   -1.448135    2.009187
      7          6           0        0.895462    1.725180   -0.466596
      8          1           0        1.988936    1.783869   -0.482403
      9          1           0        0.526942    2.464109    0.249524
     10          1           0        0.527060    2.002336   -1.457615
     11          6           0        0.895585   -1.266626   -1.260742
     12          1           0        0.527346   -2.263504   -1.005219
     13          1           0        1.989066   -1.309512   -1.303692
     14          1           0        0.527004   -1.016015   -2.258740
 ---------------------------------------------------------------------

 SCF Done:  E(RHF) =  -867.635549858     A.U. after    2 cycles

 The electronic state is 1-A.
 Alpha  occ. eigenvalues -- -105.53791 -69.55937 -11.22227 -11.22222 -11.22222
 Alpha  occ. eigenvalues --  -10.58768  -7.75647  -7.75373  -7.75373  -6.22603
 Alpha  occ. eigenvalues --   -3.98019  -3.97846  -3.97846  -1.04181  -0.97516
 Alpha  occ. eigenvalues --   -0.94218  -0.94217  -0.66498  -0.59214  -0.58268
 Alpha  occ. eigenvalues --   -0.58268  -0.56312  -0.56311  -0.54912  -0.49465
 Alpha  occ. eigenvalues --   -0.48366  -0.48365  -0.43360  -0.43360
 Alpha virt. eigenvalues --    0.02945   0.04183   0.04183   0.04585   0.06507
 Alpha virt. eigenvalues --    0.06507   0.07245   0.07245   0.08104   0.09278
 Alpha virt. eigenvalues --    0.10739   0.10739   0.11432   0.14164   0.16069

 Mulliken charges:
               1
     1  Si   2.368167
     2  Cl  -0.684368
     3  C   -0.576163
     4  H   -0.019008
     5  H    0.052894
     6  H   -0.019003
     7  C   -0.576167
     8  H    0.052901
     9  H   -0.018983
    10  H   -0.018998
    11  C   -0.576172
    12  H   -0.019009
    13  H    0.052891
    14  H   -0.018982
 Sum of Mulliken charges =   0.00000

 Dipole moment (field-independent basis, Debye):
    X=              2.5858    Y=              0.0002    Z=             -0.0002  Tot=              2.5858

 Test job not archived.
 1\1\GINC-SE097\SP\RHF\Aug-CC-pVDZ\C3H9Cl1Si1\OHZDE\08-Apr-2025\0\\#t h
 f aug-cc-pvdz iop(5/13=1,5/36=2,99/5=2) pseudo=read geom=check guess=(
 read,tcheck) scf=(maxcycle=1)\\title\\0,1\Si,0,0.342989,0.000027,-0.00
 0019\Cl,0,-1.76777,-0.00006,0.000042\C,0,0.895653,-0.461625,1.726452\H
 ,0,0.527346,0.256671,2.463378\H,0,1.989141,-0.477376,1.785011\H,0,0.52
 72,-1.451792,2.006546\C,0,0.895461,1.726028,-0.463453\H,0,1.988935,1.7
 84746,-0.479152\H,0,0.526941,2.463651,0.254012\H,0,0.527059,2.004988,-
 1.453965\C,0,0.895586,-1.264327,-1.263047\H,0,0.527347,-2.261669,-1.00

 Normal termination of Gaussian 16 at Tue Apr  8 22:58:58 2025.
