 Gaussian 16, Revision C.01,

 ----------------------------------------------------------------------
 #t hf aug-cc-pvdz symm=none int=(grid=ultrafine) guess=(read,tcheck) s
 table=(opt,rrhf)
 ----------------------------------------------------------------------
 -----
 title
 -----
 Symbolic Z-matrix:
 Charge =  0 Multiplicity = 1

 SCF Done:  E(RHF) =  -1248.19863899     A.U. after   12 cycles
 Normal termination of Gaussian 16 at Tue Apr  8 23:45:14 2025.
 Gaussian 16:  ES64L-G16RevC.01  3-Jul-2019

 ----------------------------------------------------------------------
 #t hf aug-cc-pvdz iop(5/13=1,5/36=2,99/5=2) pseudo=read geom=check gue
 ss=(read,tcheck) scf=(maxcycle=1)
 ----------------------------------------------------------------------
 -----
 title
 -----
 Structure from the checkpoint file:  "BDE49_nonexpt_1758_mol1.chk"
 Charge =  0 Multiplicity = 1

                         Standard orientation:
 ---------------------------------------------------------------------
 Center     Atomic      Atomic             Coordinates (Angstroms)
 Number     Number       Type             X           Y           Z
 ---------------------------------------------------------------------
      1         14           0       -0.480161    0.619501    0.000000
      2          6           0        0.795647   -0.762839    0.000000
      3         17           0       -2.372942   -0.257475    0.000000
      4          1           0        0.733463   -1.391358   -0.887417
      5          1           0        0.733463   -1.391359    0.887415
      6         17           0        2.443041    0.011534    0.000000
      7          1           0       -0.355116    1.433870   -1.219914
      8          1           0       -0.355116    1.433868    1.219916
 ---------------------------------------------------------------------

 SCF Done:  E(RHF) =  -1248.43004736     A.U. after    2 cycles

 The electronic state is 1-A.
 Alpha  occ. eigenvalues -- -105.57429-105.56647 -69.59344 -11.30894 -10.62169
 Alpha  occ. eigenvalues --  -10.61653  -7.79109  -7.78739  -7.78725  -7.78535
 Alpha  occ. eigenvalues --   -7.78233  -7.78224  -6.26002  -4.01445  -4.01282
 Alpha  occ. eigenvalues --   -4.01257  -1.10863  -1.06066  -0.91717  -0.74451
 Alpha  occ. eigenvalues --   -0.64738  -0.59139  -0.55449  -0.54061  -0.53561
 Alpha  occ. eigenvalues --   -0.48274  -0.46568  -0.46031  -0.43836
 Alpha virt. eigenvalues --    0.03649   0.04479   0.04597   0.05211   0.07249
 Alpha virt. eigenvalues --    0.07765   0.09403   0.10077   0.11676   0.13539
 Alpha virt. eigenvalues --    0.14400   0.14887   0.15896   0.16150   0.16563

 Mulliken charges:
               1
     1  Si   1.431823
     2  C   -0.777078
     3  Cl  -0.563008
     4  H    0.187952
     5  H    0.187949
     6  Cl  -0.158011
     7  H   -0.154813
     8  H   -0.154813
 Sum of Mulliken charges =   0.00000

 Dipole moment (field-independent basis, Debye):
    X=             -0.0420    Y=             -0.3911    Z=             -0.0000  Tot=              0.3933

 Test job not archived.
 1\1\GINC-SE454\SP\RHF\Aug-CC-pVDZ\C1H4Cl2Si1\OHZDE\08-Apr-2025\0\\#t h
 f aug-cc-pvdz iop(5/13=1,5/36=2,99/5=2) pseudo=read geom=check guess=(
 read,tcheck) scf=(maxcycle=1)\\title\\0,1\Si,0,-0.480161,0.619501,0.\C
 ,0,0.795647,-0.762839,0.\Cl,0,-2.372942,-0.257475,0.\H,0,0.733463,-1.3
 91358,-0.887417\H,0,0.733463,-1.391359,0.887415\Cl,0,2.443041,0.011534
 ,0.\H,0,-0.355116,1.43387,-1.219914\H,0,-0.355116,1.433868,1.219916\\V
 ersion=ES64L-G16RevC.01\State=1-A\HF=-1248.4300474\RMSD=4.271e-03\Dipo
 le=-0.016517,-0.1538709,-0.0000011\Quadrupole=-4.8524188,2.9863907,1.8

 Normal termination of Gaussian 16 at Tue Apr  8 23:45:16 2025.
