 Gaussian 16, Revision C.01,

 ----------------------------------------------------------------------
 #t hf aug-cc-pvdz symm=none int=(grid=ultrafine) guess=(read,tcheck) s
 table=(opt,rrhf)
 ----------------------------------------------------------------------
 -----
 title
 -----
 Symbolic Z-matrix:
 Charge =  0 Multiplicity = 1

 SCF Done:  E(RHF) =  -661.043267696     A.U. after   13 cycles
 Normal termination of Gaussian 16 at Wed Apr  9 00:02:29 2025.
 Gaussian 16:  ES64L-G16RevC.01  3-Jul-2019

 ----------------------------------------------------------------------
 #t hf aug-cc-pvdz iop(5/13=1,5/36=2,99/5=2) pseudo=read geom=check gue
 ss=(read,tcheck) scf=(maxcycle=1)
 ----------------------------------------------------------------------
 -----
 title
 -----
 Structure from the checkpoint file:  "BDE49_nonexpt_2154_mol1.chk"
 Charge =  0 Multiplicity = 1

                         Standard orientation:
 ---------------------------------------------------------------------
 Center     Atomic      Atomic             Coordinates (Angstroms)
 Number     Number       Type             X           Y           Z
 ---------------------------------------------------------------------
      1         14           0        0.610780   -0.000000    0.045245
      2          7           0       -1.074702    0.000000   -0.703848
      3          9           0       -1.730017   -1.111958   -0.102637
      4          9           0       -1.730017    1.111958   -0.102637
      5          6           0        1.391634    1.555860   -0.629442
      6          1           0        1.354991    1.574409   -1.721850
      7          1           0        2.441621    1.614397   -0.326137
      8          1           0        0.881802    2.447322   -0.256805
      9          6           0        1.391634   -1.555860   -0.629442
     10          1           0        1.354991   -1.574408   -1.721850
     11          1           0        0.881802   -2.447322   -0.256805
     12          1           0        2.441621   -1.614397   -0.326136
     13          6           0        0.460055   -0.000000    1.904820
     14          1           0       -0.077871    0.884730    2.252981
     15          1           0        1.451283   -0.000000    2.368966
     16          1           0       -0.077870   -0.884730    2.252981
 ---------------------------------------------------------------------

 SCF Done:  E(RHF) =  -661.445045871     A.U. after    2 cycles

 The electronic state is 1-A.
 Alpha  occ. eigenvalues --  -69.55582 -26.48520 -26.48516 -15.66520 -11.22923
 Alpha  occ. eigenvalues --  -11.22921 -11.22674  -6.22534  -3.97911  -3.97784
 Alpha  occ. eigenvalues --   -3.97768  -1.63124  -1.55466  -1.08099  -0.98855
 Alpha  occ. eigenvalues --   -0.95123  -0.94976  -0.77242  -0.73132  -0.72263
 Alpha  occ. eigenvalues --   -0.64222  -0.63979  -0.60119  -0.59482  -0.58530
 Alpha  occ. eigenvalues --   -0.58279  -0.56614  -0.56598  -0.55553  -0.55513
 Alpha  occ. eigenvalues --   -0.47837  -0.46881  -0.46287
 Alpha virt. eigenvalues --    0.02706   0.04143   0.04180   0.04601   0.06201
 Alpha virt. eigenvalues --    0.06267   0.07155   0.07220   0.08763   0.09394
 Alpha virt. eigenvalues --    0.10620   0.10625   0.11013   0.14164   0.15338

 Mulliken charges:
               1
     1  Si   2.223282
     2  N    1.254260
     3  F   -0.696764
     4  F   -0.696764
     5  C   -0.659400
     6  H   -0.012512
     7  H   -0.016035
     8  H   -0.001312
     9  C   -0.659400
    10  H   -0.012512
    11  H   -0.001312
    12  H   -0.016034
    13  C   -0.638918
    14  H   -0.021975
    15  H   -0.022626
    16  H   -0.021977
 Sum of Mulliken charges =  -0.00000

 Dipole moment (field-independent basis, Debye):
    X=              3.4463    Y=              0.0000    Z=              0.9719  Tot=              3.5808

 Test job not archived.
 1\1\GINC-SE345\SP\RHF\Aug-CC-pVDZ\C3H9F2N1Si1\OHZDE\09-Apr-2025\0\\#t
 hf aug-cc-pvdz iop(5/13=1,5/36=2,99/5=2) pseudo=read geom=check guess=
 (read,tcheck) scf=(maxcycle=1)\\title\\0,1\Si,0,0.61078,0.,0.045245\N,
 0,-1.074702,0.,-0.703848\F,0,-1.730017,-1.111958,-0.102637\F,0,-1.7300
 17,1.111958,-0.102637\C,0,1.391634,1.55586,-0.629442\H,0,1.354991,1.57
 4409,-1.72185\H,0,2.441621,1.614397,-0.326137\H,0,0.881802,2.447322,-0
 .256805\C,0,1.391634,-1.55586,-0.629442\H,0,1.354991,-1.574408,-1.7218
 5\H,0,0.881802,-2.447322,-0.256805\H,0,2.441621,-1.614397,-0.326136\C,

 Normal termination of Gaussian 16 at Wed Apr  9 00:02:35 2025.
