 Gaussian 16, Revision C.01,

 ----------------------------------------------------------------------
 #t hf aug-cc-pvdz symm=none int=(grid=ultrafine) guess=(read,tcheck) s
 table=opt
 ----------------------------------------------------------------------
 -----
 title
 -----
 Symbolic Z-matrix:
 Charge =  0 Multiplicity = 2

 SCF Done:  E(UHF) =  -607.580294516     A.U. after   20 cycles
 Normal termination of Gaussian 16 at Tue Apr  8 23:33:20 2025.
 Gaussian 16:  ES64L-G16RevC.01  3-Jul-2019

 ----------------------------------------------------------------------
 #t hf aug-cc-pvdz iop(5/13=1,5/36=2,99/5=2) pseudo=read geom=check gue
 ss=(read,tcheck) scf=(maxcycle=1)
 ----------------------------------------------------------------------
 -----
 title
 -----
 Structure from the checkpoint file:  "BDE49_nonexpt_1453_mol2.chk"
 Charge =  0 Multiplicity = 2

                         Standard orientation:
 ---------------------------------------------------------------------
 Center     Atomic      Atomic             Coordinates (Angstroms)
 Number     Number       Type             X           Y           Z
 ---------------------------------------------------------------------
      1          6           0        0.648910    0.413118   -0.000120
      2         15           0        2.130956   -0.730957    0.000035
      3          8           0       -0.474198   -0.337684   -0.000070
      4          8           0        0.662468    1.617661    0.000025
      5          6           0       -1.733348    0.387898   -0.000002
      6          6           0       -2.847582   -0.637038    0.000039
      7          1           0       -1.762046    1.031281   -0.882487
      8          1           0       -1.761963    1.031260    0.882501
      9          1           0       -2.791799   -1.273036   -0.885831
     10          1           0       -3.816215   -0.130472    0.000091
     11          1           0       -2.791716   -1.273058    0.885888
     12          1           0        3.045367    0.354686    0.000170
 ---------------------------------------------------------------------

 SCF Done:  E(UHF) =  -607.886807708     A.U. after    2 cycles

 The electronic state is 2-A.
 Alpha  occ. eigenvalues --  -84.30600 -20.59519 -20.55213 -11.39559 -11.30417
 Alpha  occ. eigenvalues --  -11.24070  -6.77800  -4.30125  -4.29893  -4.29333
 Alpha  occ. eigenvalues --   -1.54817  -1.46380  -1.05349  -0.93790  -0.85859
 Alpha  occ. eigenvalues --   -0.78668  -0.69334  -0.68937  -0.64858  -0.59971
 Alpha  occ. eigenvalues --   -0.56816  -0.54997  -0.52841  -0.51636  -0.47517
 Alpha  occ. eigenvalues --   -0.46829  -0.38950  -0.35765
 Alpha virt. eigenvalues --    0.03685   0.04641   0.04710   0.04778   0.06257
 Alpha virt. eigenvalues --    0.07711   0.07967   0.09881   0.10052   0.11891
 Alpha virt. eigenvalues --    0.12189   0.13530   0.14917   0.15500   0.16122

  Beta  occ. eigenvalues --  -84.29924 -20.59524 -20.54654 -11.39919 -11.30424
  Beta  occ. eigenvalues --  -11.24070  -6.76944  -4.29366  -4.28915  -4.26825
  Beta  occ. eigenvalues --   -1.54583  -1.45469  -1.05264  -0.91309  -0.83715
  Beta  occ. eigenvalues --   -0.77770  -0.68869  -0.68805  -0.63884  -0.59150
  Beta  occ. eigenvalues --   -0.56795  -0.54748  -0.51916  -0.51545  -0.46179
  Beta  occ. eigenvalues --   -0.45066  -0.37639
  Beta virt. eigenvalues --    0.01466   0.03692   0.04706   0.04824   0.04897
  Beta virt. eigenvalues --    0.06311   0.07747   0.08086   0.10128   0.11648
  Beta virt. eigenvalues --    0.12009   0.12206   0.14313   0.15329   0.15691

 Mulliken charges and spin densities:
               1          2
     1  C    0.800389  -0.192897
     2  P    0.292381   1.228921
     3  O   -1.006335  -0.010419
     4  O   -1.023261   0.140333
     5  C    0.481691   0.006051
     6  C   -0.520697  -0.001269
     7  H    0.120493  -0.000063
     8  H    0.120493  -0.000064
     9  H    0.169176   0.000428
    10  H    0.176630  -0.000102
    11  H    0.169173   0.000428
    12  H    0.219866  -0.171347
 Sum of Mulliken charges =  -0.00000   1.00000

 Dipole moment (field-independent basis, Debye):
    X=             -1.0771    Y=             -1.2945    Z=             -0.0000  Tot=              1.6840
                          Isotropic Fermi Contact Couplings
        Atom                 a.u.       MegaHertz       Gauss      10(-4) cm-1
     1  C(13)             -0.05574     -62.66259     -22.35957     -20.90199
     2  P(31)              0.18814     340.74486     121.58624     113.66025
     3  O(17)             -0.00846       5.12810       1.82983       1.71055
     4  O(17)              0.04188     -25.38485      -9.05794      -8.46747
     5  C(13)             -0.00121      -1.35922      -0.48500      -0.45339
     6  C(13)              0.00013       0.14892       0.05314       0.04968
     7  H(1)               0.00030       1.34647       0.48046       0.44914
     8  H(1)               0.00030       1.34588       0.48024       0.44894

 Normal termination of Gaussian 16 at Tue Apr  8 23:33:25 2025.
