 Gaussian 16, Revision C.01,

 ----------------------------------------------------------------------
 #t hf aug-cc-pvdz symm=none int=(grid=ultrafine) guess=(read,tcheck) s
 table=(opt,rrhf)
 ----------------------------------------------------------------------
 -----
 title
 -----
 Symbolic Z-matrix:
 Charge =  0 Multiplicity = 1

 SCF Done:  E(RHF) =  -764.523026055     A.U. after   15 cycles
 Normal termination of Gaussian 16 at Tue Apr  8 23:11:12 2025.
 Gaussian 16:  ES64L-G16RevC.01  3-Jul-2019

 ----------------------------------------------------------------------
 #t hf aug-cc-pvdz iop(5/13=1,5/36=2,99/5=2) pseudo=read geom=check gue
 ss=(read,tcheck) scf=(maxcycle=1)
 ----------------------------------------------------------------------
 -----
 title
 -----
 Structure from the checkpoint file:  "BDE49_expt_724_mol1.chk"
 Charge =  0 Multiplicity = 1

                         Standard orientation:
 ---------------------------------------------------------------------
 Center     Atomic      Atomic             Coordinates (Angstroms)
 Number     Number       Type             X           Y           Z
 ---------------------------------------------------------------------
      1          6           0        0.957162   -0.002030   -0.000000
      2          6           0        0.274180    1.211513   -0.000000
      3          6           0       -1.114639    1.219361   -0.000000
      4          6           0        0.264283   -1.205953   -0.000000
      5          6           0       -1.128294   -1.195683   -0.000000
      6          6           0       -1.822888    0.015318   -0.000000
      7          1           0        0.804314   -2.143835   -0.000000
      8          1           0       -1.671112   -2.136116   -0.000000
      9          8           0       -3.185565    0.088207   -0.000000
     10          1           0       -3.554078   -0.801201    0.000001
     11          1           0        0.825956    2.142628   -0.000000
     12          1           0       -1.665688    2.151544   -0.000000
     13         17           0        2.715665   -0.010226   -0.000000
 ---------------------------------------------------------------------

 SCF Done:  E(RHF) =  -764.908267614     A.U. after    2 cycles

 The electronic state is 1-A.
 Alpha  occ. eigenvalues -- -105.57014 -20.59252 -11.32390 -11.30532 -11.26791
 Alpha  occ. eigenvalues --  -11.26610 -11.25910 -11.25330 -10.61800  -7.78766
 Alpha  occ. eigenvalues --   -7.78374  -7.78351  -1.50637  -1.18460  -1.09283
 Alpha  occ. eigenvalues --   -1.04242  -0.98434  -0.87682  -0.83407  -0.75763
 Alpha  occ. eigenvalues --   -0.70301  -0.66906  -0.63769  -0.62222  -0.60317
 Alpha  occ. eigenvalues --   -0.59025  -0.54432  -0.54067  -0.52542  -0.46431
 Alpha  occ. eigenvalues --   -0.46419  -0.36926  -0.32800
 Alpha virt. eigenvalues --    0.02734   0.03919   0.04214   0.05611   0.06462
 Alpha virt. eigenvalues --    0.08646   0.09488   0.09667   0.10912   0.12780
 Alpha virt. eigenvalues --    0.12814   0.13005   0.13445   0.13761   0.14124

 Mulliken charges:
               1
     1  C   -0.135068
     2  C    0.390175
     3  C    0.442973
     4  C    0.255427
     5  C    0.098049
     6  C    1.470608
     7  H   -0.142194
     8  H   -0.312011
     9  O   -1.737240
    10  H    0.403751
    11  H   -0.154874
    12  H   -0.239002
    13  Cl  -0.340592
 Sum of Mulliken charges =  -0.00000

 Dipole moment (field-independent basis, Debye):
    X=             -1.9970    Y=             -1.3188    Z=              0.0000  Tot=              2.3932

 Test job not archived.
 1\1\GINC-SE343\SP\RHF\Aug-CC-pVDZ\C6H5Cl1O1\OHZDE\08-Apr-2025\0\\#t hf
  aug-cc-pvdz iop(5/13=1,5/36=2,99/5=2) pseudo=read geom=check guess=(r
 ead,tcheck) scf=(maxcycle=1)\\title\\0,1\C,0,-0.957162,-0.00203,0.\C,0
 ,-0.27418,1.211513,0.\C,0,1.114639,1.219361,0.\C,0,-0.264283,-1.205953
 ,0.\C,0,1.128294,-1.195683,0.\C,0,1.822888,0.015318,0.\H,0,-0.804314,-
 2.143835,0.\H,0,1.671112,-2.136116,0.\O,0,3.185565,0.088207,0.\H,0,3.5
 54078,-0.801201,-0.000001\H,0,-0.825956,2.142628,0.\H,0,1.665688,2.151
 544,0.\Cl,0,-2.715665,-0.010226,0.\\Version=ES64L-G16RevC.01\State=1-A

 Normal termination of Gaussian 16 at Tue Apr  8 23:11:16 2025.
