 Gaussian 16, Revision C.01,

 ----------------------------------------------------------------------
 #t hf aug-cc-pvdz symm=none int=(grid=ultrafine) guess=(read,tcheck) s
 table=(opt,rrhf)
 ----------------------------------------------------------------------
 -----
 title
 -----
 Symbolic Z-matrix:
 Charge =  0 Multiplicity = 1

 SCF Done:  E(RHF) =  -725.802456861     A.U. after   14 cycles
 Normal termination of Gaussian 16 at Tue Apr  8 22:36:30 2025.
 Gaussian 16:  ES64L-G16RevC.01  3-Jul-2019

 ----------------------------------------------------------------------
 #t hf aug-cc-pvdz iop(5/13=1,5/36=2,99/5=2) pseudo=read geom=check gue
 ss=(read,tcheck) scf=(maxcycle=1)
 ----------------------------------------------------------------------
 -----
 title
 -----
 Structure from the checkpoint file:  "BDE49_expt_1114_mol1.chk"
 Charge =  0 Multiplicity = 1

                         Standard orientation:
 ---------------------------------------------------------------------
 Center     Atomic      Atomic             Coordinates (Angstroms)
 Number     Number       Type             X           Y           Z
 ---------------------------------------------------------------------
      1          6           0       -0.184866    0.517648   -0.382282
      2          6           0        1.117039   -0.245831   -0.075630
      3          8           0        2.166805    0.308161   -0.248015
      4          8           0        1.032744   -1.504513    0.366878
      5          1           0        0.098436   -1.758901    0.436386
      6          6           0       -0.262453    1.828230    0.387669
      7          1           0       -0.316400    1.647923    1.462788
      8          1           0       -1.137015    2.402271    0.081170
      9          1           0        0.639664    2.404006    0.174216
     10         17           0       -1.688229   -0.495340   -0.072177
     11          1           0       -0.199493    0.696023   -1.457000
 ---------------------------------------------------------------------

 SCF Done:  E(RHF) =  -726.146756367     A.U. after    2 cycles

 The electronic state is 1-A.
 Alpha  occ. eigenvalues -- -105.59069 -20.61475 -20.54927 -11.41577 -11.35149
 Alpha  occ. eigenvalues --  -11.26612 -10.63887  -7.80805  -7.80485  -7.80438
 Alpha  occ. eigenvalues --   -1.56249  -1.47331  -1.15156  -1.02247  -0.92333
 Alpha  occ. eigenvalues --   -0.83955  -0.75620  -0.68641  -0.67153  -0.63340
 Alpha  occ. eigenvalues --   -0.61556  -0.58263  -0.56361  -0.54356  -0.50398
 Alpha  occ. eigenvalues --   -0.49218  -0.47055  -0.44831
 Alpha virt. eigenvalues --    0.03324   0.04240   0.04563   0.05770   0.06673
 Alpha virt. eigenvalues --    0.08625   0.10043   0.10808   0.12656   0.13015
 Alpha virt. eigenvalues --    0.13744   0.14863   0.15937   0.16397   0.16679

 Mulliken charges:
               1
     1  C   -0.918413
     2  C    2.251544
     3  O   -1.233598
     4  O   -1.237545
     5  H    0.440665
     6  C   -0.173443
     7  H    0.214827
     8  H    0.155321
     9  H    0.230790
    10  Cl  -0.081215
    11  H    0.351069
 Sum of Mulliken charges =  -0.00000

 Dipole moment (field-independent basis, Debye):
    X=             -2.7738    Y=              1.0123    Z=             -0.1254  Tot=              2.9554

 Test job not archived.
 1\1\GINC-SE048\SP\RHF\Aug-CC-pVDZ\C3H5Cl1O2\OHZDE\08-Apr-2025\0\\#t hf
  aug-cc-pvdz iop(5/13=1,5/36=2,99/5=2) pseudo=read geom=check guess=(r
 ead,tcheck) scf=(maxcycle=1)\\title\\0,1\C,0,-0.184866,0.517648,-0.382
 282\C,0,1.117039,-0.245831,-0.07563\O,0,2.166805,0.308161,-0.248015\O,
 0,1.032744,-1.504513,0.366878\H,0,0.098436,-1.758901,0.436386\C,0,-0.2
 62453,1.82823,0.387669\H,0,-0.3164,1.647923,1.462788\H,0,-1.137015,2.4
 02271,0.08117\H,0,0.639664,2.404006,0.174216\Cl,0,-1.688229,-0.49534,-
 0.072177\H,0,-0.199493,0.696023,-1.457\\Version=ES64L-G16RevC.01\State

 Normal termination of Gaussian 16 at Tue Apr  8 22:36:34 2025.
