 Gaussian 16, Revision C.01,

 ----------------------------------------------------------------------
 #t hf aug-cc-pvdz symm=none int=(grid=ultrafine) guess=(read,tcheck) s
 table=(opt,rrhf)
 ----------------------------------------------------------------------
 -----
 title
 -----
 Symbolic Z-matrix:
 Charge =  0 Multiplicity = 1

 SCF Done:  E(RHF) =  -463.436870287     A.U. after   12 cycles
 Normal termination of Gaussian 16 at Wed Apr  9 00:01:45 2025.
 Gaussian 16:  ES64L-G16RevC.01  3-Jul-2019

 ----------------------------------------------------------------------
 #t hf aug-cc-pvdz iop(5/13=1,5/36=2,99/5=2) pseudo=read geom=check gue
 ss=(read,tcheck) scf=(maxcycle=1)
 ----------------------------------------------------------------------
 -----
 title
 -----
 Structure from the checkpoint file:  "BDE49_nonexpt_2136_mol1.chk"
 Charge =  0 Multiplicity = 1

                         Standard orientation:
 ---------------------------------------------------------------------
 Center     Atomic      Atomic             Coordinates (Angstroms)
 Number     Number       Type             X           Y           Z
 ---------------------------------------------------------------------
      1          7           0        2.148691    0.434389   -0.234628
      2         14           0        0.842191   -0.605920    0.216173
      3          1           0        2.994496    0.434153    0.316860
      4          1           0        2.361981    0.596738   -1.208789
      5          6           0       -0.804314    0.111729   -0.374273
      6          6           0       -1.969559   -0.854547   -0.091722
      7          1           0       -2.104474   -1.008210    0.984452
      8          1           0       -1.809570   -1.835634   -0.548049
      9          6           0       -1.068665    1.507146    0.218359
     10          1           0       -2.912562   -0.456931   -0.482363
     11          1           0       -0.712438    0.216971   -1.465657
     12          1           0       -1.986080    1.943026   -0.192835
     13          1           0       -1.190302    1.454011    1.305550
     14          1           0       -0.244358    2.194180    0.012994
     15          1           0        0.884393   -0.686878    1.698071
     16          1           0        0.942638   -1.995230   -0.318446
 ---------------------------------------------------------------------

 SCF Done:  E(RHF) =  -463.664750566     A.U. after    2 cycles

 The electronic state is 1-A.
 Alpha  occ. eigenvalues --  -69.52577 -15.47373 -11.22488 -11.22081 -11.21784
 Alpha  occ. eigenvalues --   -6.19436  -3.94841  -3.94790  -3.94737  -1.13600
 Alpha  occ. eigenvalues --   -1.05244  -0.92637  -0.80904  -0.72204  -0.68564
 Alpha  occ. eigenvalues --   -0.62139  -0.59805  -0.57661  -0.54527  -0.53638
 Alpha  occ. eigenvalues --   -0.49436  -0.48325  -0.47671  -0.44113  -0.40379
 Alpha virt. eigenvalues --    0.03134   0.04136   0.04353   0.04681   0.06314
 Alpha virt. eigenvalues --    0.06330   0.06981   0.07106   0.07200   0.08737
 Alpha virt. eigenvalues --    0.09427   0.10225   0.10766   0.12217   0.13378

 Mulliken charges:
               1
     1  N   -0.022815
     2  Si   0.632642
     3  H   -0.026219
     4  H    0.001603
     5  C   -1.054259
     6  C   -0.211140
     7  H    0.182198
     8  H    0.108721
     9  C   -0.257345
    10  H    0.147484
    11  H    0.244567
    12  H    0.123449
    13  H    0.177658
    14  H    0.170461
    15  H   -0.062070
    16  H   -0.154934
 Sum of Mulliken charges =  -0.00000

 Dipole moment (field-independent basis, Debye):
    X=              0.4888    Y=              0.0887    Z=             -0.7386  Tot=              0.8901

 Test job not archived.
 1\1\GINC-SE424\SP\RHF\Aug-CC-pVDZ\C3H11N1Si1\OHZDE\09-Apr-2025\0\\#t h
 f aug-cc-pvdz iop(5/13=1,5/36=2,99/5=2) pseudo=read geom=check guess=(
 read,tcheck) scf=(maxcycle=1)\\title\\0,1\N,0,2.148691,0.434389,-0.234
 628\Si,0,0.842191,-0.60592,0.216173\H,0,2.994496,0.434153,0.31686\H,0,
 2.361981,0.596738,-1.208789\C,0,-0.804314,0.111729,-0.374273\C,0,-1.96
 9559,-0.854547,-0.091722\H,0,-2.104474,-1.00821,0.984452\H,0,-1.80957,
 -1.835634,-0.548049\C,0,-1.068665,1.507146,0.218359\H,0,-2.912562,-0.4
 56931,-0.482363\H,0,-0.712438,0.216971,-1.465657\H,0,-1.98608,1.943026

 Normal termination of Gaussian 16 at Wed Apr  9 00:01:50 2025.
