 Gaussian 16, Revision C.01,

 ----------------------------------------------------------------------
 #t hf aug-cc-pvdz symm=none int=(grid=ultrafine) guess=(read,tcheck) s
 table=(opt,rrhf)
 ----------------------------------------------------------------------
 -----
 title
 -----
 Symbolic Z-matrix:
 Charge =  0 Multiplicity = 1

 SCF Done:  E(RHF) =  -566.379314803     A.U. after   14 cycles
 Normal termination of Gaussian 16 at Tue Apr  8 22:53:35 2025.
 Gaussian 16:  ES64L-G16RevC.01  3-Jul-2019

 ----------------------------------------------------------------------
 #t hf aug-cc-pvdz iop(5/13=1,5/36=2,99/5=2) pseudo=read geom=check gue
 ss=(read,tcheck) scf=(maxcycle=1)
 ----------------------------------------------------------------------
 -----
 title
 -----
 Structure from the checkpoint file:  "BDE49_expt_1819_mol1.chk"
 Charge =  0 Multiplicity = 1

                         Standard orientation:
 ---------------------------------------------------------------------
 Center     Atomic      Atomic             Coordinates (Angstroms)
 Number     Number       Type             X           Y           Z
 ---------------------------------------------------------------------
      1          7           0       -1.232206   -0.450603   -0.000003
      2          8           0       -1.598380    0.667164   -0.000020
      3         16           0        0.617226   -0.737245   -0.000076
      4          6           0        1.247217    0.954256    0.000144
      5          1           0        1.840570    1.136395    0.895452
      6          1           0        0.371860    1.614564   -0.000119
      7          1           0        1.841132    1.136339   -0.894799
 ---------------------------------------------------------------------

 SCF Done:  E(RHF) =  -566.600199694     A.U. after    2 cycles

 The electronic state is 1-A.
 Alpha  occ. eigenvalues --  -93.98559 -20.65243 -15.69903 -11.27880  -8.26542
 Alpha  occ. eigenvalues --   -6.24309  -6.24122  -6.23911  -1.65346  -1.10789
 Alpha  occ. eigenvalues --   -0.99492  -0.85939  -0.72925  -0.71921  -0.66354
 Alpha  occ. eigenvalues --   -0.61046  -0.58964  -0.49900  -0.40680  -0.38646
 Alpha virt. eigenvalues --    0.03656   0.04919   0.05384   0.05823   0.07273
 Alpha virt. eigenvalues --    0.07526   0.11949   0.13038   0.13227   0.15565
 Alpha virt. eigenvalues --    0.15956   0.16057   0.17391   0.19793   0.19870

 Mulliken charges:
               1
     1  N    0.629399
     2  O   -0.940198
     3  S    0.361314
     4  C   -0.713056
     5  H    0.210879
     6  H    0.240788
     7  H    0.210875
 Sum of Mulliken charges =  -0.00000

 Dipole moment (field-independent basis, Debye):
    X=              1.8090    Y=              1.6484    Z=              0.0002  Tot=              2.4474

 Test job not archived.
 1\1\GINC-SE212\SP\RHF\Aug-CC-pVDZ\C1H3N1O1S1\OHZDE\08-Apr-2025\0\\#t h
 f aug-cc-pvdz iop(5/13=1,5/36=2,99/5=2) pseudo=read geom=check guess=(
 read,tcheck) scf=(maxcycle=1)\\title\\0,1\N,0,-1.232206,-0.450603,-0.0
 00003\O,0,-1.59838,0.667164,-0.00002\S,0,0.617226,-0.737245,-0.000076\
 C,0,1.247218,0.954255,0.000144\H,0,1.840571,1.136394,0.895452\H,0,0.37
 1861,1.614564,-0.000119\H,0,1.841133,1.136338,-0.894799\\Version=ES64L
 -G16RevC.01\State=1-A\HF=-566.6001997\RMSD=9.840e-03\Dipole=0.7117004,
 0.6485326,0.0000601\Quadrupole=0.260651,-0.1106429,-0.150008,0.9789362

 Normal termination of Gaussian 16 at Tue Apr  8 22:53:38 2025.
