 Gaussian 16, Revision C.01,

 ----------------------------------------------------------------------
 #t hf aug-cc-pvdz symm=none int=(grid=ultrafine) guess=(read,tcheck) s
 table=(opt,rrhf)
 ----------------------------------------------------------------------
 -----
 title
 -----
 Symbolic Z-matrix:
 Charge =  0 Multiplicity = 1

 SCF Done:  E(RHF) =  -626.101669813     A.U. after   14 cycles
 Normal termination of Gaussian 16 at Tue Apr  8 23:53:09 2025.
 Gaussian 16:  ES64L-G16RevC.01  3-Jul-2019

 ----------------------------------------------------------------------
 #t hf aug-cc-pvdz iop(5/13=1,5/36=2,99/5=2) pseudo=read geom=check gue
 ss=(read,tcheck) scf=(maxcycle=1)
 ----------------------------------------------------------------------
 -----
 title
 -----
 Structure from the checkpoint file:  "BDE49_nonexpt_1911_mol1.chk"
 Charge =  0 Multiplicity = 1

                         Standard orientation:
 ---------------------------------------------------------------------
 Center     Atomic      Atomic             Coordinates (Angstroms)
 Number     Number       Type             X           Y           Z
 ---------------------------------------------------------------------
      1         14           0       -0.195885   -0.803577    0.000011
      2          6           0        0.511086    0.963940   -0.000019
      3          7           0        1.981940    1.003974   -0.000057
      4          7           0        2.465786   -0.135199   -0.000110
      5          7           0       -1.999625   -0.743347    0.000032
      6          1           0        0.127580   -1.573379    1.217923
      7          1           0        0.127551   -1.573402   -1.217895
      8          7           0       -2.510385    0.389930    0.000019
      9          6           0        3.928485   -0.160116    0.000038
     10          1           0        4.257319   -0.717579   -0.881127
     11          1           0        4.257153   -0.717762    0.881150
     12          1           0        4.347733    0.849338    0.000182
     13          6           0       -3.981780    0.376718    0.000037
     14          1           0       -4.320253    0.930317   -0.880932
     15          1           0       -4.320231    0.930348    0.880995
     16          1           0       -4.374956   -0.643978    0.000060
     17          1           0        0.164883    1.537718    0.866508
     18          1           0        0.164853    1.537705   -0.866542
 ---------------------------------------------------------------------

 SCF Done:  E(RHF) =  -626.479021680     A.U. after    2 cycles

 The electronic state is 1-A.
 Alpha  occ. eigenvalues --  -69.54061 -15.57327 -15.56899 -15.56742 -15.52835
 Alpha  occ. eigenvalues --  -11.26678 -11.25686 -11.25177  -6.20945  -3.96321
 Alpha  occ. eigenvalues --   -3.96239  -3.96235  -1.37558  -1.34329  -1.08158
 Alpha  occ. eigenvalues --   -1.03191  -0.96231  -0.85664  -0.80603  -0.73338
 Alpha  occ. eigenvalues --   -0.70379  -0.68067  -0.65785  -0.65617  -0.62475
 Alpha  occ. eigenvalues --   -0.61487  -0.59490  -0.56166  -0.53851  -0.52669
 Alpha  occ. eigenvalues --   -0.48841  -0.48668  -0.46813  -0.42608  -0.39695
 Alpha virt. eigenvalues --    0.03502   0.04368   0.04977   0.05400   0.05562
 Alpha virt. eigenvalues --    0.05587   0.05829   0.06414   0.06645   0.06695
 Alpha virt. eigenvalues --    0.07558   0.07659   0.07793   0.09055   0.12518

 Mulliken charges:
               1
     1  Si   1.171134
     2  C   -0.869016
     3  N   -0.038952
     4  N   -0.057523
     5  N   -0.365946
     6  H   -0.136844
     7  H   -0.136830
     8  N   -0.211461
     9  C   -0.258424
    10  H    0.182417
    11  H    0.182415
    12  H    0.115209
    13  C   -0.282432
    14  H    0.176899
    15  H    0.176899
    16  H    0.076172
    17  H    0.138144
    18  H    0.138138
 Sum of Mulliken charges =  -0.00000

 Dipole moment (field-independent basis, Debye):
    X=              0.6005    Y=              0.4734    Z=              0.0002  Tot=              0.7647

 Test job not archived.
 1\1\GINC-SE094\SP\RHF\Aug-CC-pVDZ\C3H10N4Si1\OHZDE\08-Apr-2025\0\\#t h
 f aug-cc-pvdz iop(5/13=1,5/36=2,99/5=2) pseudo=read geom=check guess=(
 read,tcheck) scf=(maxcycle=1)\\title\\0,1\Si,0,0.195885,-0.803577,-0.0
 00011\C,0,-0.511086,0.96394,0.000019\N,0,-1.98194,1.003974,0.000057\N,
 0,-2.465786,-0.135199,0.00011\N,0,1.999625,-0.743347,-0.000032\H,0,-0.
 12758,-1.573379,-1.217923\H,0,-0.127551,-1.573402,1.217895\N,0,2.51038
 5,0.38993,-0.000019\C,0,-3.928485,-0.160116,-0.000038\H,0,-4.257319,-0
 .717579,0.881127\H,0,-4.257153,-0.717762,-0.88115\H,0,-4.347733,0.8493

 Normal termination of Gaussian 16 at Tue Apr  8 23:53:16 2025.
