 Gaussian 16, Revision C.01,

 ----------------------------------------------------------------------
 #t hf aug-cc-pvdz symm=none int=(grid=ultrafine) guess=(read,tcheck) s
 table=opt
 ----------------------------------------------------------------------
 -----
 title
 -----
 Symbolic Z-matrix:
 Charge =  0 Multiplicity = 2

 SCF Done:  E(UHF) =  -534.269667854     A.U. after   17 cycles
 Normal termination of Gaussian 16 at Tue Apr  8 22:43:25 2025.
 Gaussian 16:  ES64L-G16RevC.01  3-Jul-2019

 ----------------------------------------------------------------------
 #t hf aug-cc-pvdz iop(5/13=1,5/36=2,99/5=2) pseudo=read geom=check gue
 ss=(read,tcheck) scf=(maxcycle=1)
 ----------------------------------------------------------------------
 -----
 title
 -----
 Structure from the checkpoint file:  "BDE49_expt_1476_mol3.chk"
 Charge =  0 Multiplicity = 2

                         Standard orientation:
 ---------------------------------------------------------------------
 Center     Atomic      Atomic             Coordinates (Angstroms)
 Number     Number       Type             X           Y           Z
 ---------------------------------------------------------------------
      1          8           0        0.000000    0.000000   -1.094922
      2         17           0        0.000000    0.000000    0.515257
 ---------------------------------------------------------------------

 SCF Done:  E(UHF) =  -534.409916676     A.U. after    2 cycles

 Unable to determine electronic state:  an orbital has unidentified symmetry.
 Alpha  occ. eigenvalues -- -105.65121 -20.69855 -10.69532  -7.86300  -7.86283
 Alpha  occ. eigenvalues --   -7.85885  -1.54534  -1.03922  -0.73257  -0.66224
 Alpha  occ. eigenvalues --   -0.66205  -0.49835  -0.46631
 Alpha virt. eigenvalues --    0.06560   0.12916   0.12945   0.13274   0.17702
 Alpha virt. eigenvalues --    0.21189   0.21983   0.23024   0.39395   0.42106
 Alpha virt. eigenvalues --    0.42118   0.49748   0.51012   0.67864   0.86387

  Beta  occ. eigenvalues -- -105.65071 -20.65659 -10.69479  -7.86728  -7.85859
  Beta  occ. eigenvalues --   -7.85643  -1.41644  -1.00141  -0.63373  -0.62483
  Beta  occ. eigenvalues --   -0.53477  -0.44636
  Beta virt. eigenvalues --    0.04747   0.07398   0.13028   0.13077   0.13264
  Beta virt. eigenvalues --    0.19211   0.21247   0.23302   0.26902   0.40115
  Beta virt. eigenvalues --    0.42597   0.42628   0.50658   0.53117   0.68827

 Mulliken charges and spin densities:
               1          2
     1  O   -0.525486   1.001332
     2  Cl   0.525486  -0.001332
 Sum of Mulliken charges =  -0.00000   1.00000

 Dipole moment (field-independent basis, Debye):
    X=             -0.0000    Y=             -0.0000    Z=              0.5739  Tot=              0.5739
                          Isotropic Fermi Contact Couplings
        Atom                 a.u.       MegaHertz       Gauss      10(-4) cm-1
     1  O(17)              0.22466    -136.18696     -48.59490     -45.42708
     2  Cl(35)             0.04757      20.85891       7.44298       6.95778
 --------------------------------------------------------
       Center         ----  Spin Dipole Couplings  ----
                      3XX-RR        3YY-RR        3ZZ-RR
 --------------------------------------------------------
     1   Atom        2.206317     -0.638931     -1.567386
     2   Atom        0.873104      0.154131     -1.027234

 Normal termination of Gaussian 16 at Tue Apr  8 22:43:27 2025.
