 Gaussian 16, Revision C.01,

 ----------------------------------------------------------------------
 #t hf aug-cc-pvdz symm=none int=(grid=ultrafine) guess=(read,tcheck) s
 table=(opt,rrhf)
 ----------------------------------------------------------------------
 -----
 title
 -----
 Symbolic Z-matrix:
 Charge =  0 Multiplicity = 1

 SCF Done:  E(RHF) =  -581.025842466     A.U. after   15 cycles
 Normal termination of Gaussian 16 at Wed Apr  9 00:42:59 2025.
 Gaussian 16:  ES64L-G16RevC.01  3-Jul-2019

 ----------------------------------------------------------------------
 #t hf aug-cc-pvdz iop(5/13=1,5/36=2,99/5=2) pseudo=read geom=check gue
 ss=(read,tcheck) scf=(maxcycle=1)
 ----------------------------------------------------------------------
 -----
 title
 -----
 Structure from the checkpoint file:  "BDE49_nonexpt_673_mol1.chk"
 Charge =  0 Multiplicity = 1

                         Standard orientation:
 ---------------------------------------------------------------------
 Center     Atomic      Atomic             Coordinates (Angstroms)
 Number     Number       Type             X           Y           Z
 ---------------------------------------------------------------------
      1          8           0       -2.503835    0.103304   -0.671540
      2          8           0        1.072789    2.847743    0.477657
      3          8           0       -2.407480   -1.751752    0.724817
      4          8           0       -1.098409    2.373461   -0.225816
      5          6           0        0.654530    0.419545   -0.015247
      6          6           0        0.470680   -2.005063   -0.102181
      7          6           0        2.648479   -0.998210   -0.136410
      8          6           0        2.049799    0.254871   -0.051095
      9          6           0        1.853649   -2.138897   -0.166617
     10          6           0       -0.157330   -0.747173   -0.036222
     11          5           0       -1.724561   -0.792953    0.026437
     12          5           0        0.146646    1.918353    0.074290
     13          1           0       -0.137230   -2.905449   -0.132501
     14          1           0        3.729093   -1.082724   -0.176042
     15          1           0        2.672426    1.140390   -0.009958
     16          1           0        2.303298   -3.123344   -0.236411
     17          1           0       -3.445227   -0.051184   -0.530202
     18          1           0       -1.836238   -2.315281    1.253809
     19          1           0       -1.708465    1.687295   -0.539259
     20          1           0        0.688548    3.730798    0.472616
 ---------------------------------------------------------------------

 SCF Done:  E(RHF) =  -581.607405419     A.U. after    2 cycles

 The electronic state is 1-A.
 Alpha  occ. eigenvalues --  -20.57695 -20.57178 -20.54168 -20.53482 -11.25298
 Alpha  occ. eigenvalues --  -11.25158 -11.24836 -11.24335 -11.23805 -11.23197
 Alpha  occ. eigenvalues --   -7.66029  -7.63210  -1.50183  -1.46731  -1.45533
 Alpha  occ. eigenvalues --   -1.42070  -1.15412  -1.02212  -1.02004  -0.85226
 Alpha  occ. eigenvalues --   -0.83625  -0.78717  -0.76368  -0.75720  -0.72188
 Alpha  occ. eigenvalues --   -0.69595  -0.65985  -0.63553  -0.62718  -0.60531
 Alpha  occ. eigenvalues --   -0.58942  -0.58370  -0.56839  -0.55686  -0.54140
 Alpha  occ. eigenvalues --   -0.53640  -0.50990  -0.50836  -0.48971  -0.47416
 Alpha  occ. eigenvalues --   -0.46507  -0.35249  -0.34923
 Alpha virt. eigenvalues --    0.02766   0.03439   0.04047   0.04323   0.04718
 Alpha virt. eigenvalues --    0.05234   0.06375   0.06841   0.07461   0.07550
 Alpha virt. eigenvalues --    0.08195   0.08607   0.09383   0.10018   0.10471

 Mulliken charges:
               1
     1  O   -1.584999
     2  O   -1.452173
     3  O   -1.428982
     4  O   -1.541616
     5  C    0.436721
     6  C    0.571917
     7  C    0.320999
     8  C    0.246301
     9  C    0.257761
    10  C    0.220733
    11  B    1.368856
    12  B    1.358210
    13  H   -0.446008
    14  H   -0.207357
    15  H   -0.354210
    16  H   -0.216926
    17  H    0.521825
    18  H    0.586083
    19  H    0.833497
    20  H    0.509369
 Sum of Mulliken charges =  -0.00000

 Dipole moment (field-independent basis, Debye):
    X=             -0.6031    Y=             -2.2220    Z=              0.3860  Tot=              2.3345

 Test job not archived.
 1\1\GINC-SE461\SP\RHF\Aug-CC-pVDZ\C6H8B2O4\OHZDE\09-Apr-2025\0\\#t hf
 aug-cc-pvdz iop(5/13=1,5/36=2,99/5=2) pseudo=read geom=check guess=(re
 ad,tcheck) scf=(maxcycle=1)\\title\\0,1\O,0,-2.503835,0.103299,-0.6715
 4\O,0,1.072784,2.847745,0.477657\O,0,-2.407477,-1.751756,0.724817\O,0,
 -1.098413,2.373459,-0.225816\C,0,0.654529,0.419546,-0.015247\C,0,0.470
 684,-2.005062,-0.102181\C,0,2.648481,-0.998205,-0.13641\C,0,2.049799,0
 .254875,-0.051095\C,0,1.853653,-2.138894,-0.166617\C,0,-0.157329,-0.74
 7173,-0.036222\B,0,-1.72456,-0.792956,0.026437\B,0,0.146643,1.918353,0

 Normal termination of Gaussian 16 at Wed Apr  9 00:43:12 2025.
