 Gaussian 16, Revision C.01,

 ----------------------------------------------------------------------
 #t hf aug-cc-pvdz symm=none int=(grid=ultrafine) guess=(read,tcheck) s
 table=(opt,rrhf)
 ----------------------------------------------------------------------
 -----
 title
 -----
 Symbolic Z-matrix:
 Charge =  0 Multiplicity = 1

 SCF Done:  E(RHF) =  -713.262884693     A.U. after   14 cycles
 Normal termination of Gaussian 16 at Wed Apr  9 00:11:48 2025.
 Gaussian 16:  ES64L-G16RevC.01  3-Jul-2019

 ----------------------------------------------------------------------
 #t hf aug-cc-pvdz iop(5/13=1,5/36=2,99/5=2) pseudo=read geom=check gue
 ss=(read,tcheck) scf=(maxcycle=1)
 ----------------------------------------------------------------------
 -----
 title
 -----
 Structure from the checkpoint file:  "BDE49_nonexpt_2383_mol1.chk"
 Charge =  0 Multiplicity = 1

                         Standard orientation:
 ---------------------------------------------------------------------
 Center     Atomic      Atomic             Coordinates (Angstroms)
 Number     Number       Type             X           Y           Z
 ---------------------------------------------------------------------
      1         14           0       -2.081862   -0.617321   -0.194349
      2         14           0       -0.408009    0.919549    0.448856
      3          6           0        1.159522    0.767055   -0.644714
      4          1           0       -0.111403    0.761326    1.893775
      5          1           0       -0.912181    2.297661    0.230082
      6          1           0       -2.389643   -0.461340   -1.636429
      7          1           0       -3.323272   -0.385126    0.583729
      8          7           0        2.147961   -0.029929   -0.585781
      9          1           0       -1.627203   -2.008743    0.043336
     10          6           0        2.209226   -1.051973    0.441471
     11          1           0        2.298020   -2.027498   -0.045733
     12          1           0        1.351238   -1.075314    1.128123
     13          1           0        3.123387   -0.907720    1.025103
     14          1           0        1.201039    1.494563   -1.465166
 ---------------------------------------------------------------------

 SCF Done:  E(RHF) =  -713.471381227     A.U. after    2 cycles

 The electronic state is 1-A.
 Alpha  occ. eigenvalues --  -69.53764 -69.53313 -15.51233 -11.27442 -11.26239
 Alpha  occ. eigenvalues --   -6.20957  -6.20508  -3.96297  -3.96281  -3.96276
 Alpha  occ. eigenvalues --   -3.95860  -3.95859  -3.95853  -1.22955  -0.97661
 Alpha  occ. eigenvalues --   -0.82805  -0.76066  -0.70093  -0.66956  -0.60744
 Alpha  occ. eigenvalues --   -0.60131  -0.53574  -0.51032  -0.49801  -0.48256
 Alpha  occ. eigenvalues --   -0.46160  -0.42140  -0.39835
 Alpha virt. eigenvalues --    0.03491   0.03541   0.04367   0.04791   0.05913
 Alpha virt. eigenvalues --    0.06435   0.06722   0.07418   0.07992   0.08309
 Alpha virt. eigenvalues --    0.08919   0.09147   0.09895   0.10438   0.10589

 Mulliken charges:
               1
     1  Si   0.374042
     2  Si   0.591882
     3  C   -0.871889
     4  H   -0.055659
     5  H   -0.207874
     6  H   -0.096308
     7  H   -0.113604
     8  N    0.626030
     9  H   -0.100766
    10  C   -0.378014
    11  H    0.137209
    12  H    0.040620
    13  H    0.112805
    14  H   -0.058475
 Sum of Mulliken charges =  -0.00000

 Dipole moment (field-independent basis, Debye):
    X=             -1.4058    Y=              0.0418    Z=              1.0216  Tot=              1.7383

 Test job not archived.
 1\1\GINC-SE250\SP\RHF\Aug-CC-pVDZ\C2H9N1Si2\OHZDE\09-Apr-2025\0\\#t hf
  aug-cc-pvdz iop(5/13=1,5/36=2,99/5=2) pseudo=read geom=check guess=(r
 ead,tcheck) scf=(maxcycle=1)\\title\\0,1\Si,0,-2.081862,-0.617321,-0.1
 94349\Si,0,-0.408009,0.919549,0.448856\C,0,1.159522,0.767055,-0.644714
 \H,0,-0.111403,0.761326,1.893775\H,0,-0.912181,2.297661,0.230082\H,0,-
 2.389643,-0.46134,-1.636429\H,0,-3.323272,-0.385126,0.583729\N,0,2.147
 961,-0.029929,-0.585781\H,0,-1.627203,-2.008743,0.043336\C,0,2.209226,
 -1.051973,0.441471\H,0,2.29802,-2.027498,-0.045733\H,0,1.351238,-1.075

 Normal termination of Gaussian 16 at Wed Apr  9 00:11:52 2025.
