 Gaussian 16, Revision C.01,

 ----------------------------------------------------------------------
 #t hf aug-cc-pvdz symm=none int=(grid=ultrafine) guess=(read,tcheck) s
 table=(opt,rrhf)
 ----------------------------------------------------------------------
 -----
 title
 -----
 Symbolic Z-matrix:
 Charge =  0 Multiplicity = 1

 SCF Done:  E(RHF) =  -728.691219184     A.U. after   15 cycles

 1\1\GINC-SE174\Stability\RHF\Aug-CC-pVDZ\C7H7Cl1\OHZDE\08-Apr-2025\0\\
 #t hf aug-cc-pvdz symm=none int=(grid=ultrafine) guess=(read,tcheck) s
 table=(opt,rrhf)\\title\\0,1\C,0,-0.358647,-0.381071,0.\C,0,0.508276,-
 1.46859,0.\C,0,1.882127,-1.247412,0.\C,0,2.371413,0.055614,0.\C,0,1.48
 5199,1.128746,0.\C,0,0.098087,0.942647,0.\Cl,0,-2.091531,-0.703664,0.\
 H,0,2.561273,-2.091911,0.\H,0,3.439768,0.237886,0.\H,0,0.105451,-2.473
 263,0.\H,0,1.870517,2.142823,0.\C,0,-0.843647,2.117405,0.\H,0,-0.28715
 6,3.055798,0.\H,0,-1.49534,2.103466,0.878172\H,0,-1.49534,2.103466,-0.

 Normal termination of Gaussian 16 at Tue Apr  8 22:49:11 2025.
 Gaussian 16:  ES64L-G16RevC.01  3-Jul-2019

 ----------------------------------------------------------------------
 #t hf aug-cc-pvdz iop(5/13=1,5/36=2,99/5=2) pseudo=read geom=check gue
 ss=(read,tcheck) scf=(maxcycle=1)
 ----------------------------------------------------------------------
 -----
 title
 -----
 Structure from the checkpoint file:  "BDE49_expt_1675_mol1.chk"
 Charge =  0 Multiplicity = 1

                         Standard orientation:
 ---------------------------------------------------------------------
 Center     Atomic      Atomic             Coordinates (Angstroms)
 Number     Number       Type             X           Y           Z
 ---------------------------------------------------------------------
      1          6           0        0.000000    0.523300    0.000000
      2          6           0       -1.376638    0.721089    0.000000
      3          6           0       -2.225502   -0.381552    0.000000
      4          6           0       -1.688766   -1.665761    0.000000
      5          6           0       -0.307941   -1.839852    0.000000
      6          6           0        0.574621   -0.753667    0.000000
      7         17           0        1.040809    1.945858    0.000000
      8          1           0       -3.298844   -0.232038    0.000000
      9          1           0       -2.341830   -2.530697    0.000000
     10          1           0       -1.771857    1.728778    0.000000
     11          1           0        0.106472   -2.842391    0.000000
     12          6           0        2.065527   -0.963712    0.000000
     13          1           0        2.303419   -2.028452    0.000000
     14          1           0        2.530542   -0.506920    0.878172
     15          1           0        2.530542   -0.506920   -0.878172
 ---------------------------------------------------------------------

 SCF Done:  E(RHF) =  -729.047817019     A.U. after    2 cycles

 The electronic state is 1-A'.
 Alpha  occ. eigenvalues -- -105.56927 -11.30696 -11.26495 -11.25690 -11.25258
 Alpha  occ. eigenvalues --  -11.25184 -11.25113 -11.24082 -10.61726  -7.78686
 Alpha  occ. eigenvalues --   -7.78305  -7.78284  -1.18534  -1.09393  -1.05850
 Alpha  occ. eigenvalues --   -0.99201  -0.94421  -0.84356  -0.81405  -0.70719
 Alpha  occ. eigenvalues --   -0.67558  -0.64433  -0.60250  -0.59556  -0.59065
 Alpha  occ. eigenvalues --   -0.55943  -0.53092  -0.52334  -0.51160  -0.47643
 Alpha  occ. eigenvalues --   -0.46201  -0.35268  -0.34165
 Alpha virt. eigenvalues --    0.03241   0.03564   0.04099   0.05257   0.05817
 Alpha virt. eigenvalues --    0.05833   0.07985   0.09369   0.10072   0.10232
 Alpha virt. eigenvalues --    0.10532   0.12184   0.12858   0.13232   0.13646

 Mulliken charges:
               1
     1  C   -0.279693
     2  C    0.194198
     3  C    0.118667
     4  C   -0.140885
     5  C    0.459194
     6  C    0.997499
     7  Cl  -0.421708
     8  H   -0.208694
     9  H   -0.230910
    10  H   -0.188806
    11  H   -0.287052
    12  C   -0.559652
    13  H    0.020007
    14  H    0.263917
    15  H    0.263917
 Sum of Mulliken charges =  -0.00000

 Dipole moment (field-independent basis, Debye):
    X=             -0.7155    Y=             -1.6716    Z=              0.0000  Tot=              1.8183

 Test job not archived.
 1\1\GINC-SE174\SP\RHF\Aug-CC-pVDZ\C7H7Cl1\OHZDE\08-Apr-2025\0\\#t hf a
 ug-cc-pvdz iop(5/13=1,5/36=2,99/5=2) pseudo=read geom=check guess=(rea
 d,tcheck) scf=(maxcycle=1)\\title\\0,1\C,0,-0.358647,-0.381071,0.\C,0,
 0.508276,-1.46859,0.\C,0,1.882127,-1.247412,0.\C,0,2.371413,0.055614,0
 .\C,0,1.485199,1.128746,0.\C,0,0.098087,0.942647,0.\Cl,0,-2.091531,-0.
 703664,0.\H,0,2.561273,-2.091911,0.\H,0,3.439768,0.237886,0.\H,0,0.105
 451,-2.473263,0.\H,0,1.870517,2.142823,0.\C,0,-0.843647,2.117405,0.\H,
 0,-0.287156,3.055798,0.\H,0,-1.49534,2.103466,0.878172\H,0,-1.49534,2.

 Normal termination of Gaussian 16 at Tue Apr  8 22:49:17 2025.
