 Gaussian 16, Revision C.01,

 ----------------------------------------------------------------------
 #t hf aug-cc-pvdz symm=none int=(grid=ultrafine) guess=(read,tcheck) s
 table=(opt,rrhf)
 ----------------------------------------------------------------------
 -----
 title
 -----
 Symbolic Z-matrix:
 Charge =  0 Multiplicity = 1

 SCF Done:  E(RHF) =  -1693.42820455     A.U. after   11 cycles
 Normal termination of Gaussian 16 at Tue Apr  8 23:43:54 2025.
 Gaussian 16:  ES64L-G16RevC.01  3-Jul-2019

 ----------------------------------------------------------------------
 #t hf aug-cc-pvdz iop(5/13=1,5/36=2,99/5=2) pseudo=read geom=check gue
 ss=(read,tcheck) scf=(maxcycle=1)
 ----------------------------------------------------------------------
 -----
 title
 -----
 Structure from the checkpoint file:  "BDE49_nonexpt_171_mol1.chk"
 Charge =  0 Multiplicity = 1

                         Standard orientation:
 ---------------------------------------------------------------------
 Center     Atomic      Atomic             Coordinates (Angstroms)
 Number     Number       Type             X           Y           Z
 ---------------------------------------------------------------------
      1         17           0       -2.328234   -0.882028   -0.000037
      2         17           0       -0.866850    1.773048    0.000054
      3          5           0       -0.816992    0.024163    0.000012
      4         14           0        0.901378   -1.045767    0.000015
      5         17           0        2.579829    0.186118   -0.000037
      6          1           0        0.962514   -1.895671    1.207668
      7          1           0        0.962495   -1.895740   -1.207589
 ---------------------------------------------------------------------

 SCF Done:  E(RHF) =  -1693.71354274     A.U. after    2 cycles

 The electronic state is 1-A.
 Alpha  occ. eigenvalues -- -105.59409-105.59199-105.56484 -69.58712 -10.64409
 Alpha  occ. eigenvalues --  -10.64214 -10.61485  -7.81296  -7.81105  -7.81019
 Alpha  occ. eigenvalues --   -7.80971  -7.80828  -7.80767  -7.78373  -7.78057
 Alpha  occ. eigenvalues --   -7.78056  -7.72936  -6.25519  -4.00947  -4.00787
 Alpha  occ. eigenvalues --   -4.00775  -1.12514  -1.07422  -1.05926  -0.77932
 Alpha  occ. eigenvalues --   -0.68808  -0.60272  -0.57963  -0.55769  -0.54269
 Alpha  occ. eigenvalues --   -0.53237  -0.49273  -0.49209  -0.47756  -0.46320
 Alpha  occ. eigenvalues --   -0.43334
 Alpha virt. eigenvalues --    0.03207   0.03845   0.04343   0.04907   0.05637
 Alpha virt. eigenvalues --    0.06964   0.07468   0.07509   0.09627   0.10578
 Alpha virt. eigenvalues --    0.12705   0.12850   0.13769   0.15355   0.15734

 Mulliken charges:
               1
     1  Cl  -0.326113
     2  Cl  -0.323316
     3  B    0.279229
     4  Si   1.125887
     5  Cl  -0.538027
     6  H   -0.108834
     7  H   -0.108827
 Sum of Mulliken charges =  -0.00000

 Dipole moment (field-independent basis, Debye):
    X=             -0.7359    Y=             -1.0687    Z=              0.0000  Tot=              1.2976

 Test job not archived.
 1\1\GINC-SE132\SP\RHF\Aug-CC-pVDZ\B1Cl3H2Si1\OHZDE\08-Apr-2025\0\\#t h
 f aug-cc-pvdz iop(5/13=1,5/36=2,99/5=2) pseudo=read geom=check guess=(
 read,tcheck) scf=(maxcycle=1)\\title\\0,1\Cl,0,-2.328234,-0.882028,-0.
 000037\Cl,0,-0.86685,1.773048,0.000054\B,0,-0.816992,0.024163,0.000012
 \Si,0,0.901378,-1.045767,0.000015\Cl,0,2.579829,0.186117,-0.000037\H,0
 ,0.962514,-1.895671,1.207668\H,0,0.962495,-1.89574,-1.207589\\Version=
 ES64L-G16RevC.01\State=1-A\HF=-1693.7135427\RMSD=6.366e-03\Dipole=-0.2
 895226,-0.4204601,0.0000145\Quadrupole=-3.1849844,1.3449728,1.8400116,

 Normal termination of Gaussian 16 at Tue Apr  8 23:43:57 2025.
