 Gaussian 16, Revision C.01,

 ----------------------------------------------------------------------
 #t hf aug-cc-pvdz symm=none int=(grid=ultrafine) guess=(read,tcheck) s
 table=opt
 ----------------------------------------------------------------------
 -----
 title
 -----
 Symbolic Z-matrix:
 Charge =  0 Multiplicity = 2

 SCF Done:  E(UHF) =  -175.639301459     A.U. after   14 cycles
 Normal termination of Gaussian 16 at Wed Apr  9 00:04:25 2025.
 Gaussian 16:  ES64L-G16RevC.01  3-Jul-2019

 ----------------------------------------------------------------------
 #t hf aug-cc-pvdz iop(5/13=1,5/36=2,99/5=2) pseudo=read geom=check gue
 ss=(read,tcheck) scf=(maxcycle=1)
 ----------------------------------------------------------------------
 -----
 title
 -----
 Structure from the checkpoint file:  "BDE49_nonexpt_21_mol2.chk"
 Charge =  0 Multiplicity = 2

                         Standard orientation:
 ---------------------------------------------------------------------
 Center     Atomic      Atomic             Coordinates (Angstroms)
 Number     Number       Type             X           Y           Z
 ---------------------------------------------------------------------
      1          5           0        0.000000   -0.000000    0.534067
      2          8           0        0.000000    1.219031   -0.040491
      3          1           0        0.000000    1.228890   -1.011239
      4          8           0       -0.000000   -1.219031   -0.040491
      5          1           0       -0.000000   -1.228890   -1.011239
 ---------------------------------------------------------------------

 SCF Done:  E(UHF) =  -175.806962466     A.U. after    2 cycles

 The electronic state is 2-A1.
 Alpha  occ. eigenvalues --  -20.57834 -20.57833  -7.67232  -1.49848  -1.46304
 Alpha  occ. eigenvalues --   -0.79381  -0.75708  -0.65466  -0.58593  -0.54525
 Alpha  occ. eigenvalues --   -0.50903  -0.35320
 Alpha virt. eigenvalues --    0.02654   0.05352   0.05356   0.06224   0.07828
 Alpha virt. eigenvalues --    0.10711   0.16587   0.16888   0.20466   0.20556
 Alpha virt. eigenvalues --    0.21611   0.23170   0.24231   0.26837   0.27406

  Beta  occ. eigenvalues --  -20.57712 -20.57711  -7.65101  -1.49242  -1.45894
  Beta  occ. eigenvalues --   -0.76643  -0.74690  -0.64577  -0.58299  -0.54221
  Beta  occ. eigenvalues --   -0.51451
  Beta virt. eigenvalues --    0.02164   0.05451   0.05462   0.05526   0.07875
  Beta virt. eigenvalues --    0.09185   0.15084   0.18105   0.20566   0.20604
  Beta virt. eigenvalues --    0.21689   0.22209   0.23263   0.24461   0.27684

 Mulliken charges and spin densities:
               1          2
     1  B    0.750395   1.069741
     2  O   -0.821112  -0.073562
     3  H    0.445914   0.038691
     4  O   -0.821112  -0.073562
     5  H    0.445914   0.038691
 Sum of Mulliken charges =   0.00000   1.00000

 Dipole moment (field-independent basis, Debye):
    X=              0.0000    Y=              0.0000    Z=             -3.2815  Tot=              3.2815
                          Isotropic Fermi Contact Couplings
        Atom                 a.u.       MegaHertz       Gauss      10(-4) cm-1
     1  B(11)              0.42081     603.58901     215.37557     201.33562
     2  O(17)              0.15598     -94.55506     -33.73960     -31.54017
     3  H(1)               0.01490      66.60081      23.76483      22.21564
     4  O(17)              0.15598     -94.55506     -33.73960     -31.54017
     5  H(1)               0.01490      66.60081      23.76483      22.21564
 --------------------------------------------------------
       Center         ----  Spin Dipole Couplings  ----
                      3XX-RR        3YY-RR        3ZZ-RR

 Normal termination of Gaussian 16 at Wed Apr  9 00:04:27 2025.
