 Gaussian 16, Revision C.01,

 ----------------------------------------------------------------------
 #t hf aug-cc-pvdz symm=none int=(grid=ultrafine) guess=(read,tcheck) s
 table=(opt,rrhf)
 ----------------------------------------------------------------------
 -----
 title
 -----
 Symbolic Z-matrix:
 Charge =  0 Multiplicity = 1

 SCF Done:  E(RHF) =  -799.220700670     A.U. after   16 cycles
 Normal termination of Gaussian 16 at Wed Apr  9 00:06:16 2025.
 Gaussian 16:  ES64L-G16RevC.01  3-Jul-2019

 ----------------------------------------------------------------------
 #t hf aug-cc-pvdz iop(5/13=1,5/36=2,99/5=2) pseudo=read geom=check gue
 ss=(read,tcheck) scf=(maxcycle=1)
 ----------------------------------------------------------------------
 -----
 title
 -----
 Structure from the checkpoint file:  "BDE49_nonexpt_2207_mol1.chk"
 Charge =  0 Multiplicity = 1

                         Standard orientation:
 ---------------------------------------------------------------------
 Center     Atomic      Atomic             Coordinates (Angstroms)
 Number     Number       Type             X           Y           Z
 ---------------------------------------------------------------------
      1          6           0       -2.904764   -0.286834    0.234104
      2          6           0       -2.005815    0.762557    0.196877
      3          6           0       -0.644233    0.523840   -0.018309
      4          6           0       -2.439229   -1.590364    0.037434
      5          6           0       -1.093263   -1.831073   -0.181766
      6          6           0       -0.155073   -0.787347   -0.206971
      7          1           0       -3.132208   -2.423695    0.056257
      8          1           0       -0.718623   -2.833819   -0.344292
      9          8           0        1.116449   -1.124833   -0.469357
     10         14           0        2.615254   -0.860467    0.244989
     11          1           0       -3.955811   -0.095258    0.408796
     12          7           0        0.230322    1.698286   -0.066263
     13          8           0        1.448268    1.523113   -0.006115
     14          8           0       -0.287720    2.799802   -0.161887
     15          1           0       -2.324603    1.787312    0.325472
     16          1           0        3.470975    0.003093   -0.580701
     17          1           0        3.201007   -2.219909    0.264489
     18          1           0        2.471745   -0.388510    1.634632
 ---------------------------------------------------------------------

 SCF Done:  E(RHF) =  -799.752778613     A.U. after    2 cycles

 The electronic state is 1-A.
 Alpha  occ. eigenvalues --  -69.57061 -20.59879 -20.59533 -20.57550 -15.80270
 Alpha  occ. eigenvalues --  -11.36266 -11.31778 -11.28655 -11.28532 -11.26627
 Alpha  occ. eigenvalues --  -11.26550  -6.23475  -3.98990  -3.98817  -3.98794
 Alpha  occ. eigenvalues --   -1.67791  -1.51471  -1.49897  -1.20330  -1.11871
 Alpha  occ. eigenvalues --   -1.04937  -0.98690  -0.88296  -0.87254  -0.81500
 Alpha  occ. eigenvalues --   -0.77907  -0.75992  -0.75475  -0.71059  -0.69234
 Alpha  occ. eigenvalues --   -0.66540  -0.64216  -0.62134  -0.58677  -0.56888
 Alpha  occ. eigenvalues --   -0.54466  -0.53298  -0.50436  -0.49347  -0.48153
 Alpha  occ. eigenvalues --   -0.46227  -0.45553  -0.39133  -0.35680
 Alpha virt. eigenvalues --    0.01825   0.02764   0.03398   0.03917   0.04868
 Alpha virt. eigenvalues --    0.05455   0.06039   0.06982   0.07762   0.08730
 Alpha virt. eigenvalues --    0.09814   0.10233   0.10801   0.11538   0.12110

 Mulliken charges:
               1
     1  C    0.359629
     2  C    0.447067
     3  C   -0.224045
     4  C    0.201383
     5  C    0.576777
     6  C    1.024029
     7  H   -0.205392
     8  H   -0.314182
     9  O   -2.254365
    10  Si   1.191825
    11  H   -0.204851
    12  N    2.908433
    13  O   -1.474782
    14  O   -1.405559
    15  H   -0.222918
    16  H   -0.088369
    17  H   -0.201717
    18  H   -0.112963
 Sum of Mulliken charges =  -0.00000

 Dipole moment (field-independent basis, Debye):
    X=             -2.6900    Y=             -2.9396    Z=              0.6475  Tot=              4.0369

 Test job not archived.
 1\1\GINC-SE341\SP\RHF\Aug-CC-pVDZ\C6H7N1O3Si1\OHZDE\09-Apr-2025\0\\#t
 hf aug-cc-pvdz iop(5/13=1,5/36=2,99/5=2) pseudo=read geom=check guess=
 (read,tcheck) scf=(maxcycle=1)\\title\\0,1\C,0,-2.904764,-0.286835,0.2
 34104\C,0,-2.005815,0.762557,0.196877\C,0,-0.644233,0.52384,-0.018309\
 C,0,-2.439229,-1.590365,0.037434\C,0,-1.093263,-1.831073,-0.181766\C,0
 ,-0.155073,-0.787347,-0.206971\H,0,-3.132207,-2.423696,0.056257\H,0,-0
 .718622,-2.833819,-0.344292\O,0,1.116449,-1.124833,-0.469357\Si,0,2.61
 5254,-0.860466,0.244989\H,0,-3.955811,-0.095259,0.408796\N,0,0.230322,

 Normal termination of Gaussian 16 at Wed Apr  9 00:06:27 2025.
