 Gaussian 16, Revision C.01,

 ----------------------------------------------------------------------
 #t hf aug-cc-pvdz symm=none int=(grid=ultrafine) guess=(read,tcheck) s
 table=(opt,rrhf)
 ----------------------------------------------------------------------
 -----
 title
 -----
 Symbolic Z-matrix:
 Charge =  0 Multiplicity = 1

 SCF Done:  E(RHF) =  -298.518053953     A.U. after   13 cycles

 1\1\GINC-SE187\Stability\RHF\Aug-CC-pVDZ\C7H15B1\OHZDE\09-Apr-2025\0\\
 #t hf aug-cc-pvdz symm=none int=(grid=ultrafine) guess=(read,tcheck) s
 table=(opt,rrhf)\\title\\0,1\C,0,0.316541,-1.358731,0.141703\C,0,1.753
 213,-1.078268,-0.322008\C,0,2.264951,0.267351,0.210344\C,0,1.311731,1.
 412061,-0.159913\C,0,-0.123353,1.122941,0.302603\C,0,-2.083288,-0.4892
 75,0.268163\C,0,-0.653351,-0.221916,-0.228336\B,0,-3.242729,0.397503,-
 0.265313\H,0,-3.119742,1.06071,-1.252892\H,0,-4.31146,0.374521,0.26862
 \H,0,0.306662,-1.49041,1.232688\H,0,-0.039964,-2.302813,-0.286042\H,0,

 Normal termination of Gaussian 16 at Wed Apr  9 00:38:27 2025.
 Gaussian 16:  ES64L-G16RevC.01  3-Jul-2019

 ----------------------------------------------------------------------
 #t hf aug-cc-pvdz iop(5/13=1,5/36=2,99/5=2) pseudo=read geom=check gue
 ss=(read,tcheck) scf=(maxcycle=1)
 ----------------------------------------------------------------------
 -----
 title
 -----
 Structure from the checkpoint file:  "BDE49_nonexpt_540_mol1.chk"
 Charge =  0 Multiplicity = 1

                         Standard orientation:
 ---------------------------------------------------------------------
 Center     Atomic      Atomic             Coordinates (Angstroms)
 Number     Number       Type             X           Y           Z
 ---------------------------------------------------------------------
      1          6           0        0.316541   -1.358731    0.141703
      2          6           0        1.753213   -1.078268   -0.322008
      3          6           0        2.264951    0.267351    0.210344
      4          6           0        1.311731    1.412061   -0.159913
      5          6           0       -0.123353    1.122941    0.302603
      6          6           0       -2.083288   -0.489275    0.268163
      7          6           0       -0.653351   -0.221916   -0.228336
      8          5           0       -3.242729    0.397503   -0.265313
      9          1           0       -3.119742    1.060710   -1.252892
     10          1           0       -4.311460    0.374521    0.268620
     11          1           0        0.306662   -1.490410    1.232688
     12          1           0       -0.039964   -2.302813   -0.286042
     13          1           0        1.781968   -1.065816   -1.419385
     14          1           0        2.416559   -1.889382   -0.004181
     15          1           0        3.269553    0.470761   -0.174583
     16          1           0        2.354918    0.212158    1.303147
     17          1           0        1.318340    1.548923   -1.249023
     18          1           0        1.663487    2.354265    0.273010
     19          1           0       -0.789951    1.934076   -0.012647
     20          1           0       -0.153303    1.104644    1.401216
     21          1           0       -2.107222   -0.573856    1.363870
     22          1           0       -2.409609   -1.496659   -0.067157
     23          1           0       -0.685249   -0.153614   -1.325407
 ---------------------------------------------------------------------

 SCF Done:  E(RHF) =  -298.848641340     A.U. after    2 cycles

 The electronic state is 1-A.
 Alpha  occ. eigenvalues --  -11.22770 -11.22223 -11.22189 -11.22183 -11.22161
 Alpha  occ. eigenvalues --  -11.22027 -11.20661  -7.58956  -1.12014  -1.03078
 Alpha  occ. eigenvalues --   -0.99948  -0.92526  -0.83293  -0.80858  -0.75367
 Alpha  occ. eigenvalues --   -0.68148  -0.65068  -0.61236  -0.60733  -0.59727
 Alpha  occ. eigenvalues --   -0.55412  -0.54941  -0.53104  -0.51680  -0.48757
 Alpha  occ. eigenvalues --   -0.48146  -0.47515  -0.46365  -0.45082  -0.42940
 Alpha  occ. eigenvalues --   -0.42390
 Alpha virt. eigenvalues --    0.02850   0.03108   0.03390   0.03909   0.04860
 Alpha virt. eigenvalues --    0.05077   0.05231   0.05935   0.06372   0.07612
 Alpha virt. eigenvalues --    0.08295   0.08358   0.09127   0.09557   0.10137

 Mulliken charges:
               1
     1  C    0.000179
     2  C   -0.246365
     3  C   -0.239701
     4  C   -0.267950
     5  C   -0.140972
     6  C   -0.015107
     7  C   -0.731198
     8  B   -0.701841
     9  H    0.349973
    10  H    0.296182
    11  H    0.190175
    12  H    0.092303
    13  H    0.161507
    14  H    0.104453
    15  H    0.097851
    16  H    0.150403
    17  H    0.163511
    18  H    0.102083
    19  H    0.086360
    20  H    0.166283
    21  H    0.096322
    22  H    0.168198
    23  H    0.117351
 Sum of Mulliken charges =  -0.00000

 Dipole moment (field-independent basis, Debye):
    X=              0.4810    Y=             -0.3343    Z=              0.1152  Tot=              0.5970

 Test job not archived.
 1\1\GINC-SE187\SP\RHF\Aug-CC-pVDZ\C7H15B1\OHZDE\09-Apr-2025\0\\#t hf a
 ug-cc-pvdz iop(5/13=1,5/36=2,99/5=2) pseudo=read geom=check guess=(rea
 d,tcheck) scf=(maxcycle=1)\\title\\0,1\C,0,0.316541,-1.358731,0.141703
 \C,0,1.753213,-1.078268,-0.322008\C,0,2.264951,0.267351,0.210344\C,0,1
 .311731,1.412061,-0.159913\C,0,-0.123353,1.122941,0.302603\C,0,-2.0832
 88,-0.489275,0.268163\C,0,-0.653351,-0.221916,-0.228336\B,0,-3.242729,
 0.397503,-0.265313\H,0,-3.119742,1.06071,-1.252892\H,0,-4.31146,0.3745
 21,0.26862\H,0,0.306662,-1.49041,1.232688\H,0,-0.039964,-2.302813,-0.2

 Normal termination of Gaussian 16 at Wed Apr  9 00:38:39 2025.
