 Gaussian 16, Revision C.01,

 ----------------------------------------------------------------------
 #t hf aug-cc-pvdz symm=none int=(grid=ultrafine) guess=(read,tcheck) s
 table=(opt,rrhf)
 ----------------------------------------------------------------------
 -----
 title
 -----
 Symbolic Z-matrix:
 Charge =  0 Multiplicity = 1

 SCF Done:  E(RHF) =  -706.730870866     A.U. after   15 cycles
 Normal termination of Gaussian 16 at Wed Apr  9 00:52:01 2025.
 Gaussian 16:  ES64L-G16RevC.01  3-Jul-2019

 ----------------------------------------------------------------------
 #t hf aug-cc-pvdz iop(5/13=1,5/36=2,99/5=2) pseudo=read geom=check gue
 ss=(read,tcheck) scf=(maxcycle=1)
 ----------------------------------------------------------------------
 -----
 title
 -----
 Structure from the checkpoint file:  "BDE49_nonexpt_940_mol1.chk"
 Charge =  0 Multiplicity = 1

                         Standard orientation:
 ---------------------------------------------------------------------
 Center     Atomic      Atomic             Coordinates (Angstroms)
 Number     Number       Type             X           Y           Z
 ---------------------------------------------------------------------
      1         17           0       -0.810837   -2.051651   -0.000000
      2          7           0        0.401361   -0.672380   -0.000000
      3          6           0        0.294731    0.064338    1.198988
      4          6           0        0.294731    1.398575    1.236556
      5          6           0        0.326747    2.251117    0.000000
      6          6           0        0.294731    1.398575   -1.236556
      7          6           0        0.294731    0.064338   -1.198988
      8          1           0        0.291112   -0.547094    2.091480
      9          1           0        0.322775    1.885941    2.204753
     10          1           0        0.322775    1.885941   -2.204753
     11          1           0        0.291112   -0.547094   -2.091480
     12          1           0        1.226685    2.884488    0.000000
     13          1           0       -0.513771    2.960893    0.000000
 ---------------------------------------------------------------------

 SCF Done:  E(RHF) =  -707.059859879     A.U. after    2 cycles

 The electronic state is 1-A'.
 Alpha  occ. eigenvalues -- -105.58642 -15.58669 -11.28404 -11.28397 -11.25755
 Alpha  occ. eigenvalues --  -11.25137 -11.25130 -10.63107  -7.80044  -7.79612
 Alpha  occ. eigenvalues --   -7.79572  -1.28150  -1.10015  -1.05214  -1.01487
 Alpha  occ. eigenvalues --   -0.90292  -0.86874  -0.73370  -0.67991  -0.67805
 Alpha  occ. eigenvalues --   -0.62949  -0.62481  -0.60001  -0.58422  -0.53666
 Alpha  occ. eigenvalues --   -0.50952  -0.47740  -0.45218  -0.39330  -0.33575
 Alpha virt. eigenvalues --    0.03260   0.03786   0.04286   0.04858   0.05605
 Alpha virt. eigenvalues --    0.05716   0.06590   0.10184   0.11302   0.11411
 Alpha virt. eigenvalues --    0.11920   0.12274   0.13406   0.14598   0.14820

 Mulliken charges:
               1
     1  Cl   0.001312
     2  N    0.598508
     3  C   -0.443084
     4  C    0.673654
     5  C   -0.830490
     6  C    0.673654
     7  C   -0.443084
     8  H   -0.203962
     9  H   -0.169298
    10  H   -0.169298
    11  H   -0.203962
    12  H    0.256640
    13  H    0.259409
 Sum of Mulliken charges =  -0.00000

 Dipole moment (field-independent basis, Debye):
    X=              0.1648    Y=              2.3538    Z=              0.0000  Tot=              2.3596

 Test job not archived.
 1\1\GINC-SE039\SP\RHF\Aug-CC-pVDZ\C5H6Cl1N1\OHZDE\09-Apr-2025\0\\#t hf
  aug-cc-pvdz iop(5/13=1,5/36=2,99/5=2) pseudo=read geom=check guess=(r
 ead,tcheck) scf=(maxcycle=1)\\title\\0,1\Cl,0,-0.810837,-2.051651,0.\N
 ,0,0.401361,-0.67238,0.\C,0,0.294731,0.064338,1.198988\C,0,0.294731,1.
 398575,1.236556\C,0,0.326747,2.251117,0.\C,0,0.294731,1.398575,-1.2365
 56\C,0,0.294731,0.064338,-1.198988\H,0,0.291112,-0.547094,2.09148\H,0,
 0.322775,1.885941,2.204753\H,0,0.322775,1.885941,-2.204753\H,0,0.29111
 2,-0.547094,-2.09148\H,0,1.226685,2.884488,0.\H,0,-0.513771,2.960893,0

 Normal termination of Gaussian 16 at Wed Apr  9 00:52:06 2025.
