 Gaussian 16, Revision C.01,

 ----------------------------------------------------------------------
 #t hf aug-cc-pvdz symm=none int=(grid=ultrafine) guess=(read,tcheck) s
 table=(opt,rrhf)
 ----------------------------------------------------------------------
 -----
 title
 -----
 Symbolic Z-matrix:
 Charge =  0 Multiplicity = 1

 SCF Done:  E(RHF) =  -270.025883173     A.U. after   13 cycles

 1\1\GINC-SE118\Stability\RHF\Aug-CC-pVDZ\C5H10O1\OHZDE\08-Apr-2025\0\\
 #t hf aug-cc-pvdz symm=none int=(grid=ultrafine) guess=(read,tcheck) s
 table=(opt,rrhf)\\title\\0,1\C,0,-1.767132,-0.60231,-0.160531\O,0,-0.4
 34257,-0.519058,-0.38715\C,0,0.225303,0.69821,-0.029146\C,0,1.703388,0
 .552433,-0.356907\H,0,-0.221256,1.529678,-0.588328\C,0,-2.581265,0.316
 649,0.361309\C,0,2.403785,-0.543504,0.450455\H,0,2.181521,1.52112,-0.1
 73045\H,0,1.801889,0.35157,-1.428657\H,0,2.350945,-0.336888,1.524101\H
 ,0,3.459194,-0.618952,0.176856\H,0,1.93615,-1.513575,0.272457\H,0,0.07

 Normal termination of Gaussian 16 at Tue Apr  8 22:41:02 2025.
 Gaussian 16:  ES64L-G16RevC.01  3-Jul-2019

 ----------------------------------------------------------------------
 #t hf aug-cc-pvdz iop(5/13=1,5/36=2,99/5=2) pseudo=read geom=check gue
 ss=(read,tcheck) scf=(maxcycle=1)
 ----------------------------------------------------------------------
 -----
 title
 -----
 Structure from the checkpoint file:  "BDE49_expt_1372_mol1.chk"
 Charge =  0 Multiplicity = 1

                         Standard orientation:
 ---------------------------------------------------------------------
 Center     Atomic      Atomic             Coordinates (Angstroms)
 Number     Number       Type             X           Y           Z
 ---------------------------------------------------------------------
      1          6           0       -1.767132   -0.602310   -0.160531
      2          8           0       -0.434257   -0.519058   -0.387150
      3          6           0        0.225303    0.698210   -0.029146
      4          6           0        1.703388    0.552433   -0.356907
      5          1           0       -0.221256    1.529678   -0.588328
      6          6           0       -2.581265    0.316649    0.361309
      7          6           0        2.403785   -0.543504    0.450455
      8          1           0        2.181521    1.521120   -0.173045
      9          1           0        1.801889    0.351570   -1.428657
     10          1           0        2.350945   -0.336888    1.524101
     11          1           0        3.459194   -0.618952    0.176856
     12          1           0        1.936150   -1.513575    0.272457
     13          1           0        0.076866    0.889996    1.042016
     14          1           0       -2.131094   -1.574564   -0.475470
     15          1           0       -2.253876    1.294888    0.684747
     16          1           0       -3.630757    0.080321    0.471450
 ---------------------------------------------------------------------

 SCF Done:  E(RHF) =  -270.314836403     A.U. after    2 cycles

 The electronic state is 1-A.
 Alpha  occ. eigenvalues --  -20.56837 -11.30138 -11.29047 -11.23492 -11.22299
 Alpha  occ. eigenvalues --  -11.22047  -1.49250  -1.07094  -1.01730  -0.93882
 Alpha  occ. eigenvalues --   -0.83187  -0.77081  -0.69713  -0.66854  -0.65682
 Alpha  occ. eigenvalues --   -0.60034  -0.58726  -0.54180  -0.53821  -0.51645
 Alpha  occ. eigenvalues --   -0.49492  -0.48088  -0.47809  -0.34689
 Alpha virt. eigenvalues --    0.03623   0.03856   0.04031   0.04329   0.05556
 Alpha virt. eigenvalues --    0.06126   0.07174   0.07483   0.08509   0.09900
 Alpha virt. eigenvalues --    0.11317   0.12614   0.13412   0.14414   0.14909

 Mulliken charges:
               1
     1  C    1.064085
     2  O   -1.362489
     3  C    0.409470
     4  C   -0.512121
     5  H    0.052367
     6  C    0.008927
     7  C   -0.332002
     8  H    0.184636
     9  H    0.180849
    10  H    0.154579
    11  H    0.109379
    12  H    0.206464
    13  H    0.094927
    14  H   -0.111068
    15  H   -0.067492
    16  H   -0.080511
 Sum of Mulliken charges =  -0.00000

 Dipole moment (field-independent basis, Debye):
    X=              0.4904    Y=              0.7831    Z=              0.2020  Tot=              0.9458

 Test job not archived.
 1\1\GINC-SE118\SP\RHF\Aug-CC-pVDZ\C5H10O1\OHZDE\08-Apr-2025\0\\#t hf a
 ug-cc-pvdz iop(5/13=1,5/36=2,99/5=2) pseudo=read geom=check guess=(rea
 d,tcheck) scf=(maxcycle=1)\\title\\0,1\C,0,-1.767132,-0.60231,-0.16053
 1\O,0,-0.434257,-0.519058,-0.38715\C,0,0.225303,0.69821,-0.029146\C,0,
 1.703388,0.552433,-0.356907\H,0,-0.221256,1.529678,-0.588328\C,0,-2.58
 1265,0.316649,0.361309\C,0,2.403785,-0.543504,0.450455\H,0,2.181521,1.
 52112,-0.173045\H,0,1.801889,0.35157,-1.428657\H,0,2.350945,-0.336888,
 1.524101\H,0,3.459194,-0.618952,0.176856\H,0,1.93615,-1.513575,0.27245

 Normal termination of Gaussian 16 at Tue Apr  8 22:41:07 2025.
