 Gaussian 16, Revision C.01,

 ----------------------------------------------------------------------
 #t hf aug-cc-pvdz symm=none int=(grid=ultrafine) guess=(read,tcheck) s
 table=opt
 ----------------------------------------------------------------------
 -----
 title
 -----
 Symbolic Z-matrix:
 Charge =  0 Multiplicity = 2

 SCF Done:  E(UHF) =  -306.428281671     A.U. after   17 cycles
 Normal termination of Gaussian 16 at Tue Apr  8 22:49:01 2025.
 Gaussian 16:  ES64L-G16RevC.01  3-Jul-2019

 ----------------------------------------------------------------------
 #t hf aug-cc-pvdz iop(5/13=1,5/36=2,99/5=2) pseudo=read geom=check gue
 ss=(read,tcheck) scf=(maxcycle=1)
 ----------------------------------------------------------------------
 -----
 title
 -----
 Structure from the checkpoint file:  "BDE49_expt_168_mol2.chk"
 Charge =  0 Multiplicity = 2

                         Standard orientation:
 ---------------------------------------------------------------------
 Center     Atomic      Atomic             Coordinates (Angstroms)
 Number     Number       Type             X           Y           Z
 ---------------------------------------------------------------------
      1          6           0       -1.662675    0.153501    0.193386
      2          6           0       -0.652941    1.143114   -0.368300
      3          8           0       -1.248189   -1.189755   -0.116310
      4          1           0       -2.647281    0.338466   -0.252075
      5          1           0       -1.745796    0.281712    1.280890
      6          1           0       -1.834007   -1.809874    0.328124
      7          6           0        0.745717    1.140145    0.298872
      8          1           0       -0.550722    0.977687   -1.445761
      9          1           0       -1.094809    2.137765   -0.240675
     10          6           0        1.722172    0.103030   -0.164245
     11          1           0        0.597935    1.081209    1.394882
     12          1           0        1.208891    2.113977    0.113193
     13          8           0        1.479985   -1.224943    0.017953
     14          1           0        2.782238    0.330492   -0.136909
     15          1           0        0.515552   -1.372588   -0.013088
 ---------------------------------------------------------------------

 SCF Done:  E(UHF) =  -306.747683232     A.U. after    2 cycles

 The electronic state is 2-A.
 Alpha  occ. eigenvalues --  -20.57358 -20.53551 -11.30178 -11.26629 -11.24149
 Alpha  occ. eigenvalues --  -11.23544  -1.47345  -1.45066  -1.07616  -0.97687
 Alpha  occ. eigenvalues --   -0.87077  -0.79398  -0.73276  -0.66777  -0.66380
 Alpha  occ. eigenvalues --   -0.62982  -0.62053  -0.58188  -0.55609  -0.52831
 Alpha  occ. eigenvalues --   -0.51072  -0.49426  -0.47125  -0.45890  -0.30203
 Alpha virt. eigenvalues --    0.02878   0.03662   0.04043   0.04695   0.05991
 Alpha virt. eigenvalues --    0.06691   0.07133   0.07381   0.09699   0.11926
 Alpha virt. eigenvalues --    0.13080   0.13733   0.14447   0.15168   0.15304

  Beta  occ. eigenvalues --  -20.57362 -20.52946 -11.30183 -11.24188 -11.24033
  Beta  occ. eigenvalues --  -11.23804  -1.47225  -1.43295  -1.07011  -0.95935
  Beta  occ. eigenvalues --   -0.84628  -0.77749  -0.73033  -0.66520  -0.64958
  Beta  occ. eigenvalues --   -0.62024  -0.60920  -0.55986  -0.53718  -0.51292
  Beta  occ. eigenvalues --   -0.49098  -0.48423  -0.46188  -0.45144
  Beta virt. eigenvalues --    0.02874   0.03633   0.04065   0.04713   0.06008
  Beta virt. eigenvalues --    0.06558   0.07135   0.07386   0.09693   0.11780
  Beta virt. eigenvalues --    0.12797   0.13267   0.13835   0.14701   0.15252

 Mulliken charges and spin densities:
               1          2
     1  C    0.706325  -0.002509
     2  C   -0.484598   0.004009
     3  O   -1.238351   0.001118
     4  H    0.082704   0.000148
     5  H    0.119438  -0.004135
     6  H    0.330843   0.000210
     7  C   -0.526732  -0.223347
     8  H    0.159965  -0.009999
     9  H    0.173628  -0.000817
    10  C    1.098577   1.215086
    11  H    0.190989   0.045854
    12  H    0.141406  -0.002589
    13  O   -1.364055   0.060326
    14  H    0.004762  -0.075361
    15  H    0.605099  -0.007995
 Sum of Mulliken charges =  -0.00000   1.00000

 Dipole moment (field-independent basis, Debye):
    X=             -3.3454    Y=              1.3974    Z=              1.1738  Tot=              3.8108
                          Isotropic Fermi Contact Couplings
        Atom                 a.u.       MegaHertz       Gauss      10(-4) cm-1
     1  C(13)             -0.00128      -1.44105      -0.51420      -0.48068
     2  C(13)              0.02997      33.69150      12.02196      11.23827
     3  O(17)             -0.00119       0.72223       0.25771       0.24091
     4  H(1)               0.00007       0.32380       0.11554       0.10801
     5  H(1)              -0.00001      -0.05702      -0.02035      -0.01902
     6  H(1)              -0.00003      -0.11397      -0.04067      -0.03802
     7  C(13)             -0.04079     -45.85071     -16.36068     -15.29415
     8  H(1)              -0.00088      -3.92875      -1.40188      -1.31049

 Normal termination of Gaussian 16 at Tue Apr  8 22:49:06 2025.
