 Gaussian 16, Revision C.01,

 ----------------------------------------------------------------------
 #t hf aug-cc-pvdz symm=none int=(grid=ultrafine) guess=(read,tcheck) s
 table=(opt,rrhf)
 ----------------------------------------------------------------------
 -----
 title
 -----
 Symbolic Z-matrix:
 Charge =  0 Multiplicity = 1

 SCF Done:  E(RHF) =  -589.243337422     A.U. after   14 cycles
 Normal termination of Gaussian 16 at Wed Apr  9 00:21:55 2025.
 Gaussian 16:  ES64L-G16RevC.01  3-Jul-2019

 ----------------------------------------------------------------------
 #t hf aug-cc-pvdz iop(5/13=1,5/36=2,99/5=2) pseudo=read geom=check gue
 ss=(read,tcheck) scf=(maxcycle=1)
 ----------------------------------------------------------------------
 -----
 title
 -----
 Structure from the checkpoint file:  "BDE49_nonexpt_2654_mol1.chk"
 Charge =  0 Multiplicity = 1

                         Standard orientation:
 ---------------------------------------------------------------------
 Center     Atomic      Atomic             Coordinates (Angstroms)
 Number     Number       Type             X           Y           Z
 ---------------------------------------------------------------------
      1          9           0       -1.398163    0.813341    0.000003
      2         16           0       -0.538736   -0.604020   -0.000003
      3          6           0        1.032556   -0.000314    0.000001
      4          7           0        2.143987    0.335162    0.000003
 ---------------------------------------------------------------------

 SCF Done:  E(RHF) =  -589.474346086     A.U. after    2 cycles

 The electronic state is 1-A.
 Alpha  occ. eigenvalues --  -94.11752 -26.52315 -15.56763 -11.33627  -8.38876
 Alpha  occ. eigenvalues --   -6.36640  -6.36403  -6.36049  -1.62490  -1.27629
 Alpha  occ. eigenvalues --   -1.10553  -0.78357  -0.70591  -0.70050  -0.65906
 Alpha  occ. eigenvalues --   -0.59579  -0.58314  -0.54238  -0.43962
 Alpha virt. eigenvalues --    0.00570   0.05211   0.07251   0.09826   0.10985
 Alpha virt. eigenvalues --    0.11755   0.12883   0.13196   0.15111   0.17725
 Alpha virt. eigenvalues --    0.19705   0.22096   0.24149   0.25254   0.25718

 Mulliken charges:
               1
     1  F   -0.629135
     2  S    1.242680
     3  C   -1.071956
     4  N    0.458410
 Sum of Mulliken charges =  -0.00000

 Dipole moment (field-independent basis, Debye):
    X=             -2.5988    Y=             -1.8419    Z=             -0.0000  Tot=              3.1853

 Test job not archived.
 1\1\GINC-SE116\SP\RHF\Aug-CC-pVDZ\C1F1N1S1\OHZDE\09-Apr-2025\0\\#t hf
 aug-cc-pvdz iop(5/13=1,5/36=2,99/5=2) pseudo=read geom=check guess=(re
 ad,tcheck) scf=(maxcycle=1)\\title\\0,1\F,0,-1.398163,0.81334,0.000003
 \S,0,-0.538736,-0.60402,-0.000003\C,0,1.032556,-0.000314,0.000001\N,0,
 2.143987,0.335162,0.000003\\Version=ES64L-G16RevC.01\State=1-A\HF=-589
 .4743461\RMSD=1.196e-02\Dipole=-1.0224485,-0.7246518,-0.0000039\Quadru
 pole=-3.7525804,2.3839644,1.3686159,-0.3674636,-0.0000044,0.0000046\PG
 =C01 [X(C1F1N1S1)]\\@

 Normal termination of Gaussian 16 at Wed Apr  9 00:21:57 2025.
