 Gaussian 16, Revision C.01,

 ----------------------------------------------------------------------
 #t hf aug-cc-pvdz symm=none int=(grid=ultrafine) guess=(read,tcheck) s
 table=(opt,rrhf)
 ----------------------------------------------------------------------
 -----
 title
 -----
 Symbolic Z-matrix:
 Charge =  0 Multiplicity = 1

 SCF Done:  E(RHF) =  -494.762945287     A.U. after   14 cycles
 Normal termination of Gaussian 16 at Tue Apr  8 23:56:19 2025.
 Gaussian 16:  ES64L-G16RevC.01  3-Jul-2019

 ----------------------------------------------------------------------
 #t hf aug-cc-pvdz iop(5/13=1,5/36=2,99/5=2) pseudo=read geom=check gue
 ss=(read,tcheck) scf=(maxcycle=1)
 ----------------------------------------------------------------------
 -----
 title
 -----
 Structure from the checkpoint file:  "BDE49_nonexpt_2013_mol1.chk"
 Charge =  0 Multiplicity = 1

                         Standard orientation:
 ---------------------------------------------------------------------
 Center     Atomic      Atomic             Coordinates (Angstroms)
 Number     Number       Type             X           Y           Z
 ---------------------------------------------------------------------
      1          7           0        0.598314    0.006842   -0.000102
      2         14           0       -1.269060    0.026755   -0.000017
      3          8           0        1.226420    1.058588    0.000044
      4          8           0        1.097719   -1.115834    0.000075
      5          1           0       -1.709647    1.429705   -0.000002
      6          1           0       -1.652361   -0.697099    1.221803
      7          1           0       -1.652459   -0.697102   -1.221803
 ---------------------------------------------------------------------

 SCF Done:  E(RHF) =  -494.990819900     A.U. after    2 cycles

 The electronic state is 1-A.
 Alpha  occ. eigenvalues --  -69.60895 -20.59807 -20.59483 -15.76113  -6.27746
 Alpha  occ. eigenvalues --   -4.03177  -4.03027  -4.03023  -1.66040  -1.50317
 Alpha  occ. eigenvalues --   -1.00455  -0.83066  -0.74396  -0.73154  -0.71820
 Alpha  occ. eigenvalues --   -0.55379  -0.54466  -0.49031  -0.47217  -0.45033
 Alpha virt. eigenvalues --    0.02767   0.04286   0.04485   0.05354   0.05505
 Alpha virt. eigenvalues --    0.07777   0.08081   0.10501   0.13837   0.15201
 Alpha virt. eigenvalues --    0.16552   0.16838   0.16961   0.18456   0.22476

 Mulliken charges:
               1
     1  N    1.723317
     2  Si   0.959435
     3  O   -1.135225
     4  O   -1.157438
     5  H   -0.076072
     6  H   -0.157010
     7  H   -0.157007
 Sum of Mulliken charges =  -0.00000

 Dipole moment (field-independent basis, Debye):
    X=             -4.1900    Y=              0.2049    Z=             -0.0001  Tot=              4.1950

 Test job not archived.
 1\1\GINC-SE334\SP\RHF\Aug-CC-pVDZ\H3N1O2Si1\OHZDE\08-Apr-2025\0\\#t hf
  aug-cc-pvdz iop(5/13=1,5/36=2,99/5=2) pseudo=read geom=check guess=(r
 ead,tcheck) scf=(maxcycle=1)\\title\\0,1\N,0,0.598314,0.006842,-0.0001
 02\Si,0,-1.26906,0.026756,-0.000017\O,0,1.22642,1.058587,0.000044\O,0,
 1.097718,-1.115835,0.000075\H,0,-1.709646,1.429706,-0.000002\H,0,-1.65
 2361,-0.697098,1.221803\H,0,-1.652459,-0.697101,-1.221803\\Version=ES6
 4L-G16RevC.01\State=1-A\HF=-494.9908199\RMSD=1.450e-02\Dipole=-1.64845
 82,0.0806077,-0.0000571\Quadrupole=0.4531806,-1.7705827,1.3174021,-0.0

 Normal termination of Gaussian 16 at Tue Apr  8 23:56:21 2025.
