 Gaussian 16, Revision C.01,

 ----------------------------------------------------------------------
 #t hf aug-cc-pvdz symm=none int=(grid=ultrafine) guess=(read,tcheck) s
 table=(opt,rrhf)
 ----------------------------------------------------------------------
 -----
 title
 -----
 Symbolic Z-matrix:
 Charge =  0 Multiplicity = 1

 SCF Done:  E(RHF) =  -1234.44852459     A.U. after   18 cycles
 Normal termination of Gaussian 16 at Tue Apr  8 23:34:52 2025.
 Gaussian 16:  ES64L-G16RevC.01  3-Jul-2019

 ----------------------------------------------------------------------
 #t hf aug-cc-pvdz iop(5/13=1,5/36=2,99/5=2) pseudo=read geom=check gue
 ss=(read,tcheck) scf=(maxcycle=1)
 ----------------------------------------------------------------------
 -----
 title
 -----
 Structure from the checkpoint file:  "BDE49_nonexpt_1439_mol1.chk"
 Charge =  0 Multiplicity = 1

                         Standard orientation:
 ---------------------------------------------------------------------
 Center     Atomic      Atomic             Coordinates (Angstroms)
 Number     Number       Type             X           Y           Z
 ---------------------------------------------------------------------
      1          6           0        0.103251   -1.889785   -0.035418
      2          6           0        1.447302   -1.537621   -0.019331
      3          6           0        1.846965   -0.195590    0.010472
      4          6           0       -0.887261   -0.909592   -0.020277
      5          6           0       -0.493704    0.432849    0.000307
      6          6           0        0.853329    0.782904    0.004168
      7          1           0        2.194125   -2.323590   -0.043387
      8         15           0        3.658762    0.186848    0.004962
      9          1           0       -0.193034   -2.929818   -0.075200
     10          7           0       -1.461434    1.553258    0.035730
     11          8           0       -1.154850    2.561165   -0.586641
     12          8           0       -2.472302    1.411695    0.702059
     13         17           0       -2.546470   -1.421701   -0.105949
     14          1           0        1.098221    1.836460    0.000218
     15          1           0        3.789958    0.476542    1.389180
     16          1           0        3.547256    1.551918   -0.357083
 ---------------------------------------------------------------------

 SCF Done:  E(RHF) =  -1234.98993754     A.U. after    2 cycles

 The electronic state is 1-A.
 Alpha  occ. eigenvalues -- -105.59667 -84.30104 -20.60167 -20.59814 -15.80362
 Alpha  occ. eigenvalues --  -11.35735 -11.33834 -11.29871 -11.29415 -11.28961
 Alpha  occ. eigenvalues --  -11.28842 -10.64470  -7.81446  -7.81012  -7.81000
 Alpha  occ. eigenvalues --   -6.77158  -4.30049  -4.29490  -4.29131  -1.68107
 Alpha  occ. eigenvalues --   -1.51831  -1.23307  -1.13495  -1.12521  -1.03900
 Alpha  occ. eigenvalues --   -0.98955  -0.90739  -0.88018  -0.84525  -0.78254
 Alpha  occ. eigenvalues --   -0.75876  -0.75840  -0.71534  -0.69875  -0.66174
 Alpha  occ. eigenvalues --   -0.60488  -0.59241  -0.58244  -0.53864  -0.52144
 Alpha  occ. eigenvalues --   -0.51157  -0.50542  -0.49472  -0.47873  -0.45216
 Alpha  occ. eigenvalues --   -0.40177  -0.39309  -0.35843
 Alpha virt. eigenvalues --    0.02231   0.02813   0.03450   0.04578   0.05094
 Alpha virt. eigenvalues --    0.05709   0.06651   0.07756   0.08207   0.09124
 Alpha virt. eigenvalues --    0.09659   0.10712   0.10934   0.11759   0.12795

 Mulliken charges:
               1
     1  C    0.648597
     2  C   -0.552187
     3  C    0.598137
     4  C   -0.228529
     5  C    0.002291
     6  C    0.395526
     7  H   -0.244634
     8  P   -0.651279
     9  H   -0.176549
    10  N    2.663907
    11  O   -1.381715
    12  O   -1.361976
    13  Cl  -0.237938
    14  H   -0.246196
    15  H    0.453285
    16  H    0.319260
 Sum of Mulliken charges =  -0.00000

 Dipole moment (field-independent basis, Debye):
    X=              3.8200    Y=             -2.7236    Z=              0.2441  Tot=              4.6979

 Test job not archived.
 1\1\GINC-SE232\SP\RHF\Aug-CC-pVDZ\C6H5Cl1N1O2P1\OHZDE\08-Apr-2025\0\\#
 t hf aug-cc-pvdz iop(5/13=1,5/36=2,99/5=2) pseudo=read geom=check gues
 s=(read,tcheck) scf=(maxcycle=1)\\title\\0,1\C,0,0.103251,-1.889785,-0
 .035418\C,0,1.447302,-1.537621,-0.019331\C,0,1.846965,-0.19559,0.01047
 2\C,0,-0.887261,-0.909592,-0.020277\C,0,-0.493704,0.432849,0.000307\C,
 0,0.853329,0.782904,0.004168\H,0,2.194125,-2.32359,-0.043387\P,0,3.658
 762,0.186848,0.004962\H,0,-0.193034,-2.929818,-0.0752\N,0,-1.461434,1.
 553258,0.03573\O,0,-1.15485,2.561165,-0.586641\O,0,-2.472302,1.411695,

 Normal termination of Gaussian 16 at Tue Apr  8 23:35:03 2025.
