 Gaussian 16, Revision C.01,

 ----------------------------------------------------------------------
 #t hf aug-cc-pvdz symm=none int=(grid=ultrafine) guess=(read,tcheck) s
 table=(opt,rrhf)
 ----------------------------------------------------------------------
 -----
 title
 -----
 Symbolic Z-matrix:
 Charge =  0 Multiplicity = 1

 SCF Done:  E(RHF) =  -635.200568814     A.U. after   16 cycles
 Normal termination of Gaussian 16 at Wed Apr  9 00:55:06 2025.
 Gaussian 16:  ES64L-G16RevC.01  3-Jul-2019

 ----------------------------------------------------------------------
 #t hf aug-cc-pvdz iop(5/13=1,5/36=2,99/5=2) pseudo=read geom=check gue
 ss=(read,tcheck) scf=(maxcycle=1)
 ----------------------------------------------------------------------
 -----
 title
 -----
 Structure from the checkpoint file:  "BDE49_nonexpt_977_mol1.chk"
 Charge =  0 Multiplicity = 1

                         Standard orientation:
 ---------------------------------------------------------------------
 Center     Atomic      Atomic             Coordinates (Angstroms)
 Number     Number       Type             X           Y           Z
 ---------------------------------------------------------------------
      1          6           0        0.857337    0.150538   -0.084577
      2          6           0        1.309683   -1.175444   -0.132125
      3          1           0        0.603293   -1.982945   -0.239162
      4          6           0        2.674591   -1.424111   -0.029342
      5          1           0        3.019642   -2.451116   -0.062712
      6          6           0        3.589323   -0.383523    0.110473
      7          1           0        4.649673   -0.592226    0.186877
      8          6           0        3.125459    0.928065    0.148155
      9          1           0        3.822773    1.751044    0.254417
     10          6           0        1.765783    1.205381    0.050699
     11          1           0        1.412999    2.225393    0.080067
     12          7           0       -0.526514    0.435386   -0.203435
     13          9           0       -0.816023    1.803698   -0.122502
     14          6           0       -1.650850   -0.356711   -0.024421
     15          8           0       -1.586337   -1.560933    0.022113
     16          6           0       -2.959663    0.431529    0.060613
     17          9           0       -4.001826   -0.458496    0.158174
     18          1           0       -3.089891    1.049065   -0.831631
     19          1           0       -2.951525    1.079402    0.941380
 ---------------------------------------------------------------------

 SCF Done:  E(RHF) =  -635.818730886     A.U. after    2 cycles

 The electronic state is 1-A.
 Alpha  occ. eigenvalues --  -26.53194 -26.46813 -20.55333 -15.65062 -11.40526
 Alpha  occ. eigenvalues --  -11.35753 -11.31832 -11.25974 -11.25871 -11.25791
 Alpha  occ. eigenvalues --  -11.25436 -11.25123  -1.65031  -1.59455  -1.50244
 Alpha  occ. eigenvalues --   -1.25715  -1.16373  -1.06944  -1.03553  -1.00276
 Alpha  occ. eigenvalues --   -0.90756  -0.86086  -0.81295  -0.77885  -0.76460
 Alpha  occ. eigenvalues --   -0.75846  -0.71548  -0.71001  -0.69295  -0.68178
 Alpha  occ. eigenvalues --   -0.66084  -0.65049  -0.62618  -0.61394  -0.61198
 Alpha  occ. eigenvalues --   -0.57787  -0.55651  -0.54807  -0.52818  -0.52564
 Alpha  occ. eigenvalues --   -0.47811  -0.45943  -0.36257  -0.34437
 Alpha virt. eigenvalues --    0.03149   0.03397   0.03776   0.04855   0.05072
 Alpha virt. eigenvalues --    0.06022   0.06946   0.08564   0.09280   0.09397
 Alpha virt. eigenvalues --    0.10394   0.10823   0.11605   0.12191   0.12950

 Mulliken charges:
               1
     1  C   -1.241134
     2  C    0.125531
     3  H   -0.275280
     4  C    0.623892
     5  H   -0.222202
     6  C   -0.039527
     7  H   -0.219685
     8  C    0.436728
     9  H   -0.218411
    10  C    0.546612
    11  H   -0.236986
    12  N    1.663817
    13  F   -0.762322
    14  C    0.649558
    15  O   -1.319581
    16  C    0.795002
    17  F   -0.743608
    18  H    0.222144
    19  H    0.215451
 Sum of Mulliken charges =  -0.00000

 Dipole moment (field-independent basis, Debye):
    X=              2.0529    Y=              2.6465    Z=              0.0600  Tot=              3.3500

 Test job not archived.
 1\1\GINC-SE253\SP\RHF\Aug-CC-pVDZ\C8H7F2N1O1\OHZDE\09-Apr-2025\0\\#t h
 f aug-cc-pvdz iop(5/13=1,5/36=2,99/5=2) pseudo=read geom=check guess=(
 read,tcheck) scf=(maxcycle=1)\\title\\0,1\C,0,-0.857337,0.150538,0.084
 577\C,0,-1.309683,-1.175444,0.132125\H,0,-0.603293,-1.982945,0.239162\
 C,0,-2.674591,-1.424111,0.029342\H,0,-3.019642,-2.451116,0.062712\C,0,
 -3.589323,-0.383523,-0.110473\H,0,-4.649673,-0.592226,-0.186877\C,0,-3
 .125459,0.928065,-0.148155\H,0,-3.822773,1.751044,-0.254417\C,0,-1.765
 783,1.205381,-0.050699\H,0,-1.412999,2.225393,-0.080067\N,0,0.526514,0

 Normal termination of Gaussian 16 at Wed Apr  9 00:55:19 2025.
