 Gaussian 16, Revision C.01,

 ----------------------------------------------------------------------
 #t hf aug-cc-pvdz symm=none int=(grid=ultrafine) guess=(read,tcheck) s
 table=opt
 ----------------------------------------------------------------------
 -----
 title
 -----
 Symbolic Z-matrix:
 Charge =  0 Multiplicity = 2

 SCF Done:  E(UHF) =  -505.435787313     A.U. after   17 cycles
 Normal termination of Gaussian 16 at Wed Apr  9 00:35:33 2025.
 Gaussian 16:  ES64L-G16RevC.01  3-Jul-2019

 ----------------------------------------------------------------------
 #t hf aug-cc-pvdz iop(5/13=1,5/36=2,99/5=2) pseudo=read geom=check gue
 ss=(read,tcheck) scf=(maxcycle=1)
 ----------------------------------------------------------------------
 -----
 title
 -----
 Structure from the checkpoint file:  "BDE49_nonexpt_415_mol2.chk"
 Charge =  0 Multiplicity = 2

                         Standard orientation:
 ---------------------------------------------------------------------
 Center     Atomic      Atomic             Coordinates (Angstroms)
 Number     Number       Type             X           Y           Z
 ---------------------------------------------------------------------
      1          9           0        2.064165   -0.971807   -1.104169
      2          5           0        0.766370   -1.121645   -0.991859
      3          6           0       -0.153290   -0.075001   -0.159914
      4          8           0       -1.514341   -0.355072   -0.257096
      5          8           0        0.091750    1.148470   -0.778005
      6          8           0        0.150350   -0.057511    1.230695
      7          6           0       -1.931427   -1.592954    0.312073
      8          1           0       -2.978307   -1.716570    0.037425
      9          1           0       -1.828242   -1.583185    1.399050
     10          1           0       -1.350480   -2.427614   -0.101967
     11          6           0       -0.800255    2.223477   -0.430692
     12          1           0       -0.335468    3.126902   -0.823224
     13          1           0       -0.912274    2.301645    0.653020
     14          1           0       -1.778749    2.075117   -0.888876
     15          6           0        1.473110    0.338627    1.598092
     16          1           0        1.446250    0.514326    2.673062
     17          1           0        1.768791    1.255722    1.083131
     18          1           0        2.208246   -0.443855    1.383091
 ---------------------------------------------------------------------

 SCF Done:  E(UHF) =  -505.934603691     A.U. after    2 cycles

 The electronic state is 2-A.
 Alpha  occ. eigenvalues --  -26.49033 -20.56020 -20.55774 -20.55620 -11.39044
 Alpha  occ. eigenvalues --  -11.28660 -11.28629 -11.28263  -7.69128  -1.62329
 Alpha  occ. eigenvalues --   -1.54198  -1.44680  -1.44230  -0.99899  -0.94689
 Alpha  occ. eigenvalues --   -0.93818  -0.84327  -0.78320  -0.73072  -0.71998
 Alpha  occ. eigenvalues --   -0.71195  -0.67949  -0.67035  -0.63907  -0.62529
 Alpha  occ. eigenvalues --   -0.60704  -0.59374  -0.59004  -0.56693  -0.53207
 Alpha  occ. eigenvalues --   -0.50574  -0.48825  -0.45410  -0.44888  -0.44248
 Alpha  occ. eigenvalues --   -0.35334
 Alpha virt. eigenvalues --    0.03483   0.04043   0.04108   0.04232   0.05643
 Alpha virt. eigenvalues --    0.06164   0.06346   0.06750   0.06898   0.08765
 Alpha virt. eigenvalues --    0.09205   0.09710   0.10073   0.11049   0.13397

  Beta  occ. eigenvalues --  -26.48709 -20.56003 -20.55707 -20.55668 -11.38676
  Beta  occ. eigenvalues --  -11.28661 -11.28595 -11.28240  -7.67216  -1.61440
  Beta  occ. eigenvalues --   -1.54053  -1.44641  -1.44130  -0.99429  -0.94539
  Beta  occ. eigenvalues --   -0.93727  -0.82968  -0.77259  -0.72094  -0.71276
  Beta  occ. eigenvalues --   -0.70877  -0.67059  -0.65658  -0.63651  -0.62374
  Beta  occ. eigenvalues --   -0.60692  -0.59329  -0.58987  -0.55742  -0.53035
  Beta  occ. eigenvalues --   -0.50404  -0.48488  -0.44933  -0.44416  -0.42434
  Beta virt. eigenvalues --    0.03217   0.03883   0.04129   0.04175   0.05892
  Beta virt. eigenvalues --    0.06055   0.06372   0.06717   0.06888   0.08286
  Beta virt. eigenvalues --    0.08935   0.09580   0.09750   0.11584   0.12666

 Mulliken charges and spin densities:
               1          2
     1  F   -0.579353  -0.031186
     2  B    0.535435   1.049848
     3  C    3.508653  -0.036282
     4  O   -1.527351  -0.008962
     5  O   -1.687578   0.019018
     6  O   -1.649562   0.027795
     7  C    0.011160   0.009726
     8  H   -0.027039  -0.000444
     9  H    0.196894  -0.001638
    10  H    0.210661  -0.015817
    11  C    0.143806   0.002024
    12  H    0.001550  -0.001035
    13  H    0.188921  -0.001761
    14  H    0.173926  -0.000114
    15  C    0.202847  -0.009012
    16  H    0.002027  -0.000500
    17  H    0.181628   0.000202
    18  H    0.113373  -0.001862
 Sum of Mulliken charges =   0.00000   1.00000

 Dipole moment (field-independent basis, Debye):
    X=             -0.2095    Y=              0.1459    Z=              1.2649  Tot=              1.2904
                          Isotropic Fermi Contact Couplings
        Atom                 a.u.       MegaHertz       Gauss      10(-4) cm-1
     1  F(19)              0.06882     289.54776     103.31784      96.58274
     2  B(11)              0.33494     480.42079     171.42608     160.25113
     3  C(13)              0.08009      90.04119      32.12893      30.03451
     4  O(17)             -0.00405       2.45448       0.87582       0.81873
     5  O(17)              0.01440      -8.73147      -3.11560      -2.91250
     6  O(17)              0.00586      -3.55354      -1.26799      -1.18533
     7  C(13)              0.00462       5.18912       1.85161       1.73090
     8  H(1)              -0.00010      -0.44413      -0.15848      -0.14815

 Normal termination of Gaussian 16 at Wed Apr  9 00:35:43 2025.
