 Gaussian 16, Revision C.01,

 ----------------------------------------------------------------------
 #t hf aug-cc-pvdz symm=none int=(grid=ultrafine) guess=(read,tcheck) s
 table=(opt,rrhf)
 ----------------------------------------------------------------------
 -----
 title
 -----
 Symbolic Z-matrix:
 Charge =  0 Multiplicity = 1

 SCF Done:  E(RHF) =  -356.134851851     A.U. after   15 cycles
 Normal termination of Gaussian 16 at Wed Apr  9 00:37:54 2025.
 Gaussian 16:  ES64L-G16RevC.01  3-Jul-2019

 ----------------------------------------------------------------------
 #t hf aug-cc-pvdz iop(5/13=1,5/36=2,99/5=2) pseudo=read geom=check gue
 ss=(read,tcheck) scf=(maxcycle=1)
 ----------------------------------------------------------------------
 -----
 title
 -----
 Structure from the checkpoint file:  "BDE49_nonexpt_53_mol1.chk"
 Charge =  0 Multiplicity = 1

                         Standard orientation:
 ---------------------------------------------------------------------
 Center     Atomic      Atomic             Coordinates (Angstroms)
 Number     Number       Type             X           Y           Z
 ---------------------------------------------------------------------
      1          5           0       -2.587185   -0.389668   -0.056294
      2          5           0       -2.719056    1.060985    0.764913
      3          8           0       -1.435952   -1.007921   -0.451333
      4          6           0       -0.181967   -0.460729   -0.251256
      5          6           0        0.834986   -1.314993    0.168894
      6          6           0        0.076991    0.888031   -0.489475
      7          6           0        2.112735   -0.806374    0.378048
      8          6           0        2.380112    0.546153    0.163879
      9          6           0        1.361190    1.387864   -0.272292
     10          1           0        0.606478   -2.361121    0.331123
     11          1           0        2.902439   -1.469403    0.712550
     12          1           0        3.377359    0.937054    0.327106
     13          1           0        1.562471    2.436533   -0.458610
     14          1           0       -0.705811    1.531907   -0.875091
     15          1           0       -2.613353    1.122818    1.954403
     16          1           0       -3.033710    2.077173    0.218166
     17          1           0       -3.581326   -1.007890   -0.328863
 ---------------------------------------------------------------------

 SCF Done:  E(RHF) =  -356.497653851     A.U. after    2 cycles

 The electronic state is 1-A.
 Alpha  occ. eigenvalues --  -20.57621 -11.31612 -11.25759 -11.25626 -11.25156
 Alpha  occ. eigenvalues --  -11.24705 -11.24645  -7.60924  -7.58932  -1.49663
 Alpha  occ. eigenvalues --   -1.16126  -1.03109  -1.02060  -0.86434  -0.84814
 Alpha  occ. eigenvalues --   -0.77101  -0.73671  -0.68989  -0.67571  -0.63922
 Alpha  occ. eigenvalues --   -0.61745  -0.61244  -0.57383  -0.55570  -0.53513
 Alpha  occ. eigenvalues --   -0.51366  -0.50619  -0.48647  -0.42328  -0.35909
 Alpha  occ. eigenvalues --   -0.34028
 Alpha virt. eigenvalues --    0.03214   0.03341   0.03518   0.03913   0.04507
 Alpha virt. eigenvalues --    0.04737   0.05958   0.06724   0.07049   0.07482
 Alpha virt. eigenvalues --    0.08150   0.08538   0.10096   0.10460   0.11072

 Mulliken charges:
               1
     1  B    0.450819
     2  B   -0.916006
     3  O   -1.981240
     4  C    1.944265
     5  C   -0.153095
     6  C   -0.081336
     7  C    0.657913
     8  C    0.032988
     9  C    0.438898
    10  H   -0.260953
    11  H   -0.203954
    12  H   -0.217218
    13  H   -0.223174
    14  H   -0.310343
    15  H    0.355128
    16  H    0.353595
    17  H    0.113712
 Sum of Mulliken charges =  -0.00000

 Dipole moment (field-independent basis, Debye):
    X=              1.0605    Y=              0.6354    Z=              0.2982  Tot=              1.2718

 Test job not archived.
 1\1\GINC-SE126\SP\RHF\Aug-CC-pVDZ\C6H8B2O1\OHZDE\09-Apr-2025\0\\#t hf
 aug-cc-pvdz iop(5/13=1,5/36=2,99/5=2) pseudo=read geom=check guess=(re
 ad,tcheck) scf=(maxcycle=1)\\title\\0,1\B,0,-2.587185,-0.389668,-0.056
 294\B,0,-2.719056,1.060985,0.764913\O,0,-1.435952,-1.007921,-0.451333\
 C,0,-0.181967,-0.460729,-0.251256\C,0,0.834986,-1.314993,0.168894\C,0,
 0.076991,0.888031,-0.489475\C,0,2.112735,-0.806374,0.378048\C,0,2.3801
 12,0.546153,0.163879\C,0,1.36119,1.387864,-0.272292\H,0,0.606478,-2.36
 1121,0.331123\H,0,2.902439,-1.469403,0.71255\H,0,3.377359,0.937054,0.3

 Normal termination of Gaussian 16 at Wed Apr  9 00:38:02 2025.
