 Gaussian 16, Revision C.01,

 ----------------------------------------------------------------------
 #t hf aug-cc-pvdz symm=none int=(grid=ultrafine) guess=(read,tcheck) s
 table=opt
 ----------------------------------------------------------------------
 -----
 title
 -----
 Symbolic Z-matrix:
 Charge =  0 Multiplicity = 2

 SCF Done:  E(UHF) =  -690.714845500     A.U. after   19 cycles
 Normal termination of Gaussian 16 at Wed Apr  9 00:32:20 2025.
 Gaussian 16:  ES64L-G16RevC.01  3-Jul-2019

 ----------------------------------------------------------------------
 #t hf aug-cc-pvdz iop(5/13=1,5/36=2,99/5=2) pseudo=read geom=check gue
 ss=(read,tcheck) scf=(maxcycle=1)
 ----------------------------------------------------------------------
 -----
 title
 -----
 Structure from the checkpoint file:  "BDE49_nonexpt_375_mol2.chk"
 Charge =  0 Multiplicity = 2

                         Standard orientation:
 ---------------------------------------------------------------------
 Center     Atomic      Atomic             Coordinates (Angstroms)
 Number     Number       Type             X           Y           Z
 ---------------------------------------------------------------------
      1          9           0        2.483686    0.020158    0.084893
      2          5           0        1.384567   -0.450515    0.597887
      3         15           0       -0.396064   -0.100119   -0.088439
      4          8           0       -0.803054   -1.141973   -1.043800
      5          8           0       -1.373550    0.026161    1.191763
      6          1           0       -1.789804   -0.818750    1.403389
      7          8           0       -0.362620    1.432912   -0.551756
      8          1           0       -1.231459    1.854881   -0.599939
 ---------------------------------------------------------------------

 SCF Done:  E(UHF) =  -691.088715432     A.U. after    2 cycles

 The electronic state is 2-A.
 Alpha  occ. eigenvalues --  -84.43698 -26.51840 -20.60658 -20.60534 -20.51524
 Alpha  occ. eigenvalues --   -7.72867  -6.89096  -4.43139  -4.42431  -4.41612
 Alpha  occ. eigenvalues --   -1.65209  -1.54611  -1.48360  -1.39877  -0.89608
 Alpha  occ. eigenvalues --   -0.81398  -0.76296  -0.72651  -0.69687  -0.68922
 Alpha  occ. eigenvalues --   -0.66342  -0.61385  -0.58077  -0.56103  -0.52621
 Alpha  occ. eigenvalues --   -0.47396  -0.46726  -0.36989
 Alpha virt. eigenvalues --    0.03009   0.03729   0.04386   0.05071   0.06773
 Alpha virt. eigenvalues --    0.07806   0.09553   0.10261   0.12213   0.13091
 Alpha virt. eigenvalues --    0.15828   0.17874   0.19405   0.20654   0.21602

  Beta  occ. eigenvalues --  -84.43579 -26.51520 -20.60577 -20.60556 -20.51464
  Beta  occ. eigenvalues --   -7.70960  -6.88911  -4.43043  -4.42318  -4.41256
  Beta  occ. eigenvalues --   -1.64361  -1.54449  -1.48261  -1.39703  -0.88293
  Beta  occ. eigenvalues --   -0.80171  -0.75757  -0.70212  -0.69576  -0.67770
  Beta  occ. eigenvalues --   -0.65526  -0.60692  -0.57816  -0.56091  -0.51226
  Beta  occ. eigenvalues --   -0.46656  -0.45206
  Beta virt. eigenvalues --    0.02788   0.03421   0.04562   0.05132   0.06465
  Beta virt. eigenvalues --    0.07393   0.09258   0.10196   0.10786   0.12981
  Beta virt. eigenvalues --    0.14102   0.16031   0.18667   0.19926   0.21164

 Mulliken charges and spin densities:
               1          2
     1  F   -0.380978  -0.028866
     2  B    0.506446   0.972767
     3  P    3.110467   0.039371
     4  O   -1.417679   0.016605
     5  O   -1.239181  -0.001860
     6  H    0.364551  -0.000926
     7  O   -1.291703  -0.005360
     8  H    0.348078   0.008270
 Sum of Mulliken charges =  -0.00000   1.00000

 Dipole moment (field-independent basis, Debye):
    X=             -0.8882    Y=              1.4784    Z=              2.3198  Tot=              2.8907
                          Isotropic Fermi Contact Couplings
        Atom                 a.u.       MegaHertz       Gauss      10(-4) cm-1
     1  F(19)              0.05697     239.68771      85.52653      79.95121
     2  B(11)              0.30956     444.02575     158.43943     148.11105
     3  P(31)              0.19674     356.32288     127.14487     118.85652
     4  O(17)              0.00514      -3.11535      -1.11163      -1.03917
     5  O(17)             -0.00766       4.64634       1.65793       1.54985
     6  H(1)               0.00017       0.74834       0.26702       0.24962
     7  O(17)              0.04657     -28.22775     -10.07236      -9.41576
     8  H(1)               0.00340      15.21320       5.42845       5.07458

 Normal termination of Gaussian 16 at Wed Apr  9 00:32:24 2025.
