 Gaussian 16, Revision C.01,

 ----------------------------------------------------------------------
 #t hf aug-cc-pvdz symm=none int=(grid=ultrafine) guess=(read,tcheck) s
 table=(opt,rrhf)
 ----------------------------------------------------------------------
 -----
 title
 -----
 Symbolic Z-matrix:
 Charge =  0 Multiplicity = 1

 SCF Done:  E(RHF) =  -433.600743113     A.U. after   11 cycles
 Normal termination of Gaussian 16 at Wed Apr  9 00:46:45 2025.
 Gaussian 16:  ES64L-G16RevC.01  3-Jul-2019

 ----------------------------------------------------------------------
 #t hf aug-cc-pvdz iop(5/13=1,5/36=2,99/5=2) pseudo=read geom=check gue
 ss=(read,tcheck) scf=(maxcycle=1)
 ----------------------------------------------------------------------
 -----
 title
 -----
 Structure from the checkpoint file:  "BDE49_nonexpt_819_mol1.chk"
 Charge =  0 Multiplicity = 1

                         Standard orientation:
 ---------------------------------------------------------------------
 Center     Atomic      Atomic             Coordinates (Angstroms)
 Number     Number       Type             X           Y           Z
 ---------------------------------------------------------------------
      1          5           0        2.098674    0.000007    1.072158
      2         14           0        1.002024   -0.000035   -0.621438
      3          6           0       -0.887570   -0.000010   -0.399986
      4          6           0       -1.379142   -1.271039    0.316155
      5          1           0       -0.980285   -1.334541    1.334303
      6          1           0       -1.082366   -2.180574   -0.214165
      7          6           0       -1.379119    1.271077    0.316068
      8          1           0       -2.471932   -1.277427    0.396063
      9          1           0       -1.306668   -0.000042   -1.414967
     10          1           0       -2.471909    1.277490    0.395975
     11          1           0       -0.980261    1.334643    1.334211
     12          1           0       -1.082327    2.180570   -0.214316
     13          1           0        3.289264    0.000133    0.993639
     14          1           0        1.631904    0.000166    2.169909
     15          1           0        1.403917   -1.196202   -1.417319
     16          1           0        1.403939    1.196070   -1.417402
 ---------------------------------------------------------------------

 SCF Done:  E(RHF) =  -433.797005453     A.U. after    2 cycles

 The electronic state is 1-A.
 Alpha  occ. eigenvalues --  -69.50455 -11.22901 -11.22895 -11.22429  -7.60504
 Alpha  occ. eigenvalues --   -6.17758  -3.93112  -3.93077  -3.93048  -1.05860
 Alpha  occ. eigenvalues --   -0.93198  -0.81481  -0.74515  -0.65728  -0.62252
 Alpha  occ. eigenvalues --   -0.58816  -0.56935  -0.54356  -0.50230  -0.49301
 Alpha  occ. eigenvalues --   -0.48853  -0.46749  -0.42435  -0.40477
 Alpha virt. eigenvalues --    0.02778   0.03449   0.03676   0.04028   0.04841
 Alpha virt. eigenvalues --    0.05695   0.06028   0.06921   0.06973   0.08309
 Alpha virt. eigenvalues --    0.09001   0.09446   0.09521   0.10262   0.10675

 Mulliken charges:
               1
     1  B   -1.163613
     2  Si   0.724774
     3  C   -0.828807
     4  C   -0.225259
     5  H    0.168240
     6  H    0.139200
     7  C   -0.225264
     8  H    0.137317
     9  H    0.121391
    10  H    0.137318
    11  H    0.168237
    12  H    0.139204
    13  H    0.453962
    14  H    0.502525
    15  H   -0.124610
    16  H   -0.124615
 Sum of Mulliken charges =   0.00000

 Dipole moment (field-independent basis, Debye):
    X=             -0.6277    Y=             -0.0001    Z=              0.3256  Tot=              0.7071

 Test job not archived.
 1\1\GINC-SE125\SP\RHF\Aug-CC-pVDZ\C3H11B1Si1\OHZDE\09-Apr-2025\0\\#t h
 f aug-cc-pvdz iop(5/13=1,5/36=2,99/5=2) pseudo=read geom=check guess=(
 read,tcheck) scf=(maxcycle=1)\\title\\0,1\B,0,2.098674,0.000007,1.0721
 58\Si,0,1.002024,-0.000035,-0.621438\C,0,-0.88757,-0.00001,-0.399986\C
 ,0,-1.379142,-1.271039,0.316155\H,0,-0.980285,-1.334541,1.334303\H,0,-
 1.082366,-2.180574,-0.214165\C,0,-1.379119,1.271077,0.316068\H,0,-2.47
 1932,-1.277427,0.396063\H,0,-1.306668,-0.000042,-1.414967\H,0,-2.47190
 9,1.27749,0.395975\H,0,-0.980261,1.334643,1.334211\H,0,-1.082327,2.180

 Normal termination of Gaussian 16 at Wed Apr  9 00:46:51 2025.
