 Gaussian 16, Revision C.01,

 ----------------------------------------------------------------------
 #t hf aug-cc-pvdz symm=none int=(grid=ultrafine) guess=(read,tcheck) s
 table=(opt,rrhf)
 ----------------------------------------------------------------------
 -----
 title
 -----
 Symbolic Z-matrix:
 Charge =  0 Multiplicity = 1

 SCF Done:  E(RHF) =  -485.377241038     A.U. after   11 cycles

 1\1\GINC-SE187\Stability\RHF\Aug-CC-pVDZ\B1Cl1H2\OHZDE\09-Apr-2025\0\\
 #t hf aug-cc-pvdz symm=none int=(grid=ultrafine) guess=(read,tcheck) s
 table=(opt,rrhf)\\title\\0,1\H,0,0.,1.046247,-1.749563\B,0,0.,0.,-1.19
 3645\H,0,0.,-1.046247,-1.749563\Cl,0,0.,0.,0.556903\\Version=ES64L-G16
 RevC.01\HF=-485.377241\RMSD=3.337e-09\Dipole=0.,0.,-0.4265315\Quadrupo
 le=0.5053682,-0.7728478,0.2674796,0.,0.,0.\PG=Unknown\\@
 The archive entry for this job was punched.

 Normal termination of Gaussian 16 at Wed Apr  9 00:35:55 2025.
 Gaussian 16:  ES64L-G16RevC.01  3-Jul-2019

 ----------------------------------------------------------------------
 #t hf aug-cc-pvdz iop(5/13=1,5/36=2,99/5=2) pseudo=read geom=check gue
 ss=(read,tcheck) scf=(maxcycle=1)
 ----------------------------------------------------------------------
 -----
 title
 -----
 Structure from the checkpoint file:  "BDE49_nonexpt_520_mol1.chk"
 Charge =  0 Multiplicity = 1

                         Standard orientation:
 ---------------------------------------------------------------------
 Center     Atomic      Atomic             Coordinates (Angstroms)
 Number     Number       Type             X           Y           Z
 ---------------------------------------------------------------------
      1          1           0        0.000000    1.046247   -1.749563
      2          5           0        0.000000    0.000000   -1.193645
      3          1           0       -0.000000   -1.046247   -1.749563
      4         17           0        0.000000    0.000000    0.556903
 ---------------------------------------------------------------------

 SCF Done:  E(RHF) =  -485.480886287     A.U. after    2 cycles

 The electronic state is 1-A1.
 Alpha  occ. eigenvalues -- -105.57102 -10.62160  -7.79041  -7.78785  -7.78708
 Alpha  occ. eigenvalues --   -7.66615  -1.07776  -0.72213  -0.57606  -0.55245
 Alpha  occ. eigenvalues --   -0.49707  -0.44794
 Alpha virt. eigenvalues --    0.03506   0.04674   0.04916   0.05149   0.09223
 Alpha virt. eigenvalues --    0.10443   0.10621   0.14329   0.16936   0.18165
 Alpha virt. eigenvalues --    0.20831   0.23736   0.23858   0.29107   0.30293

 Mulliken charges:
               1
     1  H    0.161479
     2  B   -0.039249
     3  H    0.161479
     4  Cl  -0.283709
 Sum of Mulliken charges =  -0.00000

 Dipole moment (field-independent basis, Debye):
    X=             -0.0000    Y=             -0.0000    Z=             -1.0651  Tot=              1.0651

 Test job not archived.
 1\1\GINC-SE187\SP\RHF\Aug-CC-pVDZ\B1Cl1H2\OHZDE\09-Apr-2025\0\\#t hf a
 ug-cc-pvdz iop(5/13=1,5/36=2,99/5=2) pseudo=read geom=check guess=(rea
 d,tcheck) scf=(maxcycle=1)\\title\\0,1\H,0,0.,1.046247,-1.749563\B,0,0
 .,0.,-1.193645\H,0,0.,-1.046247,-1.749563\Cl,0,0.,0.,0.556903\\Version
 =ES64L-G16RevC.01\State=1-A1\HF=-485.4808863\RMSD=4.476e-03\Dipole=0.,
 0.,-0.4190528\Quadrupole=0.4553566,-0.7673373,0.3119806,0.,0.,0.\PG=C0
 2V [C2(B1Cl1),SGV(H2)]\\@

 Normal termination of Gaussian 16 at Wed Apr  9 00:35:57 2025.
