 Gaussian 16, Revision C.01,

 ----------------------------------------------------------------------
 #t hf aug-cc-pvdz symm=none int=(grid=ultrafine) guess=(read,tcheck) s
 table=(opt,rrhf)
 ----------------------------------------------------------------------
 -----
 title
 -----
 Symbolic Z-matrix:
 Charge =  0 Multiplicity = 1

 SCF Done:  E(RHF) =  -1075.16874798     A.U. after   12 cycles

 1\1\GINC-SE177\Stability\RHF\Aug-CC-pVDZ\C4H8Cl2\OHZDE\08-Apr-2025\0\\
 #t hf aug-cc-pvdz symm=none int=(grid=ultrafine) guess=(read,tcheck) s
 table=(opt,rrhf)\\title\\0,1\C,0,0.21467,1.556059,-0.197546\Cl,0,2.029
 181,1.624583,-0.388554\H,0,-0.106322,2.591473,-0.103385\H,0,-0.165631,
 1.154802,-1.135416\C,0,-0.21467,0.736338,1.009526\C,0,0.21467,-0.73633
 8,1.009526\H,0,-1.308148,0.796634,1.054232\H,0,0.165046,1.211733,1.918
 111\C,0,-0.21467,-1.556059,-0.197546\H,0,-0.165046,-1.211733,1.918111\
 H,0,1.308148,-0.796634,1.054232\Cl,0,-2.029181,-1.624583,-0.388554\H,0

 Normal termination of Gaussian 16 at Tue Apr  8 22:31:08 2025.
 Gaussian 16:  ES64L-G16RevC.01  3-Jul-2019

 ----------------------------------------------------------------------
 #t hf aug-cc-pvdz iop(5/13=1,5/36=2,99/5=2) pseudo=read geom=check gue
 ss=(read,tcheck) scf=(maxcycle=1)
 ----------------------------------------------------------------------
 -----
 title
 -----
 Structure from the checkpoint file:  "BDE49_expt_1032_mol1.chk"
 Charge =  0 Multiplicity = 1

                         Standard orientation:
 ---------------------------------------------------------------------
 Center     Atomic      Atomic             Coordinates (Angstroms)
 Number     Number       Type             X           Y           Z
 ---------------------------------------------------------------------
      1          6           0        0.214670    1.556059   -0.197546
      2         17           0        2.029181    1.624583   -0.388554
      3          1           0       -0.106322    2.591473   -0.103385
      4          1           0       -0.165631    1.154802   -1.135416
      5          6           0       -0.214670    0.736338    1.009526
      6          6           0        0.214670   -0.736338    1.009526
      7          1           0       -1.308148    0.796634    1.054232
      8          1           0        0.165046    1.211733    1.918111
      9          6           0       -0.214670   -1.556059   -0.197546
     10          1           0       -0.165046   -1.211733    1.918111
     11          1           0        1.308148   -0.796634    1.054232
     12         17           0       -2.029181   -1.624583   -0.388554
     13          1           0        0.106322   -2.591473   -0.103385
     14          1           0        0.165631   -1.154802   -1.135416
 ---------------------------------------------------------------------

 SCF Done:  E(RHF) =  -1075.49429489     A.U. after    2 cycles

 The electronic state is 1-A.
 Alpha  occ. eigenvalues -- -105.55660-105.55660 -11.31144 -11.31144 -11.25606
 Alpha  occ. eigenvalues --  -11.25584 -10.60459 -10.60459  -7.77392  -7.77390
 Alpha  occ. eigenvalues --   -7.77039  -7.77038  -7.77030  -7.77029  -1.14095
 Alpha  occ. eigenvalues --   -1.09914  -1.02652  -0.95605  -0.87586  -0.79446
 Alpha  occ. eigenvalues --   -0.68596  -0.66644  -0.61836  -0.60864  -0.58973
 Alpha  occ. eigenvalues --   -0.53744  -0.52437  -0.52279  -0.49452  -0.45219
 Alpha  occ. eigenvalues --   -0.44897  -0.44264  -0.44144
 Alpha virt. eigenvalues --    0.03562   0.03692   0.04177   0.05064   0.06135
 Alpha virt. eigenvalues --    0.06329   0.07212   0.08537   0.09445   0.10468
 Alpha virt. eigenvalues --    0.14020   0.14298   0.14407   0.14490   0.14856

 Mulliken charges:
               1
     1  C   -0.498436
     2  Cl  -0.100224
     3  H    0.206137
     4  H    0.274648
     5  C   -0.283501
     6  C   -0.283501
     7  H    0.240640
     8  H    0.160737
     9  C   -0.498436
    10  H    0.160737
    11  H    0.240640
    12  Cl  -0.100224
    13  H    0.206137
    14  H    0.274648
 Sum of Mulliken charges =  -0.00000

 Dipole moment (field-independent basis, Debye):
    X=              0.0000    Y=              0.0000    Z=              0.9179  Tot=              0.9179

 Test job not archived.
 1\1\GINC-SE177\SP\RHF\Aug-CC-pVDZ\C4H8Cl2\OHZDE\08-Apr-2025\0\\#t hf a
 ug-cc-pvdz iop(5/13=1,5/36=2,99/5=2) pseudo=read geom=check guess=(rea
 d,tcheck) scf=(maxcycle=1)\\title\\0,1\C,0,0.21467,1.556059,-0.197546\
 Cl,0,2.029181,1.624583,-0.388554\H,0,-0.106322,2.591473,-0.103385\H,0,
 -0.165631,1.154802,-1.135416\C,0,-0.21467,0.736338,1.009526\C,0,0.2146
 7,-0.736338,1.009526\H,0,-1.308148,0.796634,1.054232\H,0,0.165046,1.21
 1733,1.918111\C,0,-0.21467,-1.556059,-0.197546\H,0,-0.165046,-1.211733
 ,1.918111\H,0,1.308148,-0.796634,1.054232\Cl,0,-2.029181,-1.624583,-0.

 Normal termination of Gaussian 16 at Tue Apr  8 22:31:12 2025.
