 Gaussian 16, Revision C.01,

 ----------------------------------------------------------------------
 #t hf aug-cc-pvdz symm=none int=(grid=ultrafine) guess=(read,tcheck) s
 table=opt
 ----------------------------------------------------------------------
 -----
 title
 -----
 Symbolic Z-matrix:
 Charge =  0 Multiplicity = 2

 SCF Done:  E(UHF) =  -368.723225957     A.U. after   14 cycles

 1\1\GINC-SE088\Stability\UHF\Aug-CC-pVDZ\C2H7Si1\OHZDE\08-Apr-2025\0\\
 #t hf aug-cc-pvdz symm=none int=(grid=ultrafine) guess=(read,tcheck) s
 table=opt\\title\\0,2\Si,0,-0.036548,-0.590051,0.\C,0,-0.036548,0.4684
 15,1.563797\H,0,-0.024601,-0.155466,2.460912\H,0,-0.922381,1.107625,1.
 60852\H,0,0.848053,1.115673,1.591448\C,0,-0.036548,0.468415,-1.563797\
 H,0,-0.922381,1.107625,-1.60852\H,0,-0.024601,-0.155466,-2.460912\H,0,
 0.848053,1.115673,-1.591448\H,0,1.148119,-1.495928,0.\\Version=ES64L-G
 16RevC.01\HF=-368.723226\S2=0.753464\S2-1=0.\S2A=0.750006\RMSD=4.656e-

 Normal termination of Gaussian 16 at Tue Apr  8 22:44:42 2025.
 Gaussian 16:  ES64L-G16RevC.01  3-Jul-2019

 ----------------------------------------------------------------------
 #t hf aug-cc-pvdz iop(5/13=1,5/36=2,99/5=2) pseudo=read geom=check gue
 ss=(read,tcheck) scf=(maxcycle=1)
 ----------------------------------------------------------------------
 -----
 title
 -----
 Structure from the checkpoint file:  "BDE49_expt_1538_mol2.chk"
 Charge =  0 Multiplicity = 2

                         Standard orientation:
 ---------------------------------------------------------------------
 Center     Atomic      Atomic             Coordinates (Angstroms)
 Number     Number       Type             X           Y           Z
 ---------------------------------------------------------------------
      1         14           0       -0.036548   -0.590051    0.000000
      2          6           0       -0.036548    0.468415    1.563797
      3          1           0       -0.024601   -0.155466    2.460912
      4          1           0       -0.922381    1.107625    1.608520
      5          1           0        0.848053    1.115673    1.591448
      6          6           0       -0.036548    0.468415   -1.563797
      7          1           0       -0.922381    1.107625   -1.608520
      8          1           0       -0.024601   -0.155466   -2.460912
      9          1           0        0.848053    1.115673   -1.591448
     10          1           0        1.148119   -1.495928    0.000000
 ---------------------------------------------------------------------

 SCF Done:  E(UHF) =  -368.844876182     A.U. after    2 cycles

 The electronic state is 2-A'.
 Alpha  occ. eigenvalues --  -69.52461 -11.21948 -11.21946  -6.19552  -3.95489
 Alpha  occ. eigenvalues --   -3.94600  -3.94595  -0.96870  -0.93404  -0.68176
 Alpha  occ. eigenvalues --   -0.57729  -0.57422  -0.55565  -0.55445  -0.46192
 Alpha  occ. eigenvalues --   -0.45388  -0.31492
 Alpha virt. eigenvalues --    0.03612   0.04195   0.04583   0.04776   0.06991
 Alpha virt. eigenvalues --    0.07175   0.07741   0.08755   0.08971   0.09871
 Alpha virt. eigenvalues --    0.14803   0.15618   0.16284   0.16478   0.16581

  Beta  occ. eigenvalues --  -69.51919 -11.21894 -11.21891  -6.18731  -3.94236
  Beta  occ. eigenvalues --   -3.94229  -3.93380  -0.96052  -0.93084  -0.64240
  Beta  occ. eigenvalues --   -0.57330  -0.56362  -0.55343  -0.54892  -0.45321
  Beta  occ. eigenvalues --   -0.44599
  Beta virt. eigenvalues --    0.03081   0.04214   0.04287   0.04830   0.06370
  Beta virt. eigenvalues --    0.07016   0.07287   0.07750   0.09202   0.10024
  Beta virt. eigenvalues --    0.10293   0.15277   0.15853   0.16553   0.16990

 Mulliken charges and spin densities:
               1          2
     1  Si   1.344760   0.949416
     2  C   -0.681776   0.008770
     3  H   -0.011567  -0.006361
     4  H    0.063955  -0.001825
     5  H    0.068419   0.012169
     6  C   -0.681776   0.008770
     7  H    0.063955  -0.001825
     8  H   -0.011567  -0.006361
     9  H    0.068419   0.012169
    10  H   -0.222823   0.025078
 Sum of Mulliken charges =  -0.00000   1.00000

 Dipole moment (field-independent basis, Debye):
    X=              0.0648    Y=              0.8157    Z=             -0.0000  Tot=              0.8183
                          Isotropic Fermi Contact Couplings
        Atom                 a.u.       MegaHertz       Gauss      10(-4) cm-1
     1  Si(29)             0.56373    -501.00481    -178.77098    -167.11722
     2  C(13)              0.01378      15.48873       5.52676       5.16648
     3  H(1)               0.00015       0.66296       0.23656       0.22114
     4  H(1)               0.00040       1.76734       0.63063       0.58952
     5  H(1)               0.00945      42.22642      15.06744      14.08522
     6  C(13)              0.01378      15.48873       5.52676       5.16648
     7  H(1)               0.00040       1.76734       0.63063       0.58952
     8  H(1)               0.00015       0.66296       0.23656       0.22114

 Normal termination of Gaussian 16 at Tue Apr  8 22:44:45 2025.
