 Gaussian 16, Revision C.01,

 ----------------------------------------------------------------------
 #t hf aug-cc-pvdz symm=none int=(grid=ultrafine) guess=(read,tcheck) s
 table=(opt,rrhf)
 ----------------------------------------------------------------------
 -----
 title
 -----
 Symbolic Z-matrix:
 Charge =  0 Multiplicity = 1

 SCF Done:  E(RHF) =  -723.348324249     A.U. after   13 cycles
 Normal termination of Gaussian 16 at Tue Apr  8 23:25:59 2025.
 Gaussian 16:  ES64L-G16RevC.01  3-Jul-2019

 ----------------------------------------------------------------------
 #t hf aug-cc-pvdz iop(5/13=1,5/36=2,99/5=2) pseudo=read geom=check gue
 ss=(read,tcheck) scf=(maxcycle=1)
 ----------------------------------------------------------------------
 -----
 title
 -----
 Structure from the checkpoint file:  "BDE49_nonexpt_1268_mol1.chk"
 Charge =  0 Multiplicity = 1

                         Standard orientation:
 ---------------------------------------------------------------------
 Center     Atomic      Atomic             Coordinates (Angstroms)
 Number     Number       Type             X           Y           Z
 ---------------------------------------------------------------------
      1          6           0       -0.180516    0.782048   -0.089937
      2         15           0        1.397921   -0.059617    0.101252
      3          8           0        1.666945   -0.815736    1.335612
      4          8           0        2.438932    1.141295   -0.167349
      5          6           0       -1.385861   -0.158844    0.053955
      6          1           0       -0.204686    1.571752    0.667345
      7          6           0       -2.726858    0.573816   -0.071726
      8          1           0       -1.332302   -0.664780    1.023523
      9          1           0       -1.324124   -0.940767   -0.710082
     10          6           0       -3.930511   -0.361608    0.069440
     11          1           0       -2.770421    1.084589   -1.041088
     12          1           0       -2.781985    1.359781    0.690882
     13          1           0       -3.919848   -1.138398   -0.701246
     14          1           0       -4.872248    0.185591   -0.023277
     15          1           0       -3.930220   -0.861363    1.042843
     16          1           0       -0.173018    1.272873   -1.068584
     17          1           0        3.245982    1.025914    0.348773
     18          8           0        1.465240   -0.973558   -1.228303
     19          1           0        1.867581   -1.829431   -1.037945
 ---------------------------------------------------------------------

 SCF Done:  E(RHF) =  -723.793515264     A.U. after    2 cycles

 The electronic state is 1-A.
 Alpha  occ. eigenvalues --  -84.42074 -20.58675 -20.58576 -20.49893 -11.25269
 Alpha  occ. eigenvalues --  -11.24289 -11.23702 -11.22835  -6.87404  -4.41488
 Alpha  occ. eigenvalues --   -4.40898  -4.40222  -1.52491  -1.46936  -1.38109
 Alpha  occ. eigenvalues --   -1.09414  -1.01255  -0.90600  -0.82405  -0.80299
 Alpha  occ. eigenvalues --   -0.72440  -0.67751  -0.65761  -0.63918  -0.61989
 Alpha  occ. eigenvalues --   -0.60253  -0.59552  -0.56195  -0.54367  -0.53103
 Alpha  occ. eigenvalues --   -0.52194  -0.51367  -0.49351  -0.48272  -0.48022
 Alpha  occ. eigenvalues --   -0.45047  -0.43812
 Alpha virt. eigenvalues --    0.03558   0.03707   0.03890   0.04370   0.05315
 Alpha virt. eigenvalues --    0.05881   0.06619   0.07743   0.08348   0.09318
 Alpha virt. eigenvalues --    0.10100   0.10636   0.11189   0.12775   0.13934

 Mulliken charges:
               1
     1  C   -0.969925
     2  P    4.463762
     3  O   -1.529564
     4  O   -1.428779
     5  C   -0.233717
     6  H    0.088310
     7  C   -0.235142
     8  H    0.093595
     9  H    0.092509
    10  C   -0.397859
    11  H    0.116001
    12  H    0.113098
    13  H    0.164149
    14  H    0.118200
    15  H    0.164790
    16  H    0.084442
    17  H    0.355185
    18  O   -1.389213
    19  H    0.330155
 Sum of Mulliken charges =  -0.00000

 Dipole moment (field-independent basis, Debye):
    X=             -0.5052    Y=              0.7118    Z=             -1.4667  Tot=              1.7068

 Test job not archived.
 1\1\GINC-SE082\SP\RHF\Aug-CC-pVDZ\C4H11O3P1\OHZDE\08-Apr-2025\0\\#t hf
  aug-cc-pvdz iop(5/13=1,5/36=2,99/5=2) pseudo=read geom=check guess=(r
 ead,tcheck) scf=(maxcycle=1)\\title\\0,1\C,0,-0.180516,0.782048,-0.089
 937\P,0,1.397921,-0.059617,0.101252\O,0,1.666945,-0.815736,1.335612\O,
 0,2.438932,1.141295,-0.167349\C,0,-1.385861,-0.158844,0.053955\H,0,-0.
 204686,1.571752,0.667345\C,0,-2.726858,0.573816,-0.071726\H,0,-1.33230
 2,-0.66478,1.023523\H,0,-1.324124,-0.940767,-0.710082\C,0,-3.930511,-0
 .361608,0.06944\H,0,-2.770421,1.084589,-1.041088\H,0,-2.781985,1.35978

 Normal termination of Gaussian 16 at Tue Apr  8 23:26:08 2025.
