 Gaussian 16, Revision C.01,

 ----------------------------------------------------------------------
 #t hf aug-cc-pvdz symm=none int=(grid=ultrafine) guess=(read,tcheck) s
 table=(opt,rrhf)
 ----------------------------------------------------------------------
 -----
 title
 -----
 Symbolic Z-matrix:
 Charge =  0 Multiplicity = 1

 SCF Done:  E(RHF) =  -1292.38896591     A.U. after   16 cycles
 Normal termination of Gaussian 16 at Wed Apr  9 00:51:51 2025.
 Gaussian 16:  ES64L-G16RevC.01  3-Jul-2019

 ----------------------------------------------------------------------
 #t hf aug-cc-pvdz iop(5/13=1,5/36=2,99/5=2) pseudo=read geom=check gue
 ss=(read,tcheck) scf=(maxcycle=1)
 ----------------------------------------------------------------------
 -----
 title
 -----
 Structure from the checkpoint file:  "BDE49_nonexpt_943_mol1.chk"
 Charge =  0 Multiplicity = 1

                         Standard orientation:
 ---------------------------------------------------------------------
 Center     Atomic      Atomic             Coordinates (Angstroms)
 Number     Number       Type             X           Y           Z
 ---------------------------------------------------------------------
      1         17           0       -2.468168   -0.902460    0.032081
      2         17           0        2.846220   -0.145986    0.093382
      3          8           0        0.406749   -1.991149   -0.019560
      4          8           0       -1.712760    2.110760    0.035419
      5          7           0        1.202333    0.193512   -0.282466
      6          7           0       -0.973418   -0.095540    0.021355
      7          6           0        0.258631   -0.809908   -0.077508
      8          6           0        0.668955    1.525707   -0.025951
      9          1           0        0.926611    2.232512   -0.815749
     10          1           0        0.990561    1.924486    0.941748
     11          6           0       -0.843982    1.288181    0.010463
 ---------------------------------------------------------------------

 SCF Done:  E(RHF) =  -1292.90039137     A.U. after    2 cycles

 The electronic state is 1-A.
 Alpha  occ. eigenvalues -- -105.64226-105.64008 -20.57264 -20.56678 -15.63051
 Alpha  occ. eigenvalues --  -15.61937 -11.44652 -11.42129 -11.34140 -10.68616
 Alpha  occ. eigenvalues --  -10.68418  -7.85625  -7.85403  -7.85064  -7.85032
 Alpha  occ. eigenvalues --   -7.84887  -7.84850  -1.53380  -1.52110  -1.37535
 Alpha  occ. eigenvalues --   -1.29039  -1.12953  -1.05744  -1.04322  -0.91408
 Alpha  occ. eigenvalues --   -0.83989  -0.75980  -0.75337  -0.71176  -0.69178
 Alpha  occ. eigenvalues --   -0.67244  -0.66212  -0.65297  -0.62924  -0.54196
 Alpha  occ. eigenvalues --   -0.53950  -0.52427  -0.51433  -0.50491  -0.47180
 Alpha  occ. eigenvalues --   -0.45715  -0.44463
 Alpha virt. eigenvalues --    0.03070   0.04342   0.04600   0.06360   0.06905
 Alpha virt. eigenvalues --    0.08167   0.09310   0.10041   0.10419   0.10898
 Alpha virt. eigenvalues --    0.11389   0.11522   0.13337   0.14035   0.14529

 Mulliken charges:
               1
     1  Cl   0.233625
     2  Cl   0.147475
     3  O   -1.084501
     4  O   -1.229406
     5  N    0.418552
     6  N    0.509825
     7  C    0.325695
     8  C   -0.224802
     9  H    0.182323
    10  H    0.199877
    11  C    0.521336
 Sum of Mulliken charges =  -0.00000

 Dipole moment (field-independent basis, Debye):
    X=              1.7445    Y=              1.8342    Z=              0.2641  Tot=              2.5451

 Test job not archived.
 1\1\GINC-SE112\SP\RHF\Aug-CC-pVDZ\C3H2Cl2N2O2\OHZDE\09-Apr-2025\0\\#t
 hf aug-cc-pvdz iop(5/13=1,5/36=2,99/5=2) pseudo=read geom=check guess=
 (read,tcheck) scf=(maxcycle=1)\\title\\0,1\Cl,0,-2.468168,-0.90246,0.0
 32081\Cl,0,2.84622,-0.145986,0.093382\O,0,0.406749,-1.991149,-0.01956\
 O,0,-1.71276,2.11076,0.035419\N,0,1.202333,0.193512,-0.282466\N,0,-0.9
 73418,-0.09554,0.021355\C,0,0.258631,-0.809908,-0.077508\C,0,0.668955,
 1.525707,-0.025951\H,0,0.926611,2.232512,-0.815749\H,0,0.990561,1.9244
 86,0.941748\C,0,-0.843982,1.288181,0.010463\\Version=ES64L-G16RevC.01\

 Normal termination of Gaussian 16 at Wed Apr  9 00:51:57 2025.
