 Gaussian 16, Revision C.01,

 ----------------------------------------------------------------------
 #t hf aug-cc-pvdz symm=none int=(grid=ultrafine) guess=(read,tcheck) s
 table=opt
 ----------------------------------------------------------------------
 -----
 title
 -----
 Symbolic Z-matrix:
 Charge =  0 Multiplicity = 2

 SCF Done:  E(UHF) =  -827.712744749     A.U. after   14 cycles
 Normal termination of Gaussian 16 at Tue Apr  8 23:40:15 2025.
 Gaussian 16:  ES64L-G16RevC.01  3-Jul-2019

 ----------------------------------------------------------------------
 #t hf aug-cc-pvdz iop(5/13=1,5/36=2,99/5=2) pseudo=read geom=check gue
 ss=(read,tcheck) scf=(maxcycle=1)
 ----------------------------------------------------------------------
 -----
 title
 -----
 Structure from the checkpoint file:  "BDE49_nonexpt_1637_mol2.chk"
 Charge =  0 Multiplicity = 2

                         Standard orientation:
 ---------------------------------------------------------------------
 Center     Atomic      Atomic             Coordinates (Angstroms)
 Number     Number       Type             X           Y           Z
 ---------------------------------------------------------------------
      1         14           0       -0.483232    0.371685   -0.000000
      2          6           0        0.170055    1.194902    1.560556
      3          1           0       -0.192822    0.687505    2.456547
      4          1           0       -0.155728    2.238597    1.598418
      5          6           0        0.170055    1.194902   -1.560556
      6         17           0        0.170055   -1.631679    0.000000
      7          1           0       -0.155728    2.238597   -1.598418
      8          1           0       -0.192822    0.687505   -2.456547
      9          1           0        1.265374    1.171965   -1.570637
     10          1           0        1.265374    1.171965    1.570637
 ---------------------------------------------------------------------

 SCF Done:  E(UHF) =  -827.909515147     A.U. after    2 cycles

 The electronic state is 2-A'.
 Alpha  occ. eigenvalues -- -105.54681 -69.57461 -11.23342 -11.23340 -10.59650
 Alpha  occ. eigenvalues --   -7.76571  -7.76275  -7.76213  -6.24178  -3.99961
 Alpha  occ. eigenvalues --   -3.99247  -3.99073  -1.04726  -0.97530  -0.95019
 Alpha  occ. eigenvalues --   -0.68003  -0.59287  -0.58995  -0.57247  -0.56936
 Alpha  occ. eigenvalues --   -0.50898  -0.49702  -0.47798  -0.44250  -0.33356
 Alpha virt. eigenvalues --    0.03246   0.04275   0.04557   0.04969   0.06864
 Alpha virt. eigenvalues --    0.07140   0.07370   0.08043   0.09850   0.11256
 Alpha virt. eigenvalues --    0.14316   0.14992   0.15182   0.16100   0.16594

  Beta  occ. eigenvalues -- -105.54601 -69.56905 -11.23182 -11.23180 -10.59561
  Beta  occ. eigenvalues --   -7.76423  -7.76168  -7.76070  -6.23308  -3.98888
  Beta  occ. eigenvalues --   -3.98727  -3.97884  -1.03856  -0.96702  -0.94487
  Beta  occ. eigenvalues --   -0.64377  -0.58737  -0.58040  -0.57073  -0.56326
  Beta  occ. eigenvalues --   -0.49618  -0.49043  -0.46417  -0.43507
  Beta virt. eigenvalues --    0.02147   0.04362   0.04535   0.04673   0.05868
  Beta virt. eigenvalues --    0.06897   0.07382   0.07505   0.08332   0.10037
  Beta virt. eigenvalues --    0.12179   0.14506   0.15607   0.15924   0.16774

 Mulliken charges and spin densities:
               1          2
     1  Si   1.691901   0.860536
     2  C   -0.691831   0.057894
     3  H    0.021974  -0.008805
     4  H    0.052340  -0.002333
     5  C   -0.691831   0.057894
     6  Cl  -0.625739   0.027018
     7  H    0.052340  -0.002333
     8  H    0.021974  -0.008805
     9  H    0.084437   0.009467
    10  H    0.084437   0.009467
 Sum of Mulliken charges =  -0.00000   1.00000

 Dipole moment (field-independent basis, Debye):
    X=              0.0366    Y=              2.4981    Z=             -0.0000  Tot=              2.4984
                          Isotropic Fermi Contact Couplings
        Atom                 a.u.       MegaHertz       Gauss      10(-4) cm-1
     1  Si(29)             0.69767    -620.03789    -221.24494    -206.82238
     2  C(13)              0.03487      39.20389      13.98892      13.07701
     3  H(1)              -0.00038      -1.67816      -0.59881      -0.55977
     4  H(1)              -0.00099      -4.44031      -1.58441      -1.48113
     5  C(13)              0.03487      39.20389      13.98892      13.07701
     6  Cl(35)             0.05527      24.23595       8.64799       8.08424
     7  H(1)              -0.00099      -4.44031      -1.58441      -1.48113
     8  H(1)              -0.00038      -1.67816      -0.59881      -0.55977

 Normal termination of Gaussian 16 at Tue Apr  8 23:40:18 2025.
