 Gaussian 16, Revision C.01,

 ----------------------------------------------------------------------
 #t hf aug-cc-pvdz symm=none int=(grid=ultrafine) guess=(read,tcheck) s
 table=(opt,rrhf)
 ----------------------------------------------------------------------
 -----
 title
 -----
 Symbolic Z-matrix:
 Charge =  0 Multiplicity = 1

 SCF Done:  E(RHF) =  -749.956144466     A.U. after   18 cycles
 Normal termination of Gaussian 16 at Wed Apr  9 00:45:40 2025.
 Gaussian 16:  ES64L-G16RevC.01  3-Jul-2019

 ----------------------------------------------------------------------
 #t hf aug-cc-pvdz iop(5/13=1,5/36=2,99/5=2) pseudo=read geom=check gue
 ss=(read,tcheck) scf=(maxcycle=1)
 ----------------------------------------------------------------------
 -----
 title
 -----
 Structure from the checkpoint file:  "BDE49_nonexpt_683_mol1.chk"
 Charge =  0 Multiplicity = 1

                         Standard orientation:
 ---------------------------------------------------------------------
 Center     Atomic      Atomic             Coordinates (Angstroms)
 Number     Number       Type             X           Y           Z
 ---------------------------------------------------------------------
      1          6           0        0.466008   -1.564515   -0.236344
      2          6           0        1.708157   -2.147519   -0.163865
      3          6           0        2.859879   -1.356220    0.041554
      4          6           0        2.742472    0.006365    0.157387
      5          6           0        1.475693    0.642075    0.081988
      6          6           0        0.302318   -0.159429   -0.109429
      7          1           0       -0.404482   -2.186939   -0.403716
      8          1           0        1.806359   -3.222041   -0.268644
      9          1           0        3.834234   -1.827773    0.100570
     10          1           0        3.622747    0.623013    0.306171
     11          6           0       -0.974520    0.489582   -0.165706
     12          6           0       -1.042847    1.866201   -0.070170
     13          6           0        1.350623    2.051093    0.181974
     14          6           0        0.119251    2.649269    0.098217
     15          1           0        2.245945    2.647066    0.323242
     16          1           0        0.026176    3.726820    0.172387
     17          1           0       -2.005065    2.363751   -0.112772
     18          5           0       -3.089479   -1.394817    1.056439
     19         15           0       -2.513218   -0.469018   -0.437150
     20          1           0       -4.258757   -1.585633    1.166657
     21          1           0       -2.308130   -1.937589    1.767552
     22          1           0       -3.455575    0.547259   -0.670030
 ---------------------------------------------------------------------

 SCF Done:  E(RHF) =  -750.418047887     A.U. after    2 cycles

 The electronic state is 1-A.
 Alpha  occ. eigenvalues --  -84.26256 -11.26433 -11.25935 -11.25576 -11.25253
 Alpha  occ. eigenvalues --  -11.25017 -11.24915 -11.24898 -11.24831 -11.24769
 Alpha  occ. eigenvalues --  -11.24694  -7.60777  -6.73792  -4.26980  -4.26640
 Alpha  occ. eigenvalues --   -4.25786  -1.18468  -1.11851  -1.06240  -1.01617
 Alpha  occ. eigenvalues --   -0.99458  -0.89501  -0.86071  -0.85353  -0.80163
 Alpha  occ. eigenvalues --   -0.72255  -0.71489  -0.69928  -0.67221  -0.63633
 Alpha  occ. eigenvalues --   -0.62130  -0.60694  -0.58257  -0.56938  -0.55095
 Alpha  occ. eigenvalues --   -0.53520  -0.51576  -0.50793  -0.47787  -0.46746
 Alpha  occ. eigenvalues --   -0.45045  -0.40773  -0.33526  -0.33442  -0.28725
 Alpha virt. eigenvalues --    0.03021   0.03241   0.03519   0.04015   0.04220
 Alpha virt. eigenvalues --    0.04518   0.05654   0.05954   0.06395   0.07162
 Alpha virt. eigenvalues --    0.07758   0.08569   0.08731   0.09075   0.09556

 Mulliken charges:
               1
     1  C    0.077748
     2  C   -0.296706
     3  C   -0.175835
     4  C    0.287706
     5  C    0.998859
     6  C    1.560643
     7  H   -0.358091
     8  H   -0.254033
     9  H   -0.238372
    10  H   -0.314371
    11  C   -0.685927
    12  C    0.199925
    13  C    0.108609
    14  C   -0.198762
    15  H   -0.311600
    16  H   -0.242342
    17  H   -0.327978
    18  B   -0.496207
    19  P   -0.313908
    20  H    0.322347
    21  H    0.393475
    22  H    0.264821
 Sum of Mulliken charges =  -0.00000

 Dipole moment (field-independent basis, Debye):
    X=              0.7508    Y=              0.8921    Z=              0.1336  Tot=              1.1736

 Test job not archived.
 1\1\GINC-SE096\SP\RHF\Aug-CC-pVDZ\C10H10B1P1\OHZDE\09-Apr-2025\0\\#t h
 f aug-cc-pvdz iop(5/13=1,5/36=2,99/5=2) pseudo=read geom=check guess=(
 read,tcheck) scf=(maxcycle=1)\\title\\0,1\C,0,0.466008,-1.564515,-0.23
 6344\C,0,1.708157,-2.147519,-0.163865\C,0,2.859879,-1.35622,0.041554\C
 ,0,2.742472,0.006365,0.157387\C,0,1.475693,0.642075,0.081988\C,0,0.302
 318,-0.159429,-0.109429\H,0,-0.404482,-2.186939,-0.403716\H,0,1.806359
 ,-3.222041,-0.268644\H,0,3.834234,-1.827773,0.10057\H,0,3.622747,0.623
 013,0.306171\C,0,-0.97452,0.489582,-0.165706\C,0,-1.042847,1.866201,-0

 Normal termination of Gaussian 16 at Wed Apr  9 00:45:59 2025.
