 Gaussian 16, Revision C.01,

 ----------------------------------------------------------------------
 #t hf aug-cc-pvdz symm=none int=(grid=ultrafine) guess=(read,tcheck) s
 table=(opt,rrhf)
 ----------------------------------------------------------------------
 -----
 title
 -----
 Symbolic Z-matrix:
 Charge =  0 Multiplicity = 1

 SCF Done:  E(RHF) =  -510.413565053     A.U. after   14 cycles
 Normal termination of Gaussian 16 at Tue Apr  8 22:40:26 2025.
 Gaussian 16:  ES64L-G16RevC.01  3-Jul-2019

 ----------------------------------------------------------------------
 #t hf aug-cc-pvdz iop(5/13=1,5/36=2,99/5=2) pseudo=read geom=check gue
 ss=(read,tcheck) scf=(maxcycle=1)
 ----------------------------------------------------------------------
 -----
 title
 -----
 Structure from the checkpoint file:  "BDE49_expt_1326_mol1.chk"
 Charge =  0 Multiplicity = 1

                         Standard orientation:
 ---------------------------------------------------------------------
 Center     Atomic      Atomic             Coordinates (Angstroms)
 Number     Number       Type             X           Y           Z
 ---------------------------------------------------------------------
      1          6           0       -0.326926    0.196200    0.000000
      2          8           0        1.058274    0.337246    0.000000
      3          9           0       -0.764467    1.449517    0.000000
      4          9           0       -0.764467   -0.442032    1.078624
      5          9           0       -0.764467   -0.442032   -1.078624
      6          9           0        1.570663   -0.996028    0.000000
 ---------------------------------------------------------------------

 SCF Done:  E(RHF) =  -510.878411470     A.U. after    2 cycles

 The electronic state is 1-A'.
 Alpha  occ. eigenvalues --  -26.56625 -26.55397 -26.54714 -26.54710 -20.73820
 Alpha  occ. eigenvalues --  -11.61447  -1.78808  -1.71054  -1.66830  -1.66119
 Alpha  occ. eigenvalues --   -1.42952  -0.98705  -0.87339  -0.87272  -0.87113
 Alpha  occ. eigenvalues --   -0.76030  -0.74691  -0.71514  -0.71227  -0.68974
 Alpha  occ. eigenvalues --   -0.67533  -0.67153  -0.66073  -0.62250  -0.57491
 Alpha virt. eigenvalues --    0.07902   0.08722   0.09025   0.09481   0.12695
 Alpha virt. eigenvalues --    0.19485   0.21288   0.21870   0.22289   0.23118
 Alpha virt. eigenvalues --    0.28856   0.30059   0.30151   0.31570   0.32909

 Mulliken charges:
               1
     1  C    2.803174
     2  O   -0.504522
     3  F   -0.649428
     4  F   -0.633305
     5  F   -0.633305
     6  F   -0.382613
 Sum of Mulliken charges =  -0.00000

 Dipole moment (field-independent basis, Debye):
    X=             -0.3232    Y=              0.2206    Z=             -0.0000  Tot=              0.3913

 Test job not archived.
 1\1\GINC-SE059\SP\RHF\Aug-CC-pVDZ\C1F4O1\OHZDE\08-Apr-2025\0\\#t hf au
 g-cc-pvdz iop(5/13=1,5/36=2,99/5=2) pseudo=read geom=check guess=(read
 ,tcheck) scf=(maxcycle=1)\\title\\0,1\C,0,-0.326926,0.1962,0.\O,0,1.05
 8274,0.337246,0.\F,0,-0.764467,1.449517,0.\F,0,-0.764467,-0.442032,1.0
 78624\F,0,-0.764467,-0.442032,-1.078624\F,0,1.570663,-0.996028,0.\\Ver
 sion=ES64L-G16RevC.01\State=1-A'\HF=-510.8784115\RMSD=4.364e-03\Dipole
 =-0.1271737,0.0867813,0.\Quadrupole=-0.1624402,0.1593834,0.0030568,0.0
 004221,0.,0.\PG=CS [SG(C1F2O1),X(F2)]\\@

 Normal termination of Gaussian 16 at Tue Apr  8 22:40:28 2025.
