 Gaussian 16, Revision C.01,

 ----------------------------------------------------------------------
 #t hf aug-cc-pvdz symm=none int=(grid=ultrafine) guess=(read,tcheck) s
 table=(opt,rrhf)
 ----------------------------------------------------------------------
 -----
 title
 -----
 Symbolic Z-matrix:
 Charge =  0 Multiplicity = 1

 SCF Done:  E(RHF) =  -740.794055639     A.U. after   15 cycles
 Normal termination of Gaussian 16 at Tue Apr  8 23:39:11 2025.
 Gaussian 16:  ES64L-G16RevC.01  3-Jul-2019

 ----------------------------------------------------------------------
 #t hf aug-cc-pvdz iop(5/13=1,5/36=2,99/5=2) pseudo=read geom=check gue
 ss=(read,tcheck) scf=(maxcycle=1)
 ----------------------------------------------------------------------
 -----
 title
 -----
 Structure from the checkpoint file:  "BDE49_nonexpt_1594_mol1.chk"
 Charge =  0 Multiplicity = 1

                         Standard orientation:
 ---------------------------------------------------------------------
 Center     Atomic      Atomic             Coordinates (Angstroms)
 Number     Number       Type             X           Y           Z
 ---------------------------------------------------------------------
      1          9           0       -2.014989   -0.090673    0.018357
      2          8           0       -0.870299   -0.983272   -0.139715
      3         15           0        0.482673   -0.037740   -0.038290
      4          8           0        1.607037   -0.924335   -0.277454
      5          8           0        0.265014    1.147227   -1.048739
      6          1           0       -0.505799    1.699760   -0.864642
      7          8           0        0.360046    0.705148    1.360400
      8          1           0        0.506208    0.124254    2.117839
 ---------------------------------------------------------------------

 SCF Done:  E(RHF) =  -741.218894502     A.U. after    2 cycles

 The electronic state is 1-A.
 Alpha  occ. eigenvalues --  -84.49668 -26.55036 -20.71286 -20.63263 -20.63043
 Alpha  occ. eigenvalues --  -20.53952  -6.94605  -4.48822  -4.48054  -4.47852
 Alpha  occ. eigenvalues --   -1.69485  -1.57853  -1.51528  -1.44043  -1.38198
 Alpha  occ. eigenvalues --   -0.89504  -0.79741  -0.78413  -0.74012  -0.71434
 Alpha  occ. eigenvalues --   -0.67835  -0.64217  -0.61950  -0.60482  -0.58590
 Alpha  occ. eigenvalues --   -0.57181  -0.55402  -0.50159  -0.49395
 Alpha virt. eigenvalues --    0.02895   0.04185   0.08063   0.08563   0.10307
 Alpha virt. eigenvalues --    0.11394   0.12744   0.16730   0.18373   0.18670
 Alpha virt. eigenvalues --    0.19113   0.19755   0.22858   0.24431   0.25434

 Mulliken charges:
               1
     1  F   -0.409747
     2  O   -0.528186
     3  P    3.946987
     4  O   -1.309875
     5  O   -1.212783
     6  H    0.372133
     7  O   -1.225645
     8  H    0.367115
 Sum of Mulliken charges =  -0.00000

 Dipole moment (field-independent basis, Debye):
    X=             -1.9291    Y=              2.3507    Z=              2.1446  Tot=              3.7212

 Test job not archived.
 1\1\GINC-SE058\SP\RHF\Aug-CC-pVDZ\F1H2O4P1\OHZDE\08-Apr-2025\0\\#t hf
 aug-cc-pvdz iop(5/13=1,5/36=2,99/5=2) pseudo=read geom=check guess=(re
 ad,tcheck) scf=(maxcycle=1)\\title\\0,1\F,0,-2.014989,-0.090673,0.0183
 57\O,0,-0.870299,-0.983272,-0.139715\P,0,0.482673,-0.03774,-0.03829\O,
 0,1.607037,-0.924335,-0.277454\O,0,0.265014,1.147227,-1.048739\H,0,-0.
 505799,1.69976,-0.864642\O,0,0.360046,0.705148,1.3604\H,0,0.506208,0.1
 24254,2.117839\\Version=ES64L-G16RevC.01\State=1-A\HF=-741.2188945\RMS
 D=1.038e-02\Dipole=-0.7589811,0.9248546,0.8437638\Quadrupole=-4.192804

 Normal termination of Gaussian 16 at Tue Apr  8 23:39:14 2025.
