 Gaussian 16, Revision C.01,

 ----------------------------------------------------------------------
 #t hf aug-cc-pvdz symm=none int=(grid=ultrafine) guess=(read,tcheck) s
 table=(opt,rrhf)
 ----------------------------------------------------------------------
 -----
 title
 -----
 Symbolic Z-matrix:
 Charge =  0 Multiplicity = 1

 SCF Done:  E(RHF) =  -457.399929334     A.U. after   15 cycles
 Normal termination of Gaussian 16 at Tue Apr  8 22:43:41 2025.
 Gaussian 16:  ES64L-G16RevC.01  3-Jul-2019

 ----------------------------------------------------------------------
 #t hf aug-cc-pvdz iop(5/13=1,5/36=2,99/5=2) pseudo=read geom=check gue
 ss=(read,tcheck) scf=(maxcycle=1)
 ----------------------------------------------------------------------
 -----
 title
 -----
 Structure from the checkpoint file:  "BDE49_expt_1457_mol1.chk"
 Charge =  0 Multiplicity = 1

                         Standard orientation:
 ---------------------------------------------------------------------
 Center     Atomic      Atomic             Coordinates (Angstroms)
 Number     Number       Type             X           Y           Z
 ---------------------------------------------------------------------
      1          8           0       -1.081779   -0.614406   -0.347845
      2          6           0       -2.104410    0.164946    0.128063
      3          6           0        0.259233   -0.265672   -0.169619
      4          8           0       -1.955549    1.201619    0.710949
      5          6           0        0.745009    1.025749   -0.356938
      6          6           0        1.116705   -1.318354    0.135629
      7          6           0        2.481893   -1.077837    0.258843
      8          6           0        2.984680    0.209361    0.080231
      9          6           0        2.113869    1.252305   -0.227192
     10          1           0        2.497941    2.256169   -0.368241
     11          1           0        0.070135    1.837382   -0.584144
     12          1           0        3.150348   -1.897714    0.495367
     13          1           0        4.047303    0.398138    0.178393
     14          1           0        0.702946   -2.310818    0.265931
     15          6           0       -3.422423   -0.490742   -0.193592
     16          1           0       -3.480656   -1.465296    0.296424
     17          1           0       -3.502026   -0.660926   -1.269314
     18          1           0       -4.234708    0.146823    0.148204
 ---------------------------------------------------------------------

 SCF Done:  E(RHF) =  -457.862032927     A.U. after    2 cycles

 The electronic state is 1-A.
 Alpha  occ. eigenvalues --  -20.60324 -20.54427 -11.40253 -11.31300 -11.25844
 Alpha  occ. eigenvalues --  -11.25025 -11.24926 -11.24688 -11.24545 -11.24369
 Alpha  occ. eigenvalues --   -1.55339  -1.46783  -1.16032  -1.05283  -1.02609
 Alpha  occ. eigenvalues --   -1.00210  -0.87491  -0.84785  -0.78855  -0.71865
 Alpha  occ. eigenvalues --   -0.70232  -0.68885  -0.67400  -0.63826  -0.62885
 Alpha  occ. eigenvalues --   -0.60677  -0.58910  -0.57871  -0.56281  -0.53038
 Alpha  occ. eigenvalues --   -0.52153  -0.51066  -0.47625  -0.44884  -0.35189
 Alpha  occ. eigenvalues --   -0.33979
 Alpha virt. eigenvalues --    0.03316   0.03583   0.03912   0.04788   0.05004
 Alpha virt. eigenvalues --    0.05577   0.07270   0.07512   0.09500   0.10233
 Alpha virt. eigenvalues --    0.10340   0.11535   0.11779   0.12417   0.13636

 Mulliken charges:
               1
     1  O   -1.860294
     2  C    1.469257
     3  C    1.810577
     4  O   -1.156749
     5  C   -0.201148
     6  C   -0.081256
     7  C    0.614328
     8  C    0.035566
     9  C    0.549253
    10  H   -0.216309
    11  H   -0.319462
    12  H   -0.208518
    13  H   -0.216375
    14  H   -0.254632
    15  C   -0.638572
    16  H    0.255290
    17  H    0.233613
    18  H    0.185430
 Sum of Mulliken charges =  -0.00000

 Dipole moment (field-independent basis, Debye):
    X=             -0.2360    Y=             -1.5771    Z=             -0.9197  Tot=              1.8409

 Test job not archived.
 1\1\GINC-SE458\SP\RHF\Aug-CC-pVDZ\C8H8O2\OHZDE\08-Apr-2025\0\\#t hf au
 g-cc-pvdz iop(5/13=1,5/36=2,99/5=2) pseudo=read geom=check guess=(read
 ,tcheck) scf=(maxcycle=1)\\title\\0,1\O,0,1.081779,0.614406,-0.347845\
 C,0,2.10441,-0.164946,0.128063\C,0,-0.259233,0.265672,-0.169619\O,0,1.
 955549,-1.201619,0.710949\C,0,-0.745009,-1.025749,-0.356938\C,0,-1.116
 705,1.318354,0.135629\C,0,-2.481893,1.077837,0.258843\C,0,-2.98468,-0.
 209361,0.080231\C,0,-2.113869,-1.252305,-0.227192\H,0,-2.497941,-2.256
 169,-0.368241\H,0,-0.070135,-1.837382,-0.584144\H,0,-3.150348,1.897714

 Normal termination of Gaussian 16 at Tue Apr  8 22:43:50 2025.
