 Gaussian 16, Revision C.01,

 ----------------------------------------------------------------------
 #t hf aug-cc-pvdz symm=none int=(grid=ultrafine) guess=(read,tcheck) s
 table=(opt,rrhf)
 ----------------------------------------------------------------------
 -----
 title
 -----
 Symbolic Z-matrix:
 Charge =  0 Multiplicity = 1

 SCF Done:  E(RHF) =  -689.912350830     A.U. after   13 cycles
 Normal termination of Gaussian 16 at Tue Apr  8 22:40:39 2025.
 Gaussian 16:  ES64L-G16RevC.01  3-Jul-2019

 ----------------------------------------------------------------------
 #t hf aug-cc-pvdz iop(5/13=1,5/36=2,99/5=2) pseudo=read geom=check gue
 ss=(read,tcheck) scf=(maxcycle=1)
 ----------------------------------------------------------------------
 -----
 title
 -----
 Structure from the checkpoint file:  "BDE49_expt_1362_mol1.chk"
 Charge =  0 Multiplicity = 1

                         Standard orientation:
 ---------------------------------------------------------------------
 Center     Atomic      Atomic             Coordinates (Angstroms)
 Number     Number       Type             X           Y           Z
 ---------------------------------------------------------------------
      1          6           0       -1.667152    1.881641    0.000000
      2          8           0       -1.375617    0.553518    0.000000
      3          6           0        0.000000    0.185499    0.000000
      4          6           0        0.022549   -1.332997    0.000000
      5          6           0       -0.821739    2.911353    0.000000
      6          1           0       -2.742831    2.016598    0.000000
      7          1           0        0.254529    2.806270    0.000000
      8          1           0       -1.223983    3.915044    0.000000
      9          1           0        0.503026    0.580733    0.889389
     10          1           0        0.503026    0.580733   -0.889389
     11         17           0        1.730921   -1.925487    0.000000
     12          1           0       -0.458216   -1.733609   -0.889966
     13          1           0       -0.458216   -1.733609    0.889966
 ---------------------------------------------------------------------

 SCF Done:  E(RHF) =  -690.229638121     A.U. after    2 cycles

 The electronic state is 1-A'.
 Alpha  occ. eigenvalues -- -105.56312 -20.58607 -11.31329 -11.31284 -11.31276
 Alpha  occ. eigenvalues --  -11.23236 -10.61102  -7.78044  -7.77674  -7.77662
 Alpha  occ. eigenvalues --   -1.51004  -1.12293  -1.04302  -0.98446  -0.86809
 Alpha  occ. eigenvalues --   -0.79550  -0.70490  -0.70176  -0.67711  -0.60738
 Alpha  occ. eigenvalues --   -0.59606  -0.56648  -0.53946  -0.51908  -0.50851
 Alpha  occ. eigenvalues --   -0.45340  -0.45078  -0.36051
 Alpha virt. eigenvalues --    0.03569   0.03815   0.04583   0.04827   0.06068
 Alpha virt. eigenvalues --    0.07263   0.07692   0.09118   0.11562   0.12036
 Alpha virt. eigenvalues --    0.12843   0.12998   0.14299   0.14916   0.15683

 Mulliken charges:
               1
     1  C    1.090322
     2  O   -1.375292
     3  C    0.430401
     4  C   -0.584571
     5  C    0.011472
     6  H   -0.096594
     7  H   -0.050426
     8  H   -0.074335
     9  H    0.122083
    10  H    0.122083
    11  Cl  -0.066092
    12  H    0.235475
    13  H    0.235475
 Sum of Mulliken charges =   0.00000

 Dipole moment (field-independent basis, Debye):
    X=             -1.1932    Y=              0.9008    Z=              0.0000  Tot=              1.4951

 Test job not archived.
 1\1\GINC-SE455\SP\RHF\Aug-CC-pVDZ\C4H7Cl1O1\OHZDE\08-Apr-2025\0\\#t hf
  aug-cc-pvdz iop(5/13=1,5/36=2,99/5=2) pseudo=read geom=check guess=(r
 ead,tcheck) scf=(maxcycle=1)\\title\\0,1\C,0,-1.667153,1.88164,0.\O,0,
 -1.375617,0.553517,0.\C,0,0.,0.185499,0.\C,0,0.02255,-1.332997,0.\C,0,
 -0.821741,2.911352,0.\H,0,-2.742832,2.016596,0.\H,0,0.254527,2.80627,0
 .\H,0,-1.223985,3.915043,0.\H,0,0.503026,0.580733,0.889389\H,0,0.50302
 6,0.580733,-0.889389\Cl,0,1.730922,-1.925486,0.\H,0,-0.458215,-1.73360
 9,-0.889966\H,0,-0.458215,-1.733609,0.889966\\Version=ES64L-G16RevC.01

 Normal termination of Gaussian 16 at Tue Apr  8 22:40:43 2025.
