 Gaussian 16, Revision C.01,

 ----------------------------------------------------------------------
 #t hf aug-cc-pvdz symm=none int=(grid=ultrafine) guess=(read,tcheck) s
 table=(opt,rrhf)
 ----------------------------------------------------------------------
 -----
 title
 -----
 Symbolic Z-matrix:
 Charge =  0 Multiplicity = 1

 SCF Done:  E(RHF) =  -288.706796479     A.U. after   13 cycles
 Normal termination of Gaussian 16 at Tue Apr  8 23:08:42 2025.
 Gaussian 16:  ES64L-G16RevC.01  3-Jul-2019

 ----------------------------------------------------------------------
 #t hf aug-cc-pvdz iop(5/13=1,5/36=2,99/5=2) pseudo=read geom=check gue
 ss=(read,tcheck) scf=(maxcycle=1)
 ----------------------------------------------------------------------
 -----
 title
 -----
 Structure from the checkpoint file:  "BDE49_expt_618_mol1.chk"
 Charge =  0 Multiplicity = 1

                         Standard orientation:
 ---------------------------------------------------------------------
 Center     Atomic      Atomic             Coordinates (Angstroms)
 Number     Number       Type             X           Y           Z
 ---------------------------------------------------------------------
      1          6           0        0.633827    0.523396    0.267894
      2          8           0       -0.578265    0.590841   -0.386752
      3          8           0       -1.459039   -0.397678    0.209911
      4          1           0       -1.319592   -1.147064   -0.387702
      5          9           0        1.348478   -0.602455   -0.121658
      6          1           0        1.176730    1.413043   -0.060063
      7          1           0        0.502021    0.470435    1.350047
 ---------------------------------------------------------------------

 SCF Done:  E(RHF) =  -288.984905989     A.U. after    2 cycles

 The electronic state is 1-A.
 Alpha  occ. eigenvalues --  -26.46535 -20.64138 -20.63552 -11.39016  -1.62816
 Alpha  occ. eigenvalues --   -1.57490  -1.32477  -0.93497  -0.76577  -0.73879
 Alpha  occ. eigenvalues --   -0.71722  -0.68183  -0.61005  -0.59348  -0.54053
 Alpha  occ. eigenvalues --   -0.50447  -0.49534
 Alpha virt. eigenvalues --    0.03916   0.04638   0.05487   0.09175   0.11143
 Alpha virt. eigenvalues --    0.15259   0.15947   0.17188   0.18857   0.21216
 Alpha virt. eigenvalues --    0.21890   0.23733   0.26012   0.27829   0.28673

 Mulliken charges:
               1
     1  C    1.219914
     2  O   -0.690420
     3  O   -0.461871
     4  H    0.392267
     5  F   -0.679331
     6  H    0.084462
     7  H    0.134979
 Sum of Mulliken charges =  -0.00000

 Dipole moment (field-independent basis, Debye):
    X=              0.5050    Y=              0.1113    Z=              0.2988  Tot=              0.5973

 Test job not archived.
 1\1\GINC-SE404\SP\RHF\Aug-CC-pVDZ\C1H3F1O2\OHZDE\08-Apr-2025\0\\#t hf
 aug-cc-pvdz iop(5/13=1,5/36=2,99/5=2) pseudo=read geom=check guess=(re
 ad,tcheck) scf=(maxcycle=1)\\title\\0,1\C,0,0.633827,0.523396,0.267894
 \O,0,-0.578265,0.590841,-0.386752\O,0,-1.459039,-0.397678,0.209911\H,0
 ,-1.319592,-1.147064,-0.387702\F,0,1.348478,-0.602455,-0.121658\H,0,1.
 17673,1.413043,-0.060063\H,0,0.502021,0.470435,1.350047\\Version=ES64L
 -G16RevC.01\State=1-A\HF=-288.984906\RMSD=6.808e-03\Dipole=0.198698,0.
 0437985,0.1175375\Quadrupole=-2.0240393,1.7414416,0.2825976,3.5255666,

 Normal termination of Gaussian 16 at Tue Apr  8 23:08:44 2025.
