 Gaussian 16, Revision C.01,

 ----------------------------------------------------------------------
 #t hf aug-cc-pvdz symm=none int=(grid=ultrafine) guess=(read,tcheck) s
 table=(opt,rrhf)
 ----------------------------------------------------------------------
 -----
 title
 -----
 Symbolic Z-matrix:
 Charge =  0 Multiplicity = 1

 SCF Done:  E(RHF) =  -436.369506853     A.U. after   17 cycles
 Normal termination of Gaussian 16 at Tue Apr  8 22:42:49 2025.
 Gaussian 16:  ES64L-G16RevC.01  3-Jul-2019

 ----------------------------------------------------------------------
 #t hf aug-cc-pvdz iop(5/13=1,5/36=2,99/5=2) pseudo=read geom=check gue
 ss=(read,tcheck) scf=(maxcycle=1)
 ----------------------------------------------------------------------
 -----
 title
 -----
 Structure from the checkpoint file:  "BDE49_expt_1420_mol1.chk"
 Charge =  0 Multiplicity = 1

                         Standard orientation:
 ---------------------------------------------------------------------
 Center     Atomic      Atomic             Coordinates (Angstroms)
 Number     Number       Type             X           Y           Z
 ---------------------------------------------------------------------
      1          6           0       -1.545306   -0.026068   -0.000000
      2          6           0       -0.966511    1.255968   -0.000000
      3          6           0        0.407027    1.401311   -0.000000
      4          6           0       -0.711530   -1.149396   -0.000000
      5          6           0        0.671697   -1.008249   -0.000000
      6          6           0        1.239284    0.271386   -0.000000
      7          1           0       -1.150010   -2.139661   -0.000000
      8          1           0        1.292042   -1.893660   -0.000000
      9          8           0        2.570353    0.523616   -0.000000
     10          6           0        3.478598   -0.572722    0.000001
     11          1           0        4.473219   -0.131233    0.000001
     12          1           0        3.356661   -1.191993   -0.894884
     13          1           0        3.356661   -1.191993    0.894885
     14          1           0       -1.605106    2.130534   -0.000000
     15          1           0        0.868788    2.380646   -0.000000
     16          6           0       -2.965285   -0.178887   -0.000000
     17          7           0       -4.114703   -0.301660   -0.000000
 ---------------------------------------------------------------------

 SCF Done:  E(RHF) =  -436.807744330     A.U. after    2 cycles

 The electronic state is 1-A.
 Alpha  occ. eigenvalues --  -20.59705 -15.50889 -11.33964 -11.31470 -11.28483
 Alpha  occ. eigenvalues --  -11.28361 -11.28079 -11.27945 -11.26426 -11.25977
 Alpha  occ. eigenvalues --   -1.52279  -1.23028  -1.18249  -1.06428  -1.05233
 Alpha  occ. eigenvalues --   -0.97833  -0.88230  -0.86570  -0.77909  -0.73829
 Alpha  occ. eigenvalues --   -0.71009  -0.67799  -0.65810  -0.63213  -0.61745
 Alpha  occ. eigenvalues --   -0.61255  -0.58128  -0.57069  -0.55576  -0.53329
 Alpha  occ. eigenvalues --   -0.51561  -0.49443  -0.47878  -0.37894  -0.34454
 Alpha virt. eigenvalues --    0.02543   0.03141   0.03688   0.04493   0.05494
 Alpha virt. eigenvalues --    0.05634   0.06902   0.07965   0.08316   0.08718
 Alpha virt. eigenvalues --    0.10086   0.10351   0.11376   0.12028   0.12880

 Mulliken charges:
               1
     1  C    2.434477
     2  C    0.376480
     3  C    0.238190
     4  C    0.172107
     5  C    0.170565
     6  C    1.300771
     7  H   -0.301361
     8  H   -0.399544
     9  O   -1.848541
    10  C    0.093567
    11  H   -0.031155
    12  H    0.183903
    13  H    0.183901
    14  H   -0.297552
    15  H   -0.285901
    16  C   -3.032730
    17  N    1.042821
 Sum of Mulliken charges =  -0.00000

 Dipole moment (field-independent basis, Debye):
    X=              6.7192    Y=             -0.6356    Z=              0.0000  Tot=              6.7492

 Test job not archived.
 1\1\GINC-SE072\SP\RHF\Aug-CC-pVDZ\C8H7N1O1\OHZDE\08-Apr-2025\0\\#t hf
 aug-cc-pvdz iop(5/13=1,5/36=2,99/5=2) pseudo=read geom=check guess=(re
 ad,tcheck) scf=(maxcycle=1)\\title\\0,1\C,0,-1.545306,-0.026068,0.\C,0
 ,-0.966511,1.255968,0.\C,0,0.407027,1.401311,0.\C,0,-0.71153,-1.149396
 ,0.\C,0,0.671697,-1.008249,0.\C,0,1.239284,0.271386,0.\H,0,-1.15001,-2
 .139661,0.\H,0,1.292042,-1.89366,0.\O,0,2.570353,0.523616,0.\C,0,3.478
 598,-0.572722,0.000001\H,0,4.473219,-0.131233,0.000001\H,0,3.356661,-1
 .191993,-0.894884\H,0,3.356661,-1.191993,0.894885\H,0,-1.605106,2.1305

 Normal termination of Gaussian 16 at Tue Apr  8 22:42:57 2025.
