 Gaussian 16, Revision C.01,

 ----------------------------------------------------------------------
 #t hf aug-cc-pvdz symm=none int=(grid=ultrafine) guess=(read,tcheck) s
 table=(opt,rrhf)
 ----------------------------------------------------------------------
 -----
 title
 -----
 Symbolic Z-matrix:
 Charge =  0 Multiplicity = 1

 SCF Done:  E(RHF) =  -803.398874385     A.U. after   15 cycles
 Normal termination of Gaussian 16 at Wed Apr  9 00:24:03 2025.
 Gaussian 16:  ES64L-G16RevC.01  3-Jul-2019

 ----------------------------------------------------------------------
 #t hf aug-cc-pvdz iop(5/13=1,5/36=2,99/5=2) pseudo=read geom=check gue
 ss=(read,tcheck) scf=(maxcycle=1)
 ----------------------------------------------------------------------
 -----
 title
 -----
 Structure from the checkpoint file:  "BDE49_nonexpt_2679_mol1.chk"
 Charge =  0 Multiplicity = 1

                         Standard orientation:
 ---------------------------------------------------------------------
 Center     Atomic      Atomic             Coordinates (Angstroms)
 Number     Number       Type             X           Y           Z
 ---------------------------------------------------------------------
      1          9           0        2.405173   -0.191014    0.299181
      2         16           0        1.227329   -0.517672   -0.851254
      3          6           0       -0.259311   -0.194887    0.226151
      4          8           0       -1.223295   -0.312930   -0.797698
      5          8           0       -0.261625    1.048993    0.839317
      6          6           0       -2.589493   -0.399649   -0.383702
      7          1           0       -3.183238   -0.303806   -1.291494
      8          1           0       -2.841541    0.412063    0.304368
      9          1           0       -2.806618   -1.362953    0.087565
     10          6           0       -0.048984    2.199488    0.012803
     11          1           0       -0.377475    3.052418    0.605455
     12          1           0       -0.632287    2.139719   -0.908086
     13          1           0        1.011290    2.304678   -0.226787
     14          6           0       -0.350791   -1.225137    1.340561
     15          1           0       -0.502809   -2.220542    0.923421
     16          1           0       -1.164430   -0.973848    2.024226
     17          1           0        0.584125   -1.213249    1.900929
 ---------------------------------------------------------------------

 SCF Done:  E(RHF) =  -803.864686398     A.U. after    2 cycles

 The electronic state is 1-A.
 Alpha  occ. eigenvalues --  -94.02312 -26.45884 -20.57546 -20.56859 -11.39513
 Alpha  occ. eigenvalues --  -11.30140 -11.28751 -11.24206  -8.29638  -6.27426
 Alpha  occ. eigenvalues --   -6.27093  -6.26830  -1.55787  -1.52609  -1.45842
 Alpha  occ. eigenvalues --   -1.07295  -0.99404  -0.94693  -0.93330  -0.79840
 Alpha  occ. eigenvalues --   -0.71716  -0.70742  -0.68660  -0.65048  -0.63751
 Alpha  occ. eigenvalues --   -0.62837  -0.61584  -0.60299  -0.59507  -0.56847
 Alpha  occ. eigenvalues --   -0.55325  -0.53949  -0.52117  -0.46661  -0.45911
 Alpha  occ. eigenvalues --   -0.43052  -0.37948
 Alpha virt. eigenvalues --    0.03252   0.03986   0.04137   0.05088   0.06156
 Alpha virt. eigenvalues --    0.06521   0.06831   0.07340   0.08153   0.09828
 Alpha virt. eigenvalues --    0.09988   0.11206   0.12914   0.13937   0.14630

 Mulliken charges:
               1
     1  F   -0.719103
     2  S    0.900797
     3  C    1.629396
     4  O   -1.447087
     5  O   -1.557390
     6  C    0.229380
     7  H   -0.005158
     8  H    0.195153
     9  H    0.156139
    10  C    0.101422
    11  H    0.008813
    12  H    0.197267
    13  H    0.155387
    14  C   -0.424609
    15  H    0.219983
    16  H    0.207258
    17  H    0.152352
 Sum of Mulliken charges =  -0.00000

 Dipole moment (field-independent basis, Debye):
    X=             -3.1055    Y=              0.2975    Z=              0.2276  Tot=              3.1281

 Test job not archived.
 1\1\GINC-SE105\SP\RHF\Aug-CC-pVDZ\C4H9F1O2S1\OHZDE\09-Apr-2025\0\\#t h
 f aug-cc-pvdz iop(5/13=1,5/36=2,99/5=2) pseudo=read geom=check guess=(
 read,tcheck) scf=(maxcycle=1)\\title\\0,1\F,0,2.405173,-0.191014,0.299
 181\S,0,1.227329,-0.517672,-0.851254\C,0,-0.259311,-0.194887,0.226151\
 O,0,-1.223295,-0.31293,-0.797698\O,0,-0.261625,1.048993,0.839317\C,0,-
 2.589493,-0.399649,-0.383702\H,0,-3.183238,-0.303806,-1.291494\H,0,-2.
 841541,0.412063,0.304368\H,0,-2.806618,-1.362953,0.087565\C,0,-0.04898
 4,2.199488,0.012803\H,0,-0.377475,3.052418,0.605455\H,0,-0.632287,2.13

 Normal termination of Gaussian 16 at Wed Apr  9 00:24:11 2025.
