 Gaussian 16, Revision C.01,

 ----------------------------------------------------------------------
 #t hf aug-cc-pvdz symm=none int=(grid=ultrafine) guess=(read,tcheck) s
 table=(opt,rrhf)
 ----------------------------------------------------------------------
 -----
 title
 -----
 Symbolic Z-matrix:
 Charge =  0 Multiplicity = 1

 SCF Done:  E(RHF) =  -435.346120266     A.U. after   13 cycles
 Normal termination of Gaussian 16 at Tue Apr  8 23:30:58 2025.
 Gaussian 16:  ES64L-G16RevC.01  3-Jul-2019

 ----------------------------------------------------------------------
 #t hf aug-cc-pvdz iop(5/13=1,5/36=2,99/5=2) pseudo=read geom=check gue
 ss=(read,tcheck) scf=(maxcycle=1)
 ----------------------------------------------------------------------
 -----
 title
 -----
 Structure from the checkpoint file:  "BDE49_nonexpt_1398_mol1.chk"
 Charge =  0 Multiplicity = 1

                         Standard orientation:
 ---------------------------------------------------------------------
 Center     Atomic      Atomic             Coordinates (Angstroms)
 Number     Number       Type             X           Y           Z
 ---------------------------------------------------------------------
      1         15           0        0.845998   -0.050361   -0.116373
      2          7           0       -0.709392    0.797457    0.189139
      3          6           0       -0.898368   -0.630647   -0.017542
      4          1           0       -1.222955   -1.174772    0.862957
      5          1           0       -1.335901   -0.978284   -0.950324
      6          1           0       -0.964251    1.329999   -0.639411
      7          1           0        1.189085   -0.219834    1.253650
 ---------------------------------------------------------------------

 SCF Done:  E(RHF) =  -435.490400898     A.U. after    2 cycles

 The electronic state is 1-A.
 Alpha  occ. eigenvalues --  -84.29253 -15.51581 -11.28323  -6.76172  -4.28865
 Alpha  occ. eigenvalues --   -4.27858  -4.27843  -1.22860  -0.89693  -0.80643
 Alpha  occ. eigenvalues --   -0.68176  -0.63158  -0.51473  -0.50044  -0.38403
 Alpha  occ. eigenvalues --   -0.37105
 Alpha virt. eigenvalues --    0.03780   0.04982   0.05171   0.05823   0.08117
 Alpha virt. eigenvalues --    0.08926   0.10222   0.10953   0.14873   0.16008
 Alpha virt. eigenvalues --    0.17125   0.17319   0.17744   0.20236   0.20827

 Mulliken charges:
               1
     1  P    0.376596
     2  N   -0.186259
     3  C   -0.540066
     4  H   -0.037491
     5  H   -0.024711
     6  H    0.097784
     7  H    0.314147
 Sum of Mulliken charges =  -0.00000

 Dipole moment (field-independent basis, Debye):
    X=              0.4015    Y=             -1.0682    Z=             -1.0973  Tot=              1.5831

 Test job not archived.
 1\1\GINC-SE284\SP\RHF\Aug-CC-pVDZ\C1H4N1P1\OHZDE\08-Apr-2025\0\\#t hf
 aug-cc-pvdz iop(5/13=1,5/36=2,99/5=2) pseudo=read geom=check guess=(re
 ad,tcheck) scf=(maxcycle=1)\\title\\0,1\P,0,0.845998,-0.050362,-0.1163
 73\N,0,-0.709391,0.797457,0.189139\C,0,-0.898368,-0.630647,-0.017542\H
 ,0,-1.222956,-1.174771,0.862957\H,0,-1.335901,-0.978283,-0.950324\H,0,
 -0.96425,1.329999,-0.639411\H,0,1.189085,-0.219835,1.25365\\Version=ES
 64L-G16RevC.01\State=1-A\HF=-435.4904009\RMSD=2.687e-02\Dipole=0.15797
 09,-0.4202436,-0.4316984\Quadrupole=0.0837908,0.0766533,-0.1604442,0.6

 Normal termination of Gaussian 16 at Tue Apr  8 23:31:00 2025.
