 Gaussian 16, Revision C.01,

 ----------------------------------------------------------------------
 #t hf aug-cc-pvdz symm=none int=(grid=ultrafine) guess=(read,tcheck) s
 table=(opt,rrhf)
 ----------------------------------------------------------------------
 -----
 title
 -----
 Symbolic Z-matrix:
 Charge =  0 Multiplicity = 1

 SCF Done:  E(RHF) =  -405.147808474     A.U. after   11 cycles
 Normal termination of Gaussian 16 at Tue Apr  8 23:50:17 2025.
 Gaussian 16:  ES64L-G16RevC.01  3-Jul-2019

 ----------------------------------------------------------------------
 #t hf aug-cc-pvdz iop(5/13=1,5/36=2,99/5=2) pseudo=read geom=check gue
 ss=(read,tcheck) scf=(maxcycle=1)
 ----------------------------------------------------------------------
 -----
 title
 -----
 Structure from the checkpoint file:  "BDE49_nonexpt_1865_mol1.chk"
 Charge =  0 Multiplicity = 1

                         Standard orientation:
 ---------------------------------------------------------------------
 Center     Atomic      Atomic             Coordinates (Angstroms)
 Number     Number       Type             X           Y           Z
 ---------------------------------------------------------------------
      1          6           0       -0.640241    0.641467   -0.039458
      2         14           0        1.104557   -0.104839    0.008588
      3          8           0       -1.642472   -0.378238    0.112592
      4          1           0       -1.595360   -0.953610   -0.657213
      5          1           0        2.139689    0.921497   -0.271919
      6          1           0        1.183917   -1.160526   -1.033348
      7          1           0        1.366291   -0.721956    1.328126
      8          1           0       -0.799398    1.233860   -0.951556
      9          1           0       -0.777723    1.325584    0.801699
 ---------------------------------------------------------------------

 SCF Done:  E(RHF) =  -405.303619534     A.U. after    2 cycles

 The electronic state is 1-A.
 Alpha  occ. eigenvalues --  -69.52978 -20.55661 -11.28015  -6.20133  -3.95504
 Alpha  occ. eigenvalues --   -3.95491  -3.95478  -1.44737  -0.93299  -0.74370
 Alpha  occ. eigenvalues --   -0.68229  -0.60404  -0.58085  -0.50715  -0.48990
 Alpha  occ. eigenvalues --   -0.47938  -0.41571
 Alpha virt. eigenvalues --    0.03510   0.04313   0.04511   0.05083   0.07462
 Alpha virt. eigenvalues --    0.07863   0.08505   0.09216   0.09628   0.13077
 Alpha virt. eigenvalues --    0.15295   0.15529   0.16566   0.16941   0.18989

 Mulliken charges:
               1
     1  C    0.210600
     2  Si   1.093973
     3  O   -1.021353
     4  H    0.316594
     5  H   -0.204885
     6  H   -0.246287
     7  H   -0.203465
     8  H    0.056239
     9  H   -0.001416
 Sum of Mulliken charges =  -0.00000

 Dipole moment (field-independent basis, Debye):
    X=              0.6522    Y=              0.4223    Z=             -1.1882  Tot=              1.4197

 Test job not archived.
 1\1\GINC-SE105\SP\RHF\Aug-CC-pVDZ\C1H6O1Si1\OHZDE\08-Apr-2025\0\\#t hf
  aug-cc-pvdz iop(5/13=1,5/36=2,99/5=2) pseudo=read geom=check guess=(r
 ead,tcheck) scf=(maxcycle=1)\\title\\0,1\C,0,-0.640241,0.641467,-0.039
 458\Si,0,1.104557,-0.104839,0.008588\O,0,-1.642472,-0.378238,0.112592\
 H,0,-1.59536,-0.95361,-0.657213\H,0,2.139688,0.921498,-0.271919\H,0,1.
 183917,-1.160526,-1.033348\H,0,1.366291,-0.721956,1.328126\H,0,-0.7993
 99,1.23386,-0.951556\H,0,-0.777724,1.325584,0.801699\\Version=ES64L-G1
 6RevC.01\State=1-A\HF=-405.3036195\RMSD=5.694e-03\Dipole=0.2565786,0.1

 Normal termination of Gaussian 16 at Tue Apr  8 23:50:19 2025.
