 Gaussian 16, Revision C.01,

 ----------------------------------------------------------------------
 #t hf aug-cc-pvdz symm=none int=(grid=ultrafine) guess=(read,tcheck) s
 table=(opt,rrhf)
 ----------------------------------------------------------------------
 -----
 title
 -----
 Symbolic Z-matrix:
 Charge =  0 Multiplicity = 1

 SCF Done:  E(RHF) =  -664.452892365     A.U. after   16 cycles
 Normal termination of Gaussian 16 at Wed Apr  9 00:42:07 2025.
 Gaussian 16:  ES64L-G16RevC.01  3-Jul-2019

 ----------------------------------------------------------------------
 #t hf aug-cc-pvdz iop(5/13=1,5/36=2,99/5=2) pseudo=read geom=check gue
 ss=(read,tcheck) scf=(maxcycle=1)
 ----------------------------------------------------------------------
 -----
 title
 -----
 Structure from the checkpoint file:  "BDE49_nonexpt_597_mol1.chk"
 Charge =  0 Multiplicity = 1

                         Standard orientation:
 ---------------------------------------------------------------------
 Center     Atomic      Atomic             Coordinates (Angstroms)
 Number     Number       Type             X           Y           Z
 ---------------------------------------------------------------------
      1          6           0        1.177739    2.396641    0.186051
      2          6           0       -0.187986    2.177505    0.063188
      3          6           0        2.078646    1.334702    0.153056
      4          6           0        1.556871    0.061788   -0.027605
      5          6           0        0.198486   -0.188008   -0.177366
      6          6           0       -0.706774    0.880642   -0.111957
      7          1           0       -0.120905   -1.197924   -0.389581
      8          1           0        1.545603    3.406961    0.319970
      9          1           0       -0.874434    3.016416    0.109056
     10          5           0       -2.895623   -0.464202    0.039701
     11          8           0       -2.457126   -1.619319    0.631106
     12          8           0       -4.213744   -0.357083   -0.311021
     13          1           0        3.144536    1.473537    0.256531
     14          7           0        2.487438   -1.091462   -0.087729
     15          8           0        3.685511   -0.856251   -0.026477
     16          8           0        1.999522   -2.209662   -0.190091
     17          1           0       -4.715238   -1.134335   -0.048788
     18          1           0       -1.567299   -1.587236    0.991156
     19          7           0       -2.080776    0.689182   -0.237923
     20          1           0       -2.595970    1.518448   -0.497631
 ---------------------------------------------------------------------

 SCF Done:  E(RHF) =  -665.108140462     A.U. after    2 cycles

 The electronic state is 1-A.
 Alpha  occ. eigenvalues --  -20.59478 -20.59396 -20.56978 -20.56104 -15.79683
 Alpha  occ. eigenvalues --  -15.52193 -11.32418 -11.32384 -11.28002 -11.27806
 Alpha  occ. eigenvalues --  -11.27630 -11.27569  -7.66844  -1.67403  -1.51081
 Alpha  occ. eigenvalues --   -1.49216  -1.45079  -1.25500  -1.19176  -1.10465
 Alpha  occ. eigenvalues --   -1.04383  -0.98762  -0.88640  -0.86062  -0.81820
 Alpha  occ. eigenvalues --   -0.79287  -0.76421  -0.74953  -0.74607  -0.73450
 Alpha  occ. eigenvalues --   -0.72209  -0.68159  -0.66842  -0.64728  -0.60731
 Alpha  occ. eigenvalues --   -0.58152  -0.57708  -0.56774  -0.56458  -0.54851
 Alpha  occ. eigenvalues --   -0.50549  -0.50345  -0.49679  -0.48995  -0.45480
 Alpha  occ. eigenvalues --   -0.39153  -0.35042
 Alpha virt. eigenvalues --    0.01743   0.02462   0.03387   0.03883   0.04739
 Alpha virt. eigenvalues --    0.04911   0.05639   0.07040   0.07548   0.08061
 Alpha virt. eigenvalues --    0.08333   0.08740   0.09473   0.11269   0.11940

 Mulliken charges:
               1
     1  C    0.529785
     2  C    0.289718
     3  C    0.096863
     4  C   -0.434434
     5  C    0.798491
     6  C   -1.562921
     7  H   -0.353974
     8  H   -0.221296
     9  H   -0.333374
    10  B    1.418092
    11  O   -1.343244
    12  O   -1.355580
    13  H   -0.195279
    14  N    3.100172
    15  O   -1.539786
    16  O   -1.484591
    17  H    0.506563
    18  H    0.638747
    19  N    1.487760
    20  H   -0.041712
 Sum of Mulliken charges =   0.00000

 Dipole moment (field-independent basis, Debye):
    X=             -2.4018    Y=              3.8035    Z=              0.7985  Tot=              4.5686

 Test job not archived.
 1\1\GINC-SE092\SP\RHF\Aug-CC-pVDZ\C6H7B1N2O4\OHZDE\09-Apr-2025\0\\#t h
 f aug-cc-pvdz iop(5/13=1,5/36=2,99/5=2) pseudo=read geom=check guess=(
 read,tcheck) scf=(maxcycle=1)\\title\\0,1\C,0,1.177739,2.396641,0.1860
 51\C,0,-0.187986,2.177505,0.063188\C,0,2.078646,1.334702,0.153056\C,0,
 1.556871,0.061788,-0.027605\C,0,0.198486,-0.188008,-0.177366\C,0,-0.70
 6774,0.880642,-0.111957\H,0,-0.120905,-1.197924,-0.389581\H,0,1.545603
 ,3.406961,0.31997\H,0,-0.874434,3.016416,0.109056\B,0,-2.895623,-0.464
 202,0.039701\O,0,-2.457126,-1.619319,0.631106\O,0,-4.213744,-0.357083,

 Normal termination of Gaussian 16 at Wed Apr  9 00:42:22 2025.
