 Gaussian 16, Revision C.01,

 ----------------------------------------------------------------------
 #t hf aug-cc-pvdz symm=none int=(grid=ultrafine) guess=(read,tcheck) s
 table=(opt,rrhf)
 ----------------------------------------------------------------------
 -----
 title
 -----
 Symbolic Z-matrix:
 Charge =  0 Multiplicity = 1

 SCF Done:  E(RHF) =  -226.770871632     A.U. after   12 cycles
 Normal termination of Gaussian 16 at Tue Apr  8 23:34:04 2025.
 Gaussian 16:  ES64L-G16RevC.01  3-Jul-2019

 ----------------------------------------------------------------------
 #t hf aug-cc-pvdz iop(5/13=1,5/36=2,99/5=2) pseudo=read geom=check gue
 ss=(read,tcheck) scf=(maxcycle=1)
 ----------------------------------------------------------------------
 -----
 title
 -----
 Structure from the checkpoint file:  "BDE49_nonexpt_146_mol1.chk"
 Charge =  0 Multiplicity = 1

                         Standard orientation:
 ---------------------------------------------------------------------
 Center     Atomic      Atomic             Coordinates (Angstroms)
 Number     Number       Type             X           Y           Z
 ---------------------------------------------------------------------
      1          5           0        2.392497   -0.000077   -0.359750
      2          5           0        1.107826   -0.000343    0.626312
      3          5           0       -0.508688   -0.000023    0.105373
      4          8           0       -1.121065    1.210024   -0.089600
      5          8           0       -1.121539   -1.209825   -0.089626
      6          1           0       -2.042916    1.170719   -0.368348
      7          1           0       -2.043374   -1.170153   -0.368374
      8          1           0        1.287038   -0.000010    1.813887
      9          1           0        2.891148    1.015661   -0.750985
     10          1           0        2.890760   -1.015592   -0.752050
 ---------------------------------------------------------------------

 SCF Done:  E(RHF) =  -226.997250641     A.U. after    2 cycles

 The electronic state is 1-A.
 Alpha  occ. eigenvalues --  -20.56458 -20.56457  -7.63229  -7.57448  -7.55918
 Alpha  occ. eigenvalues --   -1.48409  -1.44383  -0.80385  -0.73764  -0.73348
 Alpha  occ. eigenvalues --   -0.64603  -0.61096  -0.57141  -0.52756  -0.50010
 Alpha  occ. eigenvalues --   -0.48731  -0.45690  -0.42013
 Alpha virt. eigenvalues --    0.02316   0.03980   0.04382   0.04451   0.05471
 Alpha virt. eigenvalues --    0.06475   0.06687   0.07244   0.08154   0.09833
 Alpha virt. eigenvalues --    0.10070   0.10100   0.10684   0.11498   0.12475

 Mulliken charges:
               1
     1  B   -0.735141
     2  B   -0.712572
     3  B    1.904382
     4  O   -1.105254
     5  O   -1.105328
     6  H    0.459829
     7  H    0.459781
     8  H    0.234965
     9  H    0.299699
    10  H    0.299638
 Sum of Mulliken charges =   0.00000

 Dipole moment (field-independent basis, Debye):
    X=             -2.6250    Y=              0.0001    Z=             -0.6308  Tot=              2.6997

 Test job not archived.
 1\1\GINC-SE328\SP\RHF\Aug-CC-pVDZ\B3H5O2\OHZDE\08-Apr-2025\0\\#t hf au
 g-cc-pvdz iop(5/13=1,5/36=2,99/5=2) pseudo=read geom=check guess=(read
 ,tcheck) scf=(maxcycle=1)\\title\\0,1\B,0,2.392497,-0.000077,-0.35975\
 B,0,1.107826,-0.000343,0.626312\B,0,-0.508688,-0.000023,0.105373\O,0,-
 1.121065,1.210024,-0.0896\O,0,-1.121539,-1.209825,-0.089626\H,0,-2.042
 916,1.170719,-0.368348\H,0,-2.043374,-1.170153,-0.368374\H,0,1.287038,
 -0.00001,1.813887\H,0,2.891148,1.015661,-0.750985\H,0,2.89076,-1.01559
 2,-0.75205\\Version=ES64L-G16RevC.01\State=1-A\HF=-226.9972506\RMSD=1.

 Normal termination of Gaussian 16 at Tue Apr  8 23:34:07 2025.
