 Gaussian 16, Revision C.01,

 ----------------------------------------------------------------------
 #t hf aug-cc-pvdz symm=none int=(grid=ultrafine) guess=(read,tcheck) s
 table=(opt,rrhf)
 ----------------------------------------------------------------------
 -----
 title
 -----
 Symbolic Z-matrix:
 Charge =  0 Multiplicity = 1

 SCF Done:  E(RHF) =  -1181.17202721     A.U. after   13 cycles
 Normal termination of Gaussian 16 at Wed Apr  9 00:31:17 2025.
 Gaussian 16:  ES64L-G16RevC.01  3-Jul-2019

 ----------------------------------------------------------------------
 #t hf aug-cc-pvdz iop(5/13=1,5/36=2,99/5=2) pseudo=read geom=check gue
 ss=(read,tcheck) scf=(maxcycle=1)
 ----------------------------------------------------------------------
 -----
 title
 -----
 Structure from the checkpoint file:  "BDE49_nonexpt_364_mol1.chk"
 Charge =  0 Multiplicity = 1

                         Standard orientation:
 ---------------------------------------------------------------------
 Center     Atomic      Atomic             Coordinates (Angstroms)
 Number     Number       Type             X           Y           Z
 ---------------------------------------------------------------------
      1          9           0       -2.214458    0.071984   -0.816892
      2          9           0       -1.437126   -0.670607    1.177348
      3          5           0       -1.194282   -0.202924   -0.025798
      4          6           0        0.277099    0.056177   -0.539236
      5         17           0        1.385319   -1.283667   -0.106798
      6         17           0        0.780706    1.628784    0.208731
      7          1           0        0.350649    0.198177   -1.612566
 ---------------------------------------------------------------------

 SCF Done:  E(RHF) =  -1181.56586129     A.U. after    2 cycles

 The electronic state is 1-A.
 Alpha  occ. eigenvalues -- -105.59850-105.59610 -26.50666 -26.50306 -11.38156
 Alpha  occ. eigenvalues --  -10.64615 -10.64393  -7.81554  -7.81340  -7.81156
 Alpha  occ. eigenvalues --   -7.81139  -7.80934  -7.80918  -7.75727  -1.65826
 Alpha  occ. eigenvalues --   -1.61952  -1.17474  -1.06593  -0.91546  -0.82651
 Alpha  occ. eigenvalues --   -0.77549  -0.74553  -0.72095  -0.66487  -0.65780
 Alpha  occ. eigenvalues --   -0.64011  -0.61070  -0.60638  -0.49909  -0.49022
 Alpha  occ. eigenvalues --   -0.47243  -0.46300
 Alpha virt. eigenvalues --    0.03563   0.04945   0.05318   0.05708   0.08060
 Alpha virt. eigenvalues --    0.08534   0.09335   0.12542   0.13141   0.13911
 Alpha virt. eigenvalues --    0.14604   0.16594   0.17226   0.17928   0.18285

 Mulliken charges:
               1
     1  F   -0.654444
     2  F   -0.665864
     3  B    1.979698
     4  C   -0.663703
     5  Cl  -0.093596
     6  Cl  -0.066198
     7  H    0.164106
 Sum of Mulliken charges =   0.00000

 Dipole moment (field-independent basis, Debye):
    X=             -0.1546    Y=             -0.0116    Z=             -1.3690  Tot=              1.3778

 Test job not archived.
 1\1\GINC-SE096\SP\RHF\Aug-CC-pVDZ\C1H1B1Cl2F2\OHZDE\09-Apr-2025\0\\#t
 hf aug-cc-pvdz iop(5/13=1,5/36=2,99/5=2) pseudo=read geom=check guess=
 (read,tcheck) scf=(maxcycle=1)\\title\\0,1\F,0,-2.214458,0.071985,-0.8
 16892\F,0,-1.437126,-0.670606,1.177348\B,0,-1.194282,-0.202924,-0.0257
 98\C,0,0.277099,0.056177,-0.539236\Cl,0,1.385319,-1.283667,-0.106798\C
 l,0,0.780706,1.628784,0.208731\H,0,0.350649,0.198177,-1.612566\\Versio
 n=ES64L-G16RevC.01\State=1-A\HF=-1181.5658613\RMSD=4.262e-03\Dipole=-0
 .0608341,-0.0045688,-0.5386117\Quadrupole=-1.7368978,0.6163218,1.12057

 Normal termination of Gaussian 16 at Wed Apr  9 00:31:20 2025.
