 Gaussian 16, Revision C.01,

 ----------------------------------------------------------------------
 #t hf aug-cc-pvdz symm=none int=(grid=ultrafine) guess=(read,tcheck) s
 table=(opt,rrhf)
 ----------------------------------------------------------------------
 -----
 title
 -----
 Symbolic Z-matrix:
 Charge =  0 Multiplicity = 1

 SCF Done:  E(RHF) =  -827.204246226     A.U. after   13 cycles
 Normal termination of Gaussian 16 at Wed Apr  9 00:11:46 2025.
 Gaussian 16:  ES64L-G16RevC.01  3-Jul-2019

 ----------------------------------------------------------------------
 #t hf aug-cc-pvdz iop(5/13=1,5/36=2,99/5=2) pseudo=read geom=check gue
 ss=(read,tcheck) scf=(maxcycle=1)
 ----------------------------------------------------------------------
 -----
 title
 -----
 Structure from the checkpoint file:  "BDE49_nonexpt_2373_mol1.chk"
 Charge =  0 Multiplicity = 1

                         Standard orientation:
 ---------------------------------------------------------------------
 Center     Atomic      Atomic             Coordinates (Angstroms)
 Number     Number       Type             X           Y           Z
 ---------------------------------------------------------------------
      1         14           0        2.879018   -0.306527    0.000004
      2         14           0        0.906501    0.972136   -0.000001
      3          6           0       -0.508878   -0.348562   -0.000008
      4          1           0        0.806552    1.856704   -1.191597
      5          1           0        0.806545    1.856701    1.191596
      6          8           0       -0.126915   -1.518794   -0.000001
      7          7           0       -1.833545   -0.010794   -0.000002
      8          1           0        2.946018   -1.150240    1.213614
      9          6           0       -2.318128    1.356607    0.000002
     10          1           0       -1.486116    2.059581    0.000002
     11          1           0       -2.929930    1.552600    0.887924
     12          1           0       -2.929935    1.552604   -0.887915
     13          1           0        4.051014    0.606711    0.000009
     14          1           0        2.946026   -1.150236   -1.213609
     15          6           0       -2.847904   -1.058350   -0.000001
     16          1           0       -2.343340   -2.021619   -0.000003
     17          1           0       -3.482250   -0.976790   -0.889220
     18          1           0       -3.482245   -0.976792    0.889222
 ---------------------------------------------------------------------

 SCF Done:  E(RHF) =  -827.527227252     A.U. after    2 cycles

 The electronic state is 1-A.
 Alpha  occ. eigenvalues --  -69.53751 -69.52195 -20.51141 -15.53192 -11.34407
 Alpha  occ. eigenvalues --  -11.28571 -11.26681  -6.20951  -6.19343  -3.96279
 Alpha  occ. eigenvalues --   -3.96260  -3.96243  -3.94702  -3.94696  -3.94694
 Alpha  occ. eigenvalues --   -1.45175  -1.25452  -0.99249  -0.96429  -0.81495
 Alpha  occ. eigenvalues --   -0.76188  -0.71441  -0.67538  -0.67184  -0.65520
 Alpha  occ. eigenvalues --   -0.58052  -0.57497  -0.55762  -0.55294  -0.54552
 Alpha  occ. eigenvalues --   -0.49946  -0.47939  -0.47618  -0.41501  -0.39898
 Alpha  occ. eigenvalues --   -0.39780
 Alpha virt. eigenvalues --    0.03109   0.04122   0.04257   0.04541   0.05121
 Alpha virt. eigenvalues --    0.06005   0.06167   0.06294   0.06966   0.08425
 Alpha virt. eigenvalues --    0.08483   0.09213   0.10096   0.10174   0.10571

 Mulliken charges:
               1
     1  Si   0.329683
     2  Si   0.590241
     3  C   -0.219603
     4  H   -0.118717
     5  H   -0.118718
     6  O   -1.126586
     7  N    0.891201
     8  H   -0.060705
     9  C   -0.331264
    10  H   -0.081528
    11  H    0.175107
    12  H    0.175105
    13  H   -0.145681
    14  H   -0.060706
    15  C   -0.265735
    16  H   -0.003236
    17  H    0.185572
    18  H    0.185570
 Sum of Mulliken charges =  -0.00000

 Dipole moment (field-independent basis, Debye):
    X=             -2.2907    Y=              2.6232    Z=              0.0000  Tot=              3.4826

 Test job not archived.
 1\1\GINC-SE165\SP\RHF\Aug-CC-pVDZ\C3H11N1O1Si2\OHZDE\09-Apr-2025\0\\#t
  hf aug-cc-pvdz iop(5/13=1,5/36=2,99/5=2) pseudo=read geom=check guess
 =(read,tcheck) scf=(maxcycle=1)\\title\\0,1\Si,0,-2.879018,-0.306527,-
 0.000004\Si,0,-0.906501,0.972136,0.000001\C,0,0.508878,-0.348562,0.000
 008\H,0,-0.806552,1.856704,1.191597\H,0,-0.806545,1.856701,-1.191596\O
 ,0,0.126915,-1.518794,0.000001\N,0,1.833545,-0.010794,0.000002\H,0,-2.
 946018,-1.15024,-1.213614\C,0,2.318128,1.356607,-0.000002\H,0,1.486116
 ,2.059581,-0.000002\H,0,2.92993,1.5526,-0.887924\H,0,2.929935,1.552604

 Normal termination of Gaussian 16 at Wed Apr  9 00:11:54 2025.
