 Gaussian 16, Revision C.01,

 ----------------------------------------------------------------------
 #t hf aug-cc-pvdz symm=none int=(grid=ultrafine) guess=(read,tcheck) s
 table=(opt,rrhf)
 ----------------------------------------------------------------------
 -----
 title
 -----
 Symbolic Z-matrix:
 Charge =  0 Multiplicity = 1

 SCF Done:  E(RHF) =  -985.510543300     A.U. after   15 cycles
 Normal termination of Gaussian 16 at Wed Apr  9 00:20:57 2025.
 Gaussian 16:  ES64L-G16RevC.01  3-Jul-2019

 ----------------------------------------------------------------------
 #t hf aug-cc-pvdz iop(5/13=1,5/36=2,99/5=2) pseudo=read geom=check gue
 ss=(read,tcheck) scf=(maxcycle=1)
 ----------------------------------------------------------------------
 -----
 title
 -----
 Structure from the checkpoint file:  "BDE49_nonexpt_2625_mol1.chk"
 Charge =  0 Multiplicity = 1

                         Standard orientation:
 ---------------------------------------------------------------------
 Center     Atomic      Atomic             Coordinates (Angstroms)
 Number     Number       Type             X           Y           Z
 ---------------------------------------------------------------------
      1          9           0       -2.047172    0.633939    0.306762
      2         16           0       -1.166737   -0.664589   -0.311190
      3         14           0        0.723540    0.111501    0.338968
      4          9           0        1.747554   -1.066875    0.021735
      5          9           0        1.166579    1.388081   -0.497484
      6          1           0        0.735583    0.476108    1.754367
 ---------------------------------------------------------------------

 SCF Done:  E(RHF) =  -985.870008691     A.U. after    2 cycles

 The electronic state is 1-A.
 Alpha  occ. eigenvalues --  -94.05161 -69.67826 -26.49594 -26.49439 -26.48942
 Alpha  occ. eigenvalues --   -8.32709  -6.33814  -6.30473  -6.30175  -6.29921
 Alpha  occ. eigenvalues --   -4.09201  -4.09080  -4.08889  -1.61924  -1.59560
 Alpha  occ. eigenvalues --   -1.58869  -1.02117  -0.81665  -0.72802  -0.71453
 Alpha  occ. eigenvalues --   -0.70932  -0.67455  -0.67310  -0.66170  -0.64811
 Alpha  occ. eigenvalues --   -0.64189  -0.58685  -0.48990  -0.42513
 Alpha virt. eigenvalues --    0.02960   0.04869   0.05380   0.05564   0.06876
 Alpha virt. eigenvalues --    0.09746   0.12196   0.13376   0.14724   0.16183
 Alpha virt. eigenvalues --    0.17619   0.20044   0.20793   0.22192   0.23817

 Mulliken charges:
               1
     1  F   -0.634085
     2  S    0.103743
     3  Si   2.340427
     4  F   -0.792259
     5  F   -0.822217
     6  H   -0.195610
 Sum of Mulliken charges =  -0.00000

 Dipole moment (field-independent basis, Debye):
    X=              0.4534    Y=             -0.5794    Z=              0.8991  Tot=              1.1617

 Test job not archived.
 1\1\GINC-SE038\SP\RHF\Aug-CC-pVDZ\F3H1S1Si1\OHZDE\09-Apr-2025\0\\#t hf
  aug-cc-pvdz iop(5/13=1,5/36=2,99/5=2) pseudo=read geom=check guess=(r
 ead,tcheck) scf=(maxcycle=1)\\title\\0,1\F,0,-2.047172,0.633939,0.3067
 62\S,0,-1.166737,-0.664589,-0.31119\Si,0,0.72354,0.111501,0.338968\F,0
 ,1.747554,-1.066875,0.021735\F,0,1.166579,1.388081,-0.497484\H,0,0.735
 583,0.476108,1.754367\\Version=ES64L-G16RevC.01\State=1-A\HF=-985.8700
 087\RMSD=3.113e-03\Dipole=0.1783694,-0.2279489,0.3537276\Quadrupole=-1
 .4001899,-0.315988,1.7161779,1.0752474,1.479455,1.0837684\PG=C01 [X(F3

 Normal termination of Gaussian 16 at Wed Apr  9 00:21:00 2025.
