 Gaussian 16, Revision C.01,

 ----------------------------------------------------------------------
 #t hf aug-cc-pvdz symm=none int=(grid=ultrafine) guess=(read,tcheck) s
 table=(opt,rrhf)
 ----------------------------------------------------------------------
 -----
 title
 -----
 Symbolic Z-matrix:
 Charge =  0 Multiplicity = 1

 SCF Done:  E(RHF) =  -494.254003613     A.U. after   15 cycles
 Normal termination of Gaussian 16 at Tue Apr  8 23:25:58 2025.
 Gaussian 16:  ES64L-G16RevC.01  3-Jul-2019

 ----------------------------------------------------------------------
 #t hf aug-cc-pvdz iop(5/13=1,5/36=2,99/5=2) pseudo=read geom=check gue
 ss=(read,tcheck) scf=(maxcycle=1)
 ----------------------------------------------------------------------
 -----
 title
 -----
 Structure from the checkpoint file:  "BDE49_nonexpt_1290_mol1.chk"
 Charge =  0 Multiplicity = 1

                         Standard orientation:
 ---------------------------------------------------------------------
 Center     Atomic      Atomic             Coordinates (Angstroms)
 Number     Number       Type             X           Y           Z
 ---------------------------------------------------------------------
      1          6           0       -1.446652   -0.952360    0.003960
      2          6           0       -0.491412    0.224470    0.008364
      3          1           0       -2.462564   -0.594995   -0.167131
      4          1           0       -1.397868   -1.466341    0.968894
      5          1           0       -1.166848   -1.677519   -0.765812
      6         15           0        1.360849   -0.158649   -0.117952
      7          8           0       -0.861688    1.371255    0.005345
      8          1           0        1.386841   -1.271606    0.759754
      9          1           0        1.749596    0.787491    0.856864
 ---------------------------------------------------------------------

 SCF Done:  E(RHF) =  -494.453693233     A.U. after    2 cycles

 The electronic state is 1-A.
 Alpha  occ. eigenvalues --  -84.28941 -20.55170 -11.35684 -11.25742  -6.76145
 Alpha  occ. eigenvalues --   -4.28595  -4.28518  -4.27745  -1.48669  -1.03280
 Alpha  occ. eigenvalues --   -0.90386  -0.74478  -0.64287  -0.63749  -0.61773
 Alpha  occ. eigenvalues --   -0.55729  -0.52216  -0.51047  -0.41176  -0.35418
 Alpha virt. eigenvalues --    0.03222   0.04658   0.05187   0.05795   0.07235
 Alpha virt. eigenvalues --    0.08516   0.09722   0.10465   0.11903   0.12781
 Alpha virt. eigenvalues --    0.13116   0.15441   0.15656   0.15883   0.16814

 Mulliken charges:
               1
     1  C   -0.525607
     2  C    0.577815
     3  H    0.137363
     4  H    0.227607
     5  H    0.247843
     6  P   -0.350873
     7  O   -1.160495
     8  H    0.422676
     9  H    0.423670
 Sum of Mulliken charges =  -0.00000

 Dipole moment (field-independent basis, Debye):
    X=              0.4746    Y=             -2.7766    Z=              0.4595  Tot=              2.8541

 Test job not archived.
 1\1\GINC-SE070\SP\RHF\Aug-CC-pVDZ\C2H5O1P1\OHZDE\08-Apr-2025\0\\#t hf
 aug-cc-pvdz iop(5/13=1,5/36=2,99/5=2) pseudo=read geom=check guess=(re
 ad,tcheck) scf=(maxcycle=1)\\title\\0,1\C,0,-1.446652,-0.95236,0.00396
 \C,0,-0.491412,0.22447,0.008364\H,0,-2.462564,-0.594995,-0.167131\H,0,
 -1.397868,-1.466341,0.968894\H,0,-1.166848,-1.677519,-0.765812\P,0,1.3
 60849,-0.158649,-0.117952\O,0,-0.861688,1.371255,0.005345\H,0,1.386841
 ,-1.271606,0.759754\H,0,1.749596,0.787491,0.856864\\Version=ES64L-G16R
 evC.01\State=1-A\HF=-494.4536932\RMSD=2.744e-02\Dipole=0.1867241,-1.09

 Normal termination of Gaussian 16 at Tue Apr  8 23:26:00 2025.
