 Gaussian 16, Revision C.01,

 ----------------------------------------------------------------------
 #t hf aug-cc-pvdz symm=none int=(grid=ultrafine) guess=(read,tcheck) s
 table=(opt,rrhf)
 ----------------------------------------------------------------------
 -----
 title
 -----
 Symbolic Z-matrix:
 Charge =  0 Multiplicity = 1

 SCF Done:  E(RHF) =  -1336.24136855     A.U. after   13 cycles
 Normal termination of Gaussian 16 at Wed Apr  9 00:50:38 2025.
 Gaussian 16:  ES64L-G16RevC.01  3-Jul-2019

 ----------------------------------------------------------------------
 #t hf aug-cc-pvdz iop(5/13=1,5/36=2,99/5=2) pseudo=read geom=check gue
 ss=(read,tcheck) scf=(maxcycle=1)
 ----------------------------------------------------------------------
 -----
 title
 -----
 Structure from the checkpoint file:  "BDE49_nonexpt_910_mol1.chk"
 Charge =  0 Multiplicity = 1

                         Standard orientation:
 ---------------------------------------------------------------------
 Center     Atomic      Atomic             Coordinates (Angstroms)
 Number     Number       Type             X           Y           Z
 ---------------------------------------------------------------------
      1          6           0       -1.636243   -0.553467   -0.621425
      2         16           0        0.003507   -1.330938   -0.281164
      3          5           0        1.169696    0.027830   -0.054387
      4         16           0        0.665195    1.772666   -0.223698
      5         16           0        2.909284   -0.351157    0.339692
      6          6           0       -2.428819   -0.200453    0.638101
      7          1           0       -2.168670   -1.299433   -1.216277
      8          1           0       -1.481396    0.318429   -1.259971
      9          6           0       -3.807207    0.379437    0.301278
     10          1           0       -1.860424    0.516821    1.236759
     11          1           0       -2.541021   -1.098783    1.252839
     12          1           0       -3.719879    1.298336   -0.285996
     13          1           0       -4.360618    0.619473    1.212516
     14          1           0       -4.408606   -0.329786   -0.275640
     15          1           0        1.871699    2.326087   -0.010241
     16          1           0        2.806268   -1.692544    0.352951
 ---------------------------------------------------------------------

 SCF Done:  E(RHF) =  -1336.57783044     A.U. after    2 cycles

 The electronic state is 1-A.
 Alpha  occ. eigenvalues --  -93.96082 -93.95746 -93.94899 -11.27912 -11.24327
 Alpha  occ. eigenvalues --  -11.23416  -8.24380  -8.24034  -8.23214  -7.67669
 Alpha  occ. eigenvalues --   -6.22220  -6.22078  -6.21906  -6.21876  -6.21733
 Alpha  occ. eigenvalues --   -6.21558  -6.21028  -6.20859  -6.20727  -1.10689
 Alpha  occ. eigenvalues --   -1.05943  -1.00967  -1.00517  -0.90201  -0.81850
 Alpha  occ. eigenvalues --   -0.67911  -0.64873  -0.60563  -0.60028  -0.58251
 Alpha  occ. eigenvalues --   -0.56308  -0.53292  -0.50922  -0.49719  -0.48351
 Alpha  occ. eigenvalues --   -0.45825  -0.45618  -0.43596  -0.38159  -0.36602
 Alpha virt. eigenvalues --    0.03571   0.03855   0.04011   0.04156   0.05512
 Alpha virt. eigenvalues --    0.06035   0.06514   0.07236   0.07393   0.08826
 Alpha virt. eigenvalues --    0.09035   0.09510   0.10172   0.11225   0.12155

 Mulliken charges:
               1
     1  C   -0.827026
     2  S    0.137561
     3  B    1.176000
     4  S   -0.602901
     5  S   -0.765803
     6  C   -0.365442
     7  H    0.167668
     8  H    0.145047
     9  C   -0.398788
    10  H    0.161732
    11  H    0.170148
    12  H    0.165774
    13  H    0.120774
    14  H    0.158062
    15  H    0.280820
    16  H    0.276377
 Sum of Mulliken charges =  -0.00000

 Dipole moment (field-independent basis, Debye):
    X=             -1.3856    Y=              0.1088    Z=             -0.0294  Tot=              1.3902

 Test job not archived.
 1\1\GINC-SE454\SP\RHF\Aug-CC-pVDZ\C3H9B1S3\OHZDE\09-Apr-2025\0\\#t hf
 aug-cc-pvdz iop(5/13=1,5/36=2,99/5=2) pseudo=read geom=check guess=(re
 ad,tcheck) scf=(maxcycle=1)\\title\\0,1\C,0,-1.636243,-0.553467,-0.621
 425\S,0,0.003507,-1.330938,-0.281164\B,0,1.169696,0.02783,-0.054387\S,
 0,0.665195,1.772666,-0.223698\S,0,2.909284,-0.351157,0.339692\C,0,-2.4
 28819,-0.200453,0.638101\H,0,-2.16867,-1.299433,-1.216277\H,0,-1.48139
 6,0.318429,-1.259971\C,0,-3.807207,0.379437,0.301278\H,0,-1.860424,0.5
 16821,1.236759\H,0,-2.541021,-1.098783,1.252839\H,0,-3.719879,1.298336

 Normal termination of Gaussian 16 at Wed Apr  9 00:50:44 2025.
