 Gaussian 16, Revision C.01,

 ----------------------------------------------------------------------
 #t hf aug-cc-pvdz symm=none int=(grid=ultrafine) guess=(read,tcheck) s
 table=opt
 ----------------------------------------------------------------------
 -----
 title
 -----
 Symbolic Z-matrix:
 Charge =  0 Multiplicity = 2

 SCF Done:  E(UHF) =  -197.974412763     A.U. after   16 cycles
 Normal termination of Gaussian 16 at Wed Apr  9 00:43:13 2025.
 Gaussian 16:  ES64L-G16RevC.01  3-Jul-2019

 ----------------------------------------------------------------------
 #t hf aug-cc-pvdz iop(5/13=1,5/36=2,99/5=2) pseudo=read geom=check gue
 ss=(read,tcheck) scf=(maxcycle=1)
 ----------------------------------------------------------------------
 -----
 title
 -----
 Structure from the checkpoint file:  "BDE49_nonexpt_715_mol2.chk"
 Charge =  0 Multiplicity = 2

                         Standard orientation:
 ---------------------------------------------------------------------
 Center     Atomic      Atomic             Coordinates (Angstroms)
 Number     Number       Type             X           Y           Z
 ---------------------------------------------------------------------
      1          6           0        2.242065   -0.156584   -0.000002
      2          5           0        0.786082   -0.730594   -0.000001
      3          1           0        2.792462   -0.521773   -0.873953
      4          1           0        2.792458   -0.521762    0.873956
      5          1           0        2.310859    0.940661   -0.000008
      6          7           0       -0.442305   -0.091275   -0.000000
      7          6           0       -0.634660    1.361287    0.000001
      8          1           0        0.326901    1.871643   -0.000000
      9          1           0       -1.197408    1.678491    0.886283
     10          1           0       -1.197410    1.678492   -0.886280
     11          6           0       -1.702422   -0.831588    0.000002
     12          1           0       -2.299400   -0.586041   -0.887248
     13          1           0       -1.493240   -1.900468   -0.000001
     14          1           0       -2.299397   -0.586044    0.887255
 ---------------------------------------------------------------------

 SCF Done:  E(UHF) =  -198.188504095     A.U. after    2 cycles

 The electronic state is 2-A.
 Alpha  occ. eigenvalues --  -15.49497 -11.26519 -11.26063 -11.20193  -7.58476
 Alpha  occ. eigenvalues --   -1.21283  -0.97063  -0.94856  -0.89367  -0.71537
 Alpha  occ. eigenvalues --   -0.64598  -0.64071  -0.58293  -0.55721  -0.54996
 Alpha  occ. eigenvalues --   -0.54597  -0.53313  -0.51397  -0.40748  -0.30383
 Alpha virt. eigenvalues --    0.03586   0.04500   0.04514   0.04770   0.05832
 Alpha virt. eigenvalues --    0.06022   0.06339   0.07167   0.07786   0.09526
 Alpha virt. eigenvalues --    0.09985   0.10329   0.12426   0.14624   0.14898

  Beta  occ. eigenvalues --  -15.49772 -11.26377 -11.25959 -11.20118  -7.56650
  Beta  occ. eigenvalues --   -1.21328  -0.96650  -0.93911  -0.88907  -0.70599
  Beta  occ. eigenvalues --   -0.64530  -0.63863  -0.56480  -0.55690  -0.54431
  Beta  occ. eigenvalues --   -0.54350  -0.52867  -0.50135  -0.41690
  Beta virt. eigenvalues --    0.03441   0.04479   0.04542   0.04607   0.05892
  Beta virt. eigenvalues --    0.06052   0.06282   0.07188   0.07694   0.09457
  Beta virt. eigenvalues --    0.09972   0.10181   0.11187   0.14212   0.15140

 Mulliken charges and spin densities:
               1          2
     1  C   -0.326504  -0.033764
     2  B   -0.094468   1.128980
     3  H    0.121076  -0.026546
     4  H    0.121077  -0.026546
     5  H    0.035591   0.043345
     6  N    0.457030  -0.140873
     7  C   -0.407649  -0.006901
     8  H   -0.074787  -0.008043
     9  H    0.197485  -0.004371
    10  H    0.197486  -0.004371
    11  C   -0.536244   0.080392
    12  H    0.171167   0.000878
    13  H   -0.032426  -0.003057
    14  H    0.171167   0.000878
 Sum of Mulliken charges =  -0.00000   1.00000

 Dipole moment (field-independent basis, Debye):
    X=             -0.9757    Y=              1.2941    Z=              0.0000  Tot=              1.6207
                          Isotropic Fermi Contact Couplings
        Atom                 a.u.       MegaHertz       Gauss      10(-4) cm-1
     1  C(13)              0.03433      38.59598      13.77200      12.87423
     2  B(11)              0.29118     417.65850     149.03094     139.31588
     3  H(1)               0.00124       5.56436       1.98550       1.85607
     4  H(1)               0.00124       5.56403       1.98538       1.85596
     5  H(1)               0.01272      56.86488      20.29080      18.96808
     6  N(14)             -0.00733      -2.36879      -0.84524      -0.79014
     7  C(13)              0.02493      28.02657      10.00058       9.34866
     8  H(1)              -0.00062      -2.74958      -0.98112      -0.91716

 Normal termination of Gaussian 16 at Wed Apr  9 00:43:17 2025.
