 Gaussian 16, Revision C.01,

 ----------------------------------------------------------------------
 #t hf aug-cc-pvdz symm=none int=(grid=ultrafine) guess=(read,tcheck) s
 table=(opt,rrhf)
 ----------------------------------------------------------------------
 -----
 title
 -----
 Symbolic Z-matrix:
 Charge =  0 Multiplicity = 1

 SCF Done:  E(RHF) =  -483.289501451     A.U. after   12 cycles
 Normal termination of Gaussian 16 at Wed Apr  9 00:02:43 2025.
 Gaussian 16:  ES64L-G16RevC.01  3-Jul-2019

 ----------------------------------------------------------------------
 #t hf aug-cc-pvdz iop(5/13=1,5/36=2,99/5=2) pseudo=read geom=check gue
 ss=(read,tcheck) scf=(maxcycle=1)
 ----------------------------------------------------------------------
 -----
 title
 -----
 Structure from the checkpoint file:  "BDE49_nonexpt_2173_mol1.chk"
 Charge =  0 Multiplicity = 1

                         Standard orientation:
 ---------------------------------------------------------------------
 Center     Atomic      Atomic             Coordinates (Angstroms)
 Number     Number       Type             X           Y           Z
 ---------------------------------------------------------------------
      1         14           0       -0.868068   -0.594277    0.189491
      2          6           0        0.784173    0.097356   -0.379104
      3          6           0        1.045063    1.499793    0.200311
      4          1           0        0.241290    2.194605   -0.053834
      5          1           0        1.984060    1.912891   -0.184154
      6          1           0        1.124874    1.467184    1.292244
      7          6           0        1.932515   -0.876536   -0.053824
      8          1           0        0.709399    0.185967   -1.471372
      9          1           0        2.886851   -0.490577   -0.427409
     10          1           0        1.777056   -1.861307   -0.504451
     11          1           0        2.041277   -1.018584    1.026637
     12          8           0       -2.030853    0.497159   -0.267412
     13          1           0       -2.945082    0.331608   -0.029105
     14          1           0       -0.873635   -0.780694    1.666193
     15          1           0       -1.116821   -1.922162   -0.432614
 ---------------------------------------------------------------------

 SCF Done:  E(RHF) =  -483.533322144     A.U. after    2 cycles

 The electronic state is 1-A.
 Alpha  occ. eigenvalues --  -69.54413 -20.54382 -11.22912 -11.22439 -11.22145
 Alpha  occ. eigenvalues --   -6.21116  -3.96595  -3.96430  -3.96420  -1.42897
 Alpha  occ. eigenvalues --   -1.05774  -0.93028  -0.81738  -0.73693  -0.65652
 Alpha  occ. eigenvalues --   -0.61623  -0.59814  -0.56394  -0.54460  -0.53660
 Alpha  occ. eigenvalues --   -0.52013  -0.48746  -0.48399  -0.44473  -0.41860
 Alpha virt. eigenvalues --    0.03355   0.03956   0.04317   0.04537   0.06344
 Alpha virt. eigenvalues --    0.06451   0.07217   0.07420   0.07681   0.09225
 Alpha virt. eigenvalues --    0.10146   0.10808   0.11491   0.13798   0.14850

 Mulliken charges:
               1
     1  Si   1.622541
     2  C   -0.963898
     3  C   -0.235062
     4  H    0.110194
     5  H    0.146478
     6  H    0.167129
     7  C   -0.201155
     8  H    0.189054
     9  H    0.136401
    10  H    0.115313
    11  H    0.178593
    12  O   -1.388988
    13  H    0.407697
    14  H   -0.129347
    15  H   -0.154949
 Sum of Mulliken charges =  -0.00000

 Dipole moment (field-independent basis, Debye):
    X=             -0.3408    Y=             -0.4294    Z=              0.2469  Tot=              0.6012

 Test job not archived.
 1\1\GINC-SE457\SP\RHF\Aug-CC-pVDZ\C3H10O1Si1\OHZDE\09-Apr-2025\0\\#t h
 f aug-cc-pvdz iop(5/13=1,5/36=2,99/5=2) pseudo=read geom=check guess=(
 read,tcheck) scf=(maxcycle=1)\\title\\0,1\Si,0,-0.868068,-0.594277,0.1
 89491\C,0,0.784173,0.097356,-0.379104\C,0,1.045063,1.499793,0.200311\H
 ,0,0.24129,2.194605,-0.053834\H,0,1.98406,1.912891,-0.184154\H,0,1.124
 874,1.467184,1.292244\C,0,1.932515,-0.876536,-0.053824\H,0,0.709399,0.
 185967,-1.471372\H,0,2.886851,-0.490577,-0.427409\H,0,1.777056,-1.8613
 07,-0.504451\H,0,2.041277,-1.018584,1.026637\O,0,-2.030853,0.497159,-0

 Normal termination of Gaussian 16 at Wed Apr  9 00:02:48 2025.
