 Gaussian 16, Revision C.01,

 ----------------------------------------------------------------------
 #t hf aug-cc-pvdz symm=none int=(grid=ultrafine) guess=(read,tcheck) s
 table=(opt,rrhf)
 ----------------------------------------------------------------------
 -----
 title
 -----
 Symbolic Z-matrix:
 Charge =  0 Multiplicity = 1

 SCF Done:  E(RHF) =  -942.200744625     A.U. after   13 cycles
 Normal termination of Gaussian 16 at Wed Apr  9 00:02:49 2025.
 Gaussian 16:  ES64L-G16RevC.01  3-Jul-2019

 ----------------------------------------------------------------------
 #t hf aug-cc-pvdz iop(5/13=1,5/36=2,99/5=2) pseudo=read geom=check gue
 ss=(read,tcheck) scf=(maxcycle=1)
 ----------------------------------------------------------------------
 -----
 title
 -----
 Structure from the checkpoint file:  "BDE49_nonexpt_2168_mol1.chk"
 Charge =  0 Multiplicity = 1

                         Standard orientation:
 ---------------------------------------------------------------------
 Center     Atomic      Atomic             Coordinates (Angstroms)
 Number     Number       Type             X           Y           Z
 ---------------------------------------------------------------------
      1          6           0       -2.043037   -0.137609   -0.460502
      2          8           0       -1.255446    0.828654    0.248487
      3         14           0        0.212959    1.445034   -0.129535
      4          6           0        1.641376    0.426434    0.572329
      5          6           0       -2.246357   -1.384280    0.384050
      6         17           0        1.740622   -1.212274   -0.222337
      7          1           0        1.537353    0.246802    1.642633
      8          1           0        2.600777    0.915828    0.394540
      9          1           0       -1.564649   -0.390989   -1.413964
     10          1           0       -3.004408    0.334320   -0.684509
     11          1           0       -1.293304   -1.879816    0.580970
     12          1           0       -2.901303   -2.089504   -0.136536
     13          1           0       -2.708678   -1.124584    1.339135
     14          1           0        0.297958    2.778880    0.505059
     15          1           0        0.395934    1.530748   -1.597265
 ---------------------------------------------------------------------

 SCF Done:  E(RHF) =  -942.516004639     A.U. after    2 cycles

 The electronic state is 1-A.
 Alpha  occ. eigenvalues -- -105.55970 -69.56421 -20.53868 -11.29613 -11.29051
 Alpha  occ. eigenvalues --  -11.22684 -10.60715  -7.77654  -7.77294  -7.77286
 Alpha  occ. eigenvalues --   -6.23018  -3.98513  -3.98359  -3.98347  -1.44177
 Alpha  occ. eigenvalues --   -1.08987  -1.02301  -0.90563  -0.85278  -0.74067
 Alpha  occ. eigenvalues --   -0.65777  -0.64055  -0.62249  -0.59301  -0.57489
 Alpha  occ. eigenvalues --   -0.54653  -0.53626  -0.52303  -0.49209  -0.46157
 Alpha  occ. eigenvalues --   -0.45445  -0.44717  -0.41514
 Alpha virt. eigenvalues --    0.03446   0.03893   0.04234   0.04723   0.06046
 Alpha virt. eigenvalues --    0.06189   0.06679   0.07555   0.08289   0.09086
 Alpha virt. eigenvalues --    0.09960   0.10510   0.11898   0.13391   0.14142

 Mulliken charges:
               1
     1  C    0.446875
     2  O   -1.670751
     3  Si   1.931118
     4  C   -0.762600
     5  C   -0.386532
     6  Cl  -0.182324
     7  H    0.178487
     8  H    0.117495
     9  H    0.156622
    10  H    0.067044
    11  H    0.129493
    12  H    0.168321
    13  H    0.174372
    14  H   -0.171196
    15  H   -0.196422
 Sum of Mulliken charges =  -0.00000

 Dipole moment (field-independent basis, Debye):
    X=             -0.3922    Y=              0.8916    Z=              0.1669  Tot=              0.9882

 Test job not archived.
 1\1\GINC-SE365\SP\RHF\Aug-CC-pVDZ\C3H9Cl1O1Si1\OHZDE\09-Apr-2025\0\\#t
  hf aug-cc-pvdz iop(5/13=1,5/36=2,99/5=2) pseudo=read geom=check guess
 =(read,tcheck) scf=(maxcycle=1)\\title\\0,1\C,0,-2.043037,-0.137609,-0
 .460502\O,0,-1.255446,0.828654,0.248487\Si,0,0.212959,1.445034,-0.1295
 35\C,0,1.641376,0.426434,0.572329\C,0,-2.246357,-1.38428,0.38405\Cl,0,
 1.740622,-1.212274,-0.222337\H,0,1.537353,0.246802,1.642633\H,0,2.6007
 77,0.915828,0.39454\H,0,-1.564649,-0.390989,-1.413964\H,0,-3.004408,0.
 33432,-0.684509\H,0,-1.293304,-1.879816,0.58097\H,0,-2.901303,-2.08950

 Normal termination of Gaussian 16 at Wed Apr  9 00:02:54 2025.
