 Gaussian 16, Revision C.01,

 ----------------------------------------------------------------------
 #t hf aug-cc-pvdz symm=none int=(grid=ultrafine) guess=(read,tcheck) s
 table=(opt,rrhf)
 ----------------------------------------------------------------------
 -----
 title
 -----
 Symbolic Z-matrix:
 Charge =  0 Multiplicity = 1

 SCF Done:  E(RHF) =  -944.278262361     A.U. after   11 cycles
 Normal termination of Gaussian 16 at Tue Apr  8 23:48:42 2025.
 Gaussian 16:  ES64L-G16RevC.01  3-Jul-2019

 ----------------------------------------------------------------------
 #t hf aug-cc-pvdz iop(5/13=1,5/36=2,99/5=2) pseudo=read geom=check gue
 ss=(read,tcheck) scf=(maxcycle=1)
 ----------------------------------------------------------------------
 -----
 title
 -----
 Structure from the checkpoint file:  "BDE49_nonexpt_1805_mol1.chk"
 Charge =  0 Multiplicity = 1

                         Standard orientation:
 ---------------------------------------------------------------------
 Center     Atomic      Atomic             Coordinates (Angstroms)
 Number     Number       Type             X           Y           Z
 ---------------------------------------------------------------------
      1         14           0       -0.587228    0.559605   -0.000000
      2          6           0        0.174795   -0.276398    1.492943
      3          6           0        0.174795   -1.813057    1.294855
      4          1           0       -0.348493   -0.002107    2.413737
      5          1           0        1.205359    0.082620    1.600376
      6          6           0        0.867825   -2.274454    0.000000
      7          1           0       -0.857834   -2.184922    1.296240
      8          1           0        0.664485   -2.286512    2.152456
      9          6           0        0.174795   -1.813057   -1.294855
     10          1           0        0.919268   -3.368210    0.000000
     11          1           0        1.906640   -1.919236    0.000000
     12          6           0        0.174795   -0.276398   -1.492943
     13          1           0       -0.857834   -2.184922   -1.296240
     14          1           0        0.664485   -2.286512   -2.152456
     15          1           0        1.205359    0.082620   -1.600376
     16          1           0       -0.348493   -0.002107   -2.413737
     17         17           0       -0.192468    2.619149    0.000000
     18          1           0       -2.061824    0.429477   -0.000000
 ---------------------------------------------------------------------

 SCF Done:  E(RHF) =  -944.606141123     A.U. after    2 cycles

 The electronic state is 1-A'.
 Alpha  occ. eigenvalues -- -105.54537 -69.55797 -11.24288 -11.24287 -11.23671
 Alpha  occ. eigenvalues --  -11.22466 -11.22462 -10.59511  -7.76394  -7.76109
 Alpha  occ. eigenvalues --   -7.76105  -6.22576  -3.97991  -3.97820  -3.97806
 Alpha  occ. eigenvalues --   -1.10114  -1.03965  -1.01370  -0.94313  -0.84066
 Alpha  occ. eigenvalues --   -0.78989  -0.70276  -0.64628  -0.61394  -0.61215
 Alpha  occ. eigenvalues --   -0.58018  -0.55544  -0.52547  -0.51706  -0.50308
 Alpha  occ. eigenvalues --   -0.50131  -0.47705  -0.47122  -0.46898  -0.43234
 Alpha  occ. eigenvalues --   -0.41046
 Alpha virt. eigenvalues --    0.03278   0.03532   0.03542   0.03966   0.05824
 Alpha virt. eigenvalues --    0.06039   0.06423   0.06456   0.06679   0.08995
 Alpha virt. eigenvalues --    0.09234   0.09770   0.09962   0.11372   0.13219

 Mulliken charges:
               1
     1  Si   1.497239
     2  C   -0.495589
     3  C   -0.365928
     4  H    0.023078
     5  H    0.173165
     6  C   -0.274704
     7  H    0.157868
     8  H    0.105397
     9  C   -0.365928
    10  H    0.120576
    11  H    0.161586
    12  C   -0.495589
    13  H    0.157868
    14  H    0.105397
    15  H    0.173165
    16  H    0.023078
    17  Cl  -0.627619
    18  H   -0.073063
 Sum of Mulliken charges =  -0.00000

 Dipole moment (field-independent basis, Debye):
    X=              0.3253    Y=             -2.6806    Z=              0.0000  Tot=              2.7002

 Test job not archived.
 1\1\GINC-SE128\SP\RHF\Aug-CC-pVDZ\C5H11Cl1Si1\OHZDE\08-Apr-2025\0\\#t
 hf aug-cc-pvdz iop(5/13=1,5/36=2,99/5=2) pseudo=read geom=check guess=
 (read,tcheck) scf=(maxcycle=1)\\title\\0,1\Si,0,0.651474,0.,0.483297\C
 ,0,-0.302138,-1.492943,-0.125147\C,0,-1.816329,-1.294855,0.136666\H,0,
 0.057299,-2.413737,0.343756\H,0,-0.123955,-1.600376,-1.201812\C,0,-2.3
 89057,0.,-0.467619\H,0,-2.006819,-1.29624,1.217554\H,0,-2.366294,-2.15
 2456,-0.265198\C,0,-1.816329,1.294855,0.136666\H,0,-3.475586,0.,-0.331
 958\H,0,-2.216024,0.,-1.551767\C,0,-0.302138,1.492943,-0.125147\H,0,-2

 Normal termination of Gaussian 16 at Tue Apr  8 23:48:48 2025.
