 Gaussian 16, Revision C.01,

 ----------------------------------------------------------------------
 #t hf aug-cc-pvdz symm=none int=(grid=ultrafine) guess=(read,tcheck) s
 table=(opt,rrhf)
 ----------------------------------------------------------------------
 -----
 title
 -----
 Symbolic Z-matrix:
 Charge =  0 Multiplicity = 1

 SCF Done:  E(RHF) =  -2095.29075863     A.U. after   14 cycles
 Normal termination of Gaussian 16 at Tue Apr  8 23:43:44 2025.
 Gaussian 16:  ES64L-G16RevC.01  3-Jul-2019

 ----------------------------------------------------------------------
 #t hf aug-cc-pvdz iop(5/13=1,5/36=2,99/5=2) pseudo=read geom=check gue
 ss=(read,tcheck) scf=(maxcycle=1)
 ----------------------------------------------------------------------
 -----
 title
 -----
 Structure from the checkpoint file:  "BDE49_nonexpt_1702_mol1.chk"
 Charge =  0 Multiplicity = 1

                         Standard orientation:
 ---------------------------------------------------------------------
 Center     Atomic      Atomic             Coordinates (Angstroms)
 Number     Number       Type             X           Y           Z
 ---------------------------------------------------------------------
      1         16           0       -0.700752   -0.986196   -0.921065
      2         15           0       -2.107931    0.284894    0.084530
      3          8           0       -1.993327    1.690327   -0.292563
      4          8           0       -2.063904   -0.097296    1.626587
      5          8           0        0.656810    0.085253   -1.004009
      6          6           0        1.516218    0.096866    0.049277
      7          9           0        0.865914    0.418781    1.212643
      8         17           0        2.714768    1.361279   -0.286775
      9         17           0        2.327887   -1.486200    0.343269
     10          1           0       -1.233445    0.166638    2.044586
     11          8           0       -3.437466   -0.516632   -0.286498
     12          1           0       -3.848138   -0.180685   -1.093484
 ---------------------------------------------------------------------

 SCF Done:  E(RHF) =  -2095.96051077     A.U. after    2 cycles

 The electronic state is 1-A.
 Alpha  occ. eigenvalues -- -105.60763-105.60644 -94.05100 -84.47669 -26.53504
 Alpha  occ. eigenvalues --  -20.65249 -20.62871 -20.62021 -20.53624 -11.54467
 Alpha  occ. eigenvalues --  -10.65640 -10.65508  -8.32676  -7.82595  -7.82451
 Alpha  occ. eigenvalues --   -7.82137  -7.82134  -7.82020  -7.82017  -6.92786
 Alpha  occ. eigenvalues --   -6.30454  -6.30207  -6.29952  -4.46927  -4.46161
 Alpha  occ. eigenvalues --   -4.45007  -1.68101  -1.56994  -1.55328  -1.50450
 Alpha  occ. eigenvalues --   -1.42072  -1.16966  -1.09188  -1.04528  -0.90742
 Alpha  occ. eigenvalues --   -0.87212  -0.79214  -0.76390  -0.75975  -0.72909
 Alpha  occ. eigenvalues --   -0.71612  -0.67476  -0.65834  -0.64208  -0.62335
 Alpha  occ. eigenvalues --   -0.60763  -0.58980  -0.57546  -0.54817  -0.52626
 Alpha  occ. eigenvalues --   -0.51537  -0.50451  -0.49456  -0.48958  -0.48000
 Alpha  occ. eigenvalues --   -0.45718  -0.42734
 Alpha virt. eigenvalues --    0.03181   0.04664   0.05523   0.06501   0.08093
 Alpha virt. eigenvalues --    0.08827   0.09571   0.09797   0.10537   0.11817
 Alpha virt. eigenvalues --    0.12501   0.13181   0.13965   0.14609   0.14826

 Mulliken charges:
               1
     1  S    0.112141
     2  P    3.683356
     3  O   -1.429142
     4  O   -1.387108
     5  O   -1.175288
     6  C    1.174702
     7  F   -0.645869
     8  Cl   0.032248
     9  Cl   0.040988
    10  H    0.478685
    11  O   -1.243186
    12  H    0.358475
 Sum of Mulliken charges =  -0.00000

 Dipole moment (field-independent basis, Debye):
    X=             -0.8747    Y=             -1.8925    Z=              0.0036  Tot=              2.0849

 Test job not archived.
 1\1\GINC-SE398\SP\RHF\Aug-CC-pVDZ\C1H2Cl2F1O4P1S1\OHZDE\08-Apr-2025\0\
 \#t hf aug-cc-pvdz iop(5/13=1,5/36=2,99/5=2) pseudo=read geom=check gu
 ess=(read,tcheck) scf=(maxcycle=1)\\title\\0,1\S,0,-0.700752,-0.986196
 ,-0.921065\P,0,-2.107931,0.284894,0.08453\O,0,-1.993327,1.690327,-0.29
 2563\O,0,-2.063904,-0.097296,1.626587\O,0,0.65681,0.085253,-1.004009\C
 ,0,1.516218,0.096866,0.049277\F,0,0.865914,0.418781,1.212643\Cl,0,2.71
 4768,1.361279,-0.286775\Cl,0,2.327887,-1.4862,0.343269\H,0,-1.233445,0
 .166638,2.044586\O,0,-3.437466,-0.516632,-0.286498\H,0,-3.848138,-0.18

 Normal termination of Gaussian 16 at Tue Apr  8 23:43:52 2025.
