 Gaussian 16, Revision C.01,

 ----------------------------------------------------------------------
 #t hf aug-cc-pvdz symm=none int=(grid=ultrafine) guess=(read,tcheck) s
 table=(opt,rrhf)
 ----------------------------------------------------------------------
 -----
 title
 -----
 Symbolic Z-matrix:
 Charge =  0 Multiplicity = 1

 SCF Done:  E(RHF) =  -808.068411861     A.U. after   13 cycles
 Normal termination of Gaussian 16 at Wed Apr  9 00:10:51 2025.
 Gaussian 16:  ES64L-G16RevC.01  3-Jul-2019

 ----------------------------------------------------------------------
 #t hf aug-cc-pvdz iop(5/13=1,5/36=2,99/5=2) pseudo=read geom=check gue
 ss=(read,tcheck) scf=(maxcycle=1)
 ----------------------------------------------------------------------
 -----
 title
 -----
 Structure from the checkpoint file:  "BDE49_nonexpt_2362_mol1.chk"
 Charge =  0 Multiplicity = 1

                         Standard orientation:
 ---------------------------------------------------------------------
 Center     Atomic      Atomic             Coordinates (Angstroms)
 Number     Number       Type             X           Y           Z
 ---------------------------------------------------------------------
      1         14           0       -0.776861    1.125603    0.212414
      2         14           0       -2.168514   -0.722763   -0.244032
      3          8           0        0.845437    0.871508   -0.271353
      4          1           0       -0.785593    1.479230    1.650035
      5          1           0       -1.143355    2.317751   -0.580334
      6          6           0        1.492244   -0.255233    0.095236
      7          1           0       -3.534615   -0.221305   -0.543463
      8          1           0       -2.242995   -1.642311    0.910680
      9          1           0       -1.669175   -1.446024   -1.437357
     10          8           0        0.952154   -1.121836    0.742213
     11          6           0        2.915489   -0.289838   -0.391149
     12          1           0        3.460306    0.568544    0.008396
     13          1           0        2.932969   -0.206277   -1.480152
     14          1           0        3.390584   -1.216321   -0.076571
 ---------------------------------------------------------------------

 SCF Done:  E(RHF) =  -808.363669818     A.U. after    2 cycles

 The electronic state is 1-A.
 Alpha  occ. eigenvalues --  -69.56813 -69.52703 -20.58031 -20.54423 -11.40289
 Alpha  occ. eigenvalues --  -11.25841  -6.23455  -6.19882  -3.98896  -3.98755
 Alpha  occ. eigenvalues --   -3.98732  -3.95242  -3.95234  -3.95226  -1.53837
 Alpha  occ. eigenvalues --   -1.44643  -1.03282  -0.84076  -0.76093  -0.71478
 Alpha  occ. eigenvalues --   -0.69071  -0.66026  -0.64490  -0.58556  -0.56992
 Alpha  occ. eigenvalues --   -0.54046  -0.50731  -0.49019  -0.48505  -0.46974
 Alpha  occ. eigenvalues --   -0.45055  -0.41143
 Alpha virt. eigenvalues --    0.03409   0.03993   0.04276   0.05157   0.05748
 Alpha virt. eigenvalues --    0.06506   0.06968   0.07506   0.07982   0.08579
 Alpha virt. eigenvalues --    0.09535   0.10056   0.10847   0.11333   0.12490

 Mulliken charges:
               1
     1  Si   1.109582
     2  Si   0.194295
     3  O   -1.669312
     4  H   -0.112224
     5  H   -0.142191
     6  C    1.906676
     7  H   -0.138855
     8  H   -0.047730
     9  H   -0.069844
    10  O   -1.085704
    11  C   -0.600097
    12  H    0.238281
    13  H    0.235433
    14  H    0.181692
 Sum of Mulliken charges =  -0.00000

 Dipole moment (field-independent basis, Debye):
    X=              1.0654    Y=              1.1472    Z=             -0.9845  Tot=              1.8494

 Test job not archived.
 1\1\GINC-SE403\SP\RHF\Aug-CC-pVDZ\C2H8O2Si2\OHZDE\09-Apr-2025\0\\#t hf
  aug-cc-pvdz iop(5/13=1,5/36=2,99/5=2) pseudo=read geom=check guess=(r
 ead,tcheck) scf=(maxcycle=1)\\title\\0,1\Si,0,-0.776861,1.125603,0.212
 414\Si,0,-2.168514,-0.722763,-0.244032\O,0,0.845437,0.871508,-0.271353
 \H,0,-0.785593,1.47923,1.650035\H,0,-1.143355,2.317751,-0.580334\C,0,1
 .492244,-0.255233,0.095236\H,0,-3.534615,-0.221305,-0.543463\H,0,-2.24
 2995,-1.642311,0.91068\H,0,-1.669175,-1.446024,-1.437357\O,0,0.952154,
 -1.121836,0.742213\C,0,2.915489,-0.289838,-0.391149\H,0,3.460306,0.568

 Normal termination of Gaussian 16 at Wed Apr  9 00:10:56 2025.
