 Gaussian 16, Revision C.01,

 ----------------------------------------------------------------------
 #t hf aug-cc-pvdz symm=none int=(grid=ultrafine) guess=(read,tcheck) s
 table=(opt,rrhf)
 ----------------------------------------------------------------------
 -----
 title
 -----
 Symbolic Z-matrix:
 Charge =  0 Multiplicity = 1

 SCF Done:  E(RHF) =  -655.280186265     A.U. after   12 cycles
 Normal termination of Gaussian 16 at Tue Apr  8 22:31:47 2025.
 Gaussian 16:  ES64L-G16RevC.01  3-Jul-2019

 ----------------------------------------------------------------------
 #t hf aug-cc-pvdz iop(5/13=1,5/36=2,99/5=2) pseudo=read geom=check gue
 ss=(read,tcheck) scf=(maxcycle=1)
 ----------------------------------------------------------------------
 -----
 title
 -----
 Structure from the checkpoint file:  "BDE49_expt_1039_mol1.chk"
 Charge =  0 Multiplicity = 1

                         Standard orientation:
 ---------------------------------------------------------------------
 Center     Atomic      Atomic             Coordinates (Angstroms)
 Number     Number       Type             X           Y           Z
 ---------------------------------------------------------------------
      1          6           0       -1.131935    0.122837    0.947535
      2          6           0        0.217403   -0.566053    0.810961
      3         17           0       -2.171147   -0.073837   -0.540906
      4          1           0       -1.044362    1.196530    1.102165
      5          1           0       -1.713519   -0.306372    1.761362
      6          6           0        1.158657   -0.027456   -0.281929
      7          1           0        0.047870   -1.635402    0.649332
      8          1           0        0.714323   -0.473862    1.787694
      9          6           0        2.419885   -0.898713   -0.359684
     10          1           0        2.986495   -0.856219    0.577179
     11          1           0        3.081400   -0.560966   -1.162107
     12          1           0        2.169920   -1.946161   -0.551595
     13          6           0        1.526884    1.446821   -0.065282
     14          1           0        0.633378   -0.109123   -1.240120
     15          1           0        2.023283    1.590239    0.901228
     16          1           0        0.651786    2.100979   -0.095922
     17          1           0        2.213565    1.790978   -0.843423
 ---------------------------------------------------------------------

 SCF Done:  E(RHF) =  -655.577121790     A.U. after    2 cycles

 The electronic state is 1-A.
 Alpha  occ. eigenvalues -- -105.54829 -11.30344 -11.24455 -11.23881 -11.22685
 Alpha  occ. eigenvalues --  -11.22619 -10.59625  -7.76558  -7.76206  -7.76196
 Alpha  occ. eigenvalues --   -1.12465  -1.06589  -0.96851  -0.93567  -0.85462
 Alpha  occ. eigenvalues --   -0.77246  -0.66385  -0.64429  -0.60745  -0.59146
 Alpha  occ. eigenvalues --   -0.57398  -0.54807  -0.53168  -0.51339  -0.48459
 Alpha  occ. eigenvalues --   -0.47877  -0.47287  -0.43745  -0.43490
 Alpha virt. eigenvalues --    0.03332   0.03745   0.03850   0.04586   0.05989
 Alpha virt. eigenvalues --    0.06141   0.06847   0.07208   0.07669   0.09238
 Alpha virt. eigenvalues --    0.09795   0.11111   0.13766   0.14295   0.14820

 Mulliken charges:
               1
     1  C   -0.401561
     2  C   -0.013640
     3  Cl  -0.100843
     4  H    0.263676
     5  H    0.207819
     6  C   -1.305399
     7  H    0.120901
     8  H    0.192830
     9  C   -0.076045
    10  H    0.230008
    11  H    0.139568
    12  H    0.142807
    13  C   -0.067359
    14  H    0.196307
    15  H    0.209167
    16  H    0.119475
    17  H    0.142288
 Sum of Mulliken charges =  -0.00000

 Dipole moment (field-independent basis, Debye):
    X=              1.6298    Y=              0.1447    Z=              1.6572  Tot=              2.3289

 Test job not archived.
 1\1\GINC-SE338\SP\RHF\Aug-CC-pVDZ\C5H11Cl1\OHZDE\08-Apr-2025\0\\#t hf
 aug-cc-pvdz iop(5/13=1,5/36=2,99/5=2) pseudo=read geom=check guess=(re
 ad,tcheck) scf=(maxcycle=1)\\title\\0,1\C,0,-1.131935,0.122837,0.94753
 5\C,0,0.217403,-0.566053,0.810961\Cl,0,-2.171147,-0.073837,-0.540906\H
 ,0,-1.044362,1.19653,1.102165\H,0,-1.713519,-0.306372,1.761362\C,0,1.1
 58657,-0.027456,-0.281929\H,0,0.04787,-1.635402,0.649332\H,0,0.714323,
 -0.473862,1.787694\C,0,2.419885,-0.898713,-0.359684\H,0,2.986495,-0.85
 6219,0.577179\H,0,3.0814,-0.560966,-1.162107\H,0,2.16992,-1.946161,-0.

 Normal termination of Gaussian 16 at Tue Apr  8 22:31:53 2025.
