 Gaussian 16, Revision C.01,

 ----------------------------------------------------------------------
 #t hf aug-cc-pvdz symm=none int=(grid=ultrafine) guess=(read,tcheck) s
 table=(opt,rrhf)
 ----------------------------------------------------------------------
 -----
 title
 -----
 Symbolic Z-matrix:
 Charge =  0 Multiplicity = 1

 SCF Done:  E(RHF) =  -545.590327508     A.U. after   14 cycles

 1\1\GINC-SE454\Stability\RHF\Aug-CC-pVDZ\C9H10F2\OHZDE\08-Apr-2025\0\\
 #t hf aug-cc-pvdz symm=none int=(grid=ultrafine) guess=(read,tcheck) s
 table=(opt,rrhf)\\title\\0,1\C,0,-0.780237,-0.366559,0.592814\C,0,-1.6
 34247,-1.269989,-0.050361\C,0,-2.813824,-0.837321,-0.650424\C,0,-3.161
 642,0.511936,-0.616748\C,0,-2.322739,1.421589,0.022161\C,0,-1.142928,0
 .984359,0.62183\H,0,-0.495134,1.698396,1.120169\H,0,-4.081335,0.849915
 ,-1.080594\H,0,-2.587415,2.47254,0.058491\H,0,-1.376972,-2.324718,-0.0
 73538\H,0,-3.464732,-1.553992,-1.138971\C,0,1.668734,-1.036232,0.22583

 Normal termination of Gaussian 16 at Tue Apr  8 22:33:04 2025.
 Gaussian 16:  ES64L-G16RevC.01  3-Jul-2019

 ----------------------------------------------------------------------
 #t hf aug-cc-pvdz iop(5/13=1,5/36=2,99/5=2) pseudo=read geom=check gue
 ss=(read,tcheck) scf=(maxcycle=1)
 ----------------------------------------------------------------------
 -----
 title
 -----
 Structure from the checkpoint file:  "BDE49_expt_1045_mol1.chk"
 Charge =  0 Multiplicity = 1

                         Standard orientation:
 ---------------------------------------------------------------------
 Center     Atomic      Atomic             Coordinates (Angstroms)
 Number     Number       Type             X           Y           Z
 ---------------------------------------------------------------------
      1          6           0       -0.780237   -0.366559    0.592814
      2          6           0       -1.634247   -1.269989   -0.050361
      3          6           0       -2.813824   -0.837321   -0.650424
      4          6           0       -3.161642    0.511936   -0.616748
      5          6           0       -2.322739    1.421589    0.022161
      6          6           0       -1.142928    0.984359    0.621830
      7          1           0       -0.495134    1.698396    1.120169
      8          1           0       -4.081335    0.849915   -1.080594
      9          1           0       -2.587415    2.472540    0.058491
     10          1           0       -1.376972   -2.324718   -0.073538
     11          1           0       -3.464732   -1.553992   -1.138971
     12          6           0        1.668734   -1.036232    0.225839
     13          6           0        0.511894   -0.840838    1.226074
     14          1           0        0.829170   -0.130430    1.993088
     15          1           0        0.340816   -1.795139    1.732406
     16          6           0        2.095864    0.238053   -0.463247
     17          1           0        1.388334   -1.753940   -0.550852
     18          1           0        2.548190   -1.433702    0.741385
     19          9           0        3.180776   -0.012064   -1.266209
     20          9           0        2.491359    1.171979    0.469745
     21          1           0        1.324603    0.701848   -1.081039
 ---------------------------------------------------------------------

 SCF Done:  E(RHF) =  -546.134963528     A.U. after    2 cycles

 The electronic state is 1-A.
 Alpha  occ. eigenvalues --  -26.46764 -26.46749 -11.40996 -11.25589 -11.25542
 Alpha  occ. eigenvalues --  -11.25338 -11.25048 -11.24985 -11.24757 -11.24696
 Alpha  occ. eigenvalues --  -11.24628  -1.62877  -1.56301  -1.16658  -1.09430
 Alpha  occ. eigenvalues --   -1.02435  -1.02258  -0.94084  -0.86496  -0.84278
 Alpha  occ. eigenvalues --   -0.80971  -0.75928  -0.73390  -0.71943  -0.70426
 Alpha  occ. eigenvalues --   -0.65966  -0.65207  -0.63276  -0.62067  -0.60611
 Alpha  occ. eigenvalues --   -0.59735  -0.58662  -0.57140  -0.56310  -0.53556
 Alpha  occ. eigenvalues --   -0.51640  -0.50362  -0.50004  -0.48987  -0.35303
 Alpha  occ. eigenvalues --   -0.34515
 Alpha virt. eigenvalues --    0.03065   0.03083   0.03721   0.04539   0.04864
 Alpha virt. eigenvalues --    0.05411   0.06237   0.07103   0.07916   0.08567
 Alpha virt. eigenvalues --    0.09809   0.10002   0.10154   0.10898   0.13208

 Mulliken charges:
               1
     1  C    1.355878
     2  C    0.212232
     3  C    0.049265
     4  C    0.134345
     5  C   -0.041499
     6  C    0.263923
     7  H   -0.358242
     8  H   -0.216248
     9  H   -0.232647
    10  H   -0.336056
    11  H   -0.231488
    12  C   -0.692769
    13  C   -0.693477
    14  H    0.072101
    15  H    0.118731
    16  C    1.797939
    17  H    0.205364
    18  H    0.169126
    19  F   -0.788748
    20  F   -0.806904
    21  H    0.019174
 Sum of Mulliken charges =  -0.00000

 Dipole moment (field-independent basis, Debye):
    X=             -2.0966    Y=             -1.1968    Z=              0.2454  Tot=              2.4266

 Test job not archived.
 1\1\GINC-SE454\SP\RHF\Aug-CC-pVDZ\C9H10F2\OHZDE\08-Apr-2025\0\\#t hf a
 ug-cc-pvdz iop(5/13=1,5/36=2,99/5=2) pseudo=read geom=check guess=(rea
 d,tcheck) scf=(maxcycle=1)\\title\\0,1\C,0,-0.780237,-0.366559,0.59281
 4\C,0,-1.634247,-1.269989,-0.050361\C,0,-2.813824,-0.837321,-0.650424\
 C,0,-3.161642,0.511936,-0.616748\C,0,-2.322739,1.421589,0.022161\C,0,-
 1.142928,0.984359,0.62183\H,0,-0.495134,1.698396,1.120169\H,0,-4.08133
 5,0.849915,-1.080594\H,0,-2.587415,2.47254,0.058491\H,0,-1.376972,-2.3
 24718,-0.073538\H,0,-3.464732,-1.553992,-1.138971\C,0,1.668734,-1.0362

 Normal termination of Gaussian 16 at Tue Apr  8 22:33:17 2025.
