 Gaussian 16, Revision C.01,

 ----------------------------------------------------------------------
 #t hf aug-cc-pvdz symm=none int=(grid=ultrafine) guess=(read,tcheck) s
 table=(opt,rrhf)
 ----------------------------------------------------------------------
 -----
 title
 -----
 Symbolic Z-matrix:
 Charge =  0 Multiplicity = 1

 SCF Done:  E(RHF) =  -776.392811616     A.U. after   15 cycles
 Normal termination of Gaussian 16 at Wed Apr  9 00:01:07 2025.
 Gaussian 16:  ES64L-G16RevC.01  3-Jul-2019

 ----------------------------------------------------------------------
 #t hf aug-cc-pvdz iop(5/13=1,5/36=2,99/5=2) pseudo=read geom=check gue
 ss=(read,tcheck) scf=(maxcycle=1)
 ----------------------------------------------------------------------
 -----
 title
 -----
 Structure from the checkpoint file:  "BDE49_nonexpt_2117_mol1.chk"
 Charge =  0 Multiplicity = 1

                         Standard orientation:
 ---------------------------------------------------------------------
 Center     Atomic      Atomic             Coordinates (Angstroms)
 Number     Number       Type             X           Y           Z
 ---------------------------------------------------------------------
      1          6           0        0.150861    1.529615    1.593826
      2         14           0       -0.000007    0.615997    0.000026
      3          1           0        0.196505    0.822788    2.424149
      4          1           0       -0.706232    2.192796    1.739847
      5          1           0        1.063901    2.129588    1.598530
      6          6           0       -0.150944    1.529867   -1.593623
      7          1           0       -0.196533    0.823175   -2.424064
      8          1           0        0.706099    2.193139   -1.739534
      9          1           0       -1.064030    2.129771   -1.598226
     10          7           0       -1.429812   -0.568443    0.174906
     11          7           0        1.429890   -0.568300   -0.175056
     12          8           0        1.337133   -1.394660   -1.078221
     13          8           0        2.397143   -0.437462    0.567999
     14          8           0       -2.397152   -0.437439   -0.568006
     15          8           0       -1.337081   -1.394803    1.078073
 ---------------------------------------------------------------------

 SCF Done:  E(RHF) =  -776.898696193     A.U. after    2 cycles

 The electronic state is 1-A.
 Alpha  occ. eigenvalues --  -69.64871 -20.61046 -20.61046 -20.60840 -20.60840
 Alpha  occ. eigenvalues --  -15.77464 -15.77449 -11.27327 -11.27325  -6.31530
 Alpha  occ. eigenvalues --   -4.06868  -4.06792  -4.06665  -1.67474  -1.67101
 Alpha  occ. eigenvalues --   -1.51584  -1.51547  -1.07009  -0.99853  -0.99263
 Alpha  occ. eigenvalues --   -0.99003  -0.83604  -0.81023  -0.75637  -0.75628
 Alpha  occ. eigenvalues --   -0.74695  -0.73540  -0.64812  -0.62257  -0.61365
 Alpha  occ. eigenvalues --   -0.61145  -0.61109  -0.53413  -0.51178  -0.50149
 Alpha  occ. eigenvalues --   -0.48445  -0.48035  -0.46333  -0.45884
 Alpha virt. eigenvalues --    0.02029   0.03174   0.03212   0.03496   0.04424
 Alpha virt. eigenvalues --    0.04935   0.06365   0.07156   0.08467   0.08807
 Alpha virt. eigenvalues --    0.09585   0.10053   0.11893   0.12952   0.13051

 Mulliken charges:
               1
     1  C   -0.641340
     2  Si   1.869327
     3  H    0.099756
     4  H    0.044610
     5  H    0.113606
     6  C   -0.641313
     7  H    0.099744
     8  H    0.044621
     9  H    0.113607
    10  N    1.917992
    11  N    1.917988
    12  O   -1.292660
    13  O   -1.176623
    14  O   -1.176618
    15  O   -1.292698
 Sum of Mulliken charges =  -0.00000

 Dipole moment (field-independent basis, Debye):
    X=             -0.0001    Y=              5.9176    Z=              0.0003  Tot=              5.9176

 Test job not archived.
 1\1\GINC-SE365\SP\RHF\Aug-CC-pVDZ\C2H6N2O4Si1\OHZDE\09-Apr-2025\0\\#t
 hf aug-cc-pvdz iop(5/13=1,5/36=2,99/5=2) pseudo=read geom=check guess=
 (read,tcheck) scf=(maxcycle=1)\\title\\0,1\C,0,-0.150861,1.529615,-1.5
 93826\Si,0,0.000007,0.615997,-0.000026\H,0,-0.196505,0.822788,-2.42414
 9\H,0,0.706232,2.192796,-1.739847\H,0,-1.063901,2.129588,-1.59853\C,0,
 0.150944,1.529867,1.593623\H,0,0.196533,0.823175,2.424064\H,0,-0.70609
 9,2.193139,1.739534\H,0,1.06403,2.129771,1.598226\N,0,1.429812,-0.5684
 43,-0.174906\N,0,-1.42989,-0.5683,0.175056\O,0,-1.337133,-1.39466,1.07

 Normal termination of Gaussian 16 at Wed Apr  9 00:01:12 2025.
