 Gaussian 16, Revision C.01,

 ----------------------------------------------------------------------
 #t hf aug-cc-pvdz symm=none int=(grid=ultrafine) guess=(read,tcheck) s
 table=(opt,rrhf)
 ----------------------------------------------------------------------
 -----
 title
 -----
 Symbolic Z-matrix:
 Charge =  0 Multiplicity = 1

 SCF Done:  E(RHF) =  -367.727667569     A.U. after   12 cycles
 Normal termination of Gaussian 16 at Wed Apr  9 00:35:15 2025.
 Gaussian 16:  ES64L-G16RevC.01  3-Jul-2019

 ----------------------------------------------------------------------
 #t hf aug-cc-pvdz iop(5/13=1,5/36=2,99/5=2) pseudo=read geom=check gue
 ss=(read,tcheck) scf=(maxcycle=1)
 ----------------------------------------------------------------------
 -----
 title
 -----
 Structure from the checkpoint file:  "BDE49_nonexpt_460_mol1.chk"
 Charge =  0 Multiplicity = 1

                         Standard orientation:
 ---------------------------------------------------------------------
 Center     Atomic      Atomic             Coordinates (Angstroms)
 Number     Number       Type             X           Y           Z
 ---------------------------------------------------------------------
      1          1           0       -0.147842    1.885125    1.032972
      2          1           0       -0.147842    1.885125   -1.032972
      3          5           0       -0.061553    1.303100    0.000000
      4         15           0       -0.061553   -0.562087   -0.000000
      5          1           0        0.763369   -0.927226    1.082244
      6          1           0        0.763369   -0.927226   -1.082244
 ---------------------------------------------------------------------

 SCF Done:  E(RHF) =  -367.802419051     A.U. after    2 cycles

 The electronic state is 1-A'.
 Alpha  occ. eigenvalues --  -84.26214  -7.61515  -6.73755  -4.26215  -4.26174
 Alpha  occ. eigenvalues --   -4.25337  -0.88377  -0.68570  -0.55060  -0.48467
 Alpha  occ. eigenvalues --   -0.46436  -0.34069
 Alpha virt. eigenvalues --    0.03811   0.04305   0.04446   0.04827   0.07923
 Alpha virt. eigenvalues --    0.08302   0.08376   0.10762   0.12073   0.12619
 Alpha virt. eigenvalues --    0.13999   0.14890   0.18145   0.20507   0.22158

 Mulliken charges:
               1
     1  H    0.241922
     2  H    0.241922
     3  B   -0.228947
     4  P   -0.909265
     5  H    0.327183
     6  H    0.327183
 Sum of Mulliken charges =   0.00000

 Dipole moment (field-independent basis, Debye):
    X=              0.5557    Y=             -0.1839    Z=              0.0000  Tot=              0.5853

 Test job not archived.
 1\1\GINC-SE049\SP\RHF\Aug-CC-pVDZ\B1H4P1\OHZDE\09-Apr-2025\0\\#t hf au
 g-cc-pvdz iop(5/13=1,5/36=2,99/5=2) pseudo=read geom=check guess=(read
 ,tcheck) scf=(maxcycle=1)\\title\\0,1\H,0,-0.147842,1.885125,1.032972\
 H,0,-0.147842,1.885125,-1.032972\B,0,-0.061553,1.3031,0.\P,0,-0.061553
 ,-0.562087,0.\H,0,0.763369,-0.927226,1.082244\H,0,0.763369,-0.927226,-
 1.082244\\Version=ES64L-G16RevC.01\State=1-A'\HF=-367.8024191\RMSD=3.4
 52e-02\Dipole=0.2186262,-0.0723381,0.\Quadrupole=-0.1735633,-0.4708222
 ,0.6443855,-0.6846833,0.,0.\PG=CS [SG(B1P1),X(H4)]\\@

 Normal termination of Gaussian 16 at Wed Apr  9 00:35:17 2025.
