 Gaussian 16, Revision C.01,

 ----------------------------------------------------------------------
 #t hf aug-cc-pvdz symm=none int=(grid=ultrafine) guess=(read,tcheck) s
 table=(opt,rrhf)
 ----------------------------------------------------------------------
 -----
 title
 -----
 Symbolic Z-matrix:
 Charge =  0 Multiplicity = 1

 SCF Done:  E(RHF) =  -560.216326894     A.U. after   12 cycles
 Normal termination of Gaussian 16 at Wed Apr  9 00:06:17 2025.
 Gaussian 16:  ES64L-G16RevC.01  3-Jul-2019

 ----------------------------------------------------------------------
 #t hf aug-cc-pvdz iop(5/13=1,5/36=2,99/5=2) pseudo=read geom=check gue
 ss=(read,tcheck) scf=(maxcycle=1)
 ----------------------------------------------------------------------
 -----
 title
 -----
 Structure from the checkpoint file:  "BDE49_nonexpt_2221_mol1.chk"
 Charge =  0 Multiplicity = 1

                         Standard orientation:
 ---------------------------------------------------------------------
 Center     Atomic      Atomic             Coordinates (Angstroms)
 Number     Number       Type             X           Y           Z
 ---------------------------------------------------------------------
      1          6           0       -0.018007    1.498207   -0.506255
      2          6           0        1.237390    1.292038    0.373803
      3         14           0       -1.162762    0.008269   -0.429972
      4          1           0        0.284644    1.631589   -1.554190
      5          1           0       -0.537561    2.421763   -0.225080
      6          6           0        2.002675   -0.008175    0.066296
      7          1           0        0.944076    1.285917    1.430691
      8          1           0        1.916822    2.143126    0.252126
      9          6           0       -0.038650   -1.485366   -0.518149
     10          6           0        1.217087   -1.298043    0.366013
     11          1           0        2.929085   -0.016854    0.650567
     12          1           0        2.307701   -0.006741   -0.989107
     13          1           0        0.265988   -1.622440   -1.564274
     14          1           0       -0.580511   -2.392636   -0.232506
     15          1           0        0.919384   -1.294440    1.421166
     16          1           0        1.884344   -2.158116    0.240965
     17          8           0       -1.967641   -0.095140    1.022971
     18          1           0       -2.573042    0.609342    1.263315
     19          1           0       -2.144105    0.052874   -1.548084
 ---------------------------------------------------------------------

 SCF Done:  E(RHF) =  -560.542256425     A.U. after    2 cycles

 The electronic state is 1-A.
 Alpha  occ. eigenvalues --  -69.53350 -20.53716 -11.22993 -11.22797 -11.22505
 Alpha  occ. eigenvalues --  -11.21095 -11.20796  -6.20102  -3.95563  -3.95415
 Alpha  occ. eigenvalues --   -3.95394  -1.42155  -1.08582  -1.00026  -0.93394
 Alpha  occ. eigenvalues --   -0.82776  -0.78174  -0.72761  -0.64517  -0.62774
 Alpha  occ. eigenvalues --   -0.60504  -0.59859  -0.55722  -0.54142  -0.52760
 Alpha  occ. eigenvalues --   -0.51451  -0.50170  -0.48377  -0.47441  -0.46252
 Alpha  occ. eigenvalues --   -0.42327  -0.39958
 Alpha virt. eigenvalues --    0.03157   0.03722   0.03887   0.04027   0.05736
 Alpha virt. eigenvalues --    0.06047   0.06232   0.06519   0.06727   0.09018
 Alpha virt. eigenvalues --    0.09227   0.09457   0.09672   0.10951   0.11993

 Mulliken charges:
               1
     1  C   -0.479382
     2  C   -0.359845
     3  Si   2.288325
     4  H    0.068847
     5  H    0.033946
     6  C   -0.260686
     7  H    0.145320
     8  H    0.103528
     9  C   -0.512312
    10  C   -0.343853
    11  H    0.111650
    12  H    0.160195
    13  H    0.086609
    14  H    0.047943
    15  H    0.155827
    16  H    0.099401
    17  O   -1.516164
    18  H    0.431165
    19  H   -0.260514
 Sum of Mulliken charges =  -0.00000

 Dipole moment (field-independent basis, Debye):
    X=              0.1791    Y=              1.0866    Z=             -0.2720  Tot=              1.1343

 Test job not archived.
 1\1\GINC-SE403\SP\RHF\Aug-CC-pVDZ\C5H12O1Si1\OHZDE\09-Apr-2025\0\\#t h
 f aug-cc-pvdz iop(5/13=1,5/36=2,99/5=2) pseudo=read geom=check guess=(
 read,tcheck) scf=(maxcycle=1)\\title\\0,1\C,0,-0.018007,1.498207,-0.50
 6255\C,0,1.23739,1.292038,0.373803\Si,0,-1.162762,0.008269,-0.429972\H
 ,0,0.284644,1.631589,-1.55419\H,0,-0.537561,2.421763,-0.22508\C,0,2.00
 2675,-0.008175,0.066296\H,0,0.944076,1.285917,1.430691\H,0,1.916822,2.
 143126,0.252126\C,0,-0.03865,-1.485366,-0.518149\C,0,1.217087,-1.29804
 3,0.366013\H,0,2.929085,-0.016854,0.650567\H,0,2.307701,-0.006741,-0.9

 Normal termination of Gaussian 16 at Wed Apr  9 00:06:25 2025.
