 Gaussian 16, Revision C.01,

 ----------------------------------------------------------------------
 #t hf aug-cc-pvdz symm=none int=(grid=ultrafine) guess=(read,tcheck) s
 table=(opt,rrhf)
 ----------------------------------------------------------------------
 -----
 title
 -----
 Symbolic Z-matrix:
 Charge =  0 Multiplicity = 1

 SCF Done:  E(RHF) =  -553.805071719     A.U. after   13 cycles
 Normal termination of Gaussian 16 at Wed Apr  9 00:06:30 2025.
 Gaussian 16:  ES64L-G16RevC.01  3-Jul-2019

 ----------------------------------------------------------------------
 #t hf aug-cc-pvdz iop(5/13=1,5/36=2,99/5=2) pseudo=read geom=check gue
 ss=(read,tcheck) scf=(maxcycle=1)
 ----------------------------------------------------------------------
 -----
 title
 -----
 Structure from the checkpoint file:  "BDE49_nonexpt_2248_mol1.chk"
 Charge =  0 Multiplicity = 1

                         Standard orientation:
 ---------------------------------------------------------------------
 Center     Atomic      Atomic             Coordinates (Angstroms)
 Number     Number       Type             X           Y           Z
 ---------------------------------------------------------------------
      1         14           0       -0.830429   -0.691958   -0.000002
      2          6           0        0.957655   -0.018805   -0.000041
      3          8           0       -1.707843    0.718066   -0.000010
      4          1           0       -2.667305    0.729038   -0.000004
      5          8           0        1.908813   -0.754997    0.000017
      6          8           0        1.104916    1.330723    0.000020
      7          1           0        0.222869    1.734700    0.000032
      8          1           0       -1.061270   -1.506902    1.210353
      9          1           0       -1.061302   -1.506930   -1.210331
 ---------------------------------------------------------------------

 SCF Done:  E(RHF) =  -554.095346239     A.U. after    2 cycles

 The electronic state is 1-A.
 Alpha  occ. eigenvalues --  -69.59323 -20.59807 -20.58641 -20.54273 -11.38005
 Alpha  occ. eigenvalues --   -6.25998  -4.01484  -4.01352  -4.01280  -1.53825
 Alpha  occ. eigenvalues --   -1.47192  -1.45386  -0.86769  -0.81352  -0.71994
 Alpha  occ. eigenvalues --   -0.68561  -0.65583  -0.62512  -0.58026  -0.56906
 Alpha  occ. eigenvalues --   -0.54981  -0.49420  -0.46724  -0.41979
 Alpha virt. eigenvalues --    0.01914   0.04502   0.04806   0.05081   0.07121
 Alpha virt. eigenvalues --    0.07304   0.08508   0.10577   0.11616   0.13037
 Alpha virt. eigenvalues --    0.13784   0.15374   0.15781   0.17539   0.19820

 Mulliken charges:
               1
     1  Si   1.706767
     2  C    1.326837
     3  O   -1.367415
     4  H    0.419720
     5  O   -1.073941
     6  O   -1.129861
     7  H    0.463768
     8  H   -0.172942
     9  H   -0.172934
 Sum of Mulliken charges =  -0.00000

 Dipole moment (field-independent basis, Debye):
    X=             -5.5197    Y=              0.4436    Z=             -0.0000  Tot=              5.5375

 Test job not archived.
 1\1\GINC-SE080\SP\RHF\Aug-CC-pVDZ\C1H4O3Si1\OHZDE\09-Apr-2025\0\\#t hf
  aug-cc-pvdz iop(5/13=1,5/36=2,99/5=2) pseudo=read geom=check guess=(r
 ead,tcheck) scf=(maxcycle=1)\\title\\0,1\Si,0,0.830429,-0.691958,0.000
 002\C,0,-0.957655,-0.018805,0.000041\O,0,1.707843,0.718066,0.00001\H,0
 ,2.667305,0.729038,0.000004\O,0,-1.908813,-0.754997,-0.000017\O,0,-1.1
 04916,1.330723,-0.00002\H,0,-0.222869,1.7347,-0.000032\H,0,1.06127,-1.
 506902,-1.210353\H,0,1.061302,-1.50693,1.210331\\Version=ES64L-G16RevC
 .01\State=1-A\HF=-554.0953462\RMSD=7.046e-03\Dipole=2.1716207,0.174508

 Normal termination of Gaussian 16 at Wed Apr  9 00:06:33 2025.
