 Gaussian 16, Revision C.01,

 ----------------------------------------------------------------------
 #t hf aug-cc-pvdz symm=none int=(grid=ultrafine) guess=(read,tcheck) s
 table=(opt,rrhf)
 ----------------------------------------------------------------------
 -----
 title
 -----
 Symbolic Z-matrix:
 Charge =  0 Multiplicity = 1

 SCF Done:  E(RHF) =  -1245.96347467     A.U. after   13 cycles
 Normal termination of Gaussian 16 at Wed Apr  9 00:08:44 2025.
 Gaussian 16:  ES64L-G16RevC.01  3-Jul-2019

 ----------------------------------------------------------------------
 #t hf aug-cc-pvdz iop(5/13=1,5/36=2,99/5=2) pseudo=read geom=check gue
 ss=(read,tcheck) scf=(maxcycle=1)
 ----------------------------------------------------------------------
 -----
 title
 -----
 Structure from the checkpoint file:  "BDE49_nonexpt_229_mol1.chk"
 Charge =  0 Multiplicity = 1

                         Standard orientation:
 ---------------------------------------------------------------------
 Center     Atomic      Atomic             Coordinates (Angstroms)
 Number     Number       Type             X           Y           Z
 ---------------------------------------------------------------------
      1         17           0        1.299844    1.634103   -0.298083
      2          5           0        1.119447   -0.094359   -0.025547
      3         17           0        2.546192   -1.121608    0.060324
      4          8           0       -0.084140   -0.709052    0.074910
      5          6           0       -1.305246   -0.116276    0.294476
      6          8           0       -1.507988    0.748596    1.090946
      7          8           0       -2.185763   -0.721394   -0.490239
      8          6           0       -3.548394   -0.265260   -0.342120
      9          1           0       -3.622063    0.791175   -0.601318
     10          1           0       -3.885493   -0.414478    0.683849
     11          1           0       -4.127336   -0.873298   -1.031959
 ---------------------------------------------------------------------

 SCF Done:  E(RHF) =  -1246.43211017     A.U. after    2 cycles

 The electronic state is 1-A.
 Alpha  occ. eigenvalues -- -105.58420-105.58176 -20.62440 -20.62360 -20.56617
 Alpha  occ. eigenvalues --  -11.47521 -11.32077 -10.63446 -10.63187  -7.80350
 Alpha  occ. eigenvalues --   -7.80093  -7.80043  -7.80011  -7.79790  -7.79753
 Alpha  occ. eigenvalues --   -7.76402  -1.61744  -1.52329  -1.49375  -1.11445
 Alpha  occ. eigenvalues --   -1.06924  -1.01436  -0.88656  -0.79239  -0.74282
 Alpha  occ. eigenvalues --   -0.72691  -0.67967  -0.65180  -0.64190  -0.61810
 Alpha  occ. eigenvalues --   -0.58281  -0.56579  -0.54467  -0.51296  -0.50746
 Alpha  occ. eigenvalues --   -0.49023  -0.48805  -0.48012  -0.46926
 Alpha virt. eigenvalues --    0.03194   0.04813   0.04990   0.05386   0.06359
 Alpha virt. eigenvalues --    0.06521   0.07026   0.09887   0.10843   0.12516
 Alpha virt. eigenvalues --    0.12828   0.13430   0.14290   0.14697   0.15510

 Mulliken charges:
               1
     1  Cl  -0.293346
     2  B    0.721380
     3  Cl  -0.334539
     4  O   -0.933777
     5  C    2.342200
     6  O   -0.887539
     7  O   -1.156353
     8  C    0.196752
     9  H    0.167637
    10  H    0.168937
    11  H    0.008648
 Sum of Mulliken charges =  -0.00000

 Dipole moment (field-independent basis, Debye):
    X=             -2.6487    Y=             -0.5720    Z=             -1.0720  Tot=              2.9141

 Test job not archived.
 1\1\GINC-SE339\SP\RHF\Aug-CC-pVDZ\C2H3B1Cl2O3\OHZDE\09-Apr-2025\0\\#t
 hf aug-cc-pvdz iop(5/13=1,5/36=2,99/5=2) pseudo=read geom=check guess=
 (read,tcheck) scf=(maxcycle=1)\\title\\0,1\Cl,0,1.299844,1.634103,-0.2
 98083\B,0,1.119447,-0.094359,-0.025547\Cl,0,2.546192,-1.121608,0.06032
 4\O,0,-0.08414,-0.709052,0.07491\C,0,-1.305246,-0.116276,0.294476\O,0,
 -1.507988,0.748596,1.090946\O,0,-2.185763,-0.721394,-0.490239\C,0,-3.5
 48394,-0.26526,-0.34212\H,0,-3.622063,0.791175,-0.601318\H,0,-3.885493
 ,-0.414478,0.683849\H,0,-4.127336,-0.873298,-1.031959\\Version=ES64L-G

 Normal termination of Gaussian 16 at Wed Apr  9 00:08:49 2025.
