 Gaussian 16, Revision C.01,

 ----------------------------------------------------------------------
 #t hf aug-cc-pvdz symm=none int=(grid=ultrafine) guess=(read,tcheck) s
 table=(opt,rrhf)
 ----------------------------------------------------------------------
 -----
 title
 -----
 Symbolic Z-matrix:
 Charge =  0 Multiplicity = 1

 SCF Done:  E(RHF) =  -905.232910119     A.U. after   12 cycles
 Normal termination of Gaussian 16 at Tue Apr  8 23:48:20 2025.
 Gaussian 16:  ES64L-G16RevC.01  3-Jul-2019

 ----------------------------------------------------------------------
 #t hf aug-cc-pvdz iop(5/13=1,5/36=2,99/5=2) pseudo=read geom=check gue
 ss=(read,tcheck) scf=(maxcycle=1)
 ----------------------------------------------------------------------
 -----
 title
 -----
 Structure from the checkpoint file:  "BDE49_nonexpt_1806_mol1.chk"
 Charge =  0 Multiplicity = 1

                         Standard orientation:
 ---------------------------------------------------------------------
 Center     Atomic      Atomic             Coordinates (Angstroms)
 Number     Number       Type             X           Y           Z
 ---------------------------------------------------------------------
      1         14           0       -0.415650   -0.086231    0.668689
      2          6           0        0.717175    1.385406    0.346087
      3          6           0        0.743907   -1.409902   -0.012612
      4          6           0        1.792933    0.803317   -0.605952
      5          1           0        1.174378    1.689571    1.295347
      6          1           0        0.211837    2.261311   -0.064197
      7          6           0        2.087525   -0.653265   -0.187551
      8          1           0        2.704959    1.407207   -0.603867
      9          1           0        1.410779    0.811356   -1.633128
     10          1           0        0.366697   -1.752668   -0.981327
     11          1           0        0.836594   -2.290865    0.626282
     12          1           0        2.736400   -1.150641   -0.914154
     13          1           0        2.630093   -0.647190    0.765221
     14         17           0       -2.204295    0.022657   -0.421695
     15          1           0       -0.828853   -0.259367    2.077166
 ---------------------------------------------------------------------

 SCF Done:  E(RHF) =  -905.517706977     A.U. after    2 cycles

 The electronic state is 1-A.
 Alpha  occ. eigenvalues -- -105.54662 -69.56179 -11.24243 -11.24141 -11.22495
 Alpha  occ. eigenvalues --  -11.22472 -10.59637  -7.76521  -7.76231  -7.76230
 Alpha  occ. eigenvalues --   -6.22931  -3.98338  -3.98183  -3.98148  -1.09786
 Alpha  occ. eigenvalues --   -1.03820  -0.97290  -0.89116  -0.78878  -0.69666
 Alpha  occ. eigenvalues --   -0.64713  -0.63484  -0.59369  -0.55298  -0.51039
 Alpha  occ. eigenvalues --   -0.50152  -0.49756  -0.48925  -0.48380  -0.47713
 Alpha  occ. eigenvalues --   -0.43547  -0.41607
 Alpha virt. eigenvalues --    0.03295   0.03782   0.03868   0.04213   0.06019
 Alpha virt. eigenvalues --    0.06447   0.06659   0.06748   0.07017   0.09578
 Alpha virt. eigenvalues --    0.09706   0.10963   0.13098   0.13882   0.14172

 Mulliken charges:
               1
     1  Si   1.484162
     2  C   -0.511878
     3  C   -0.497916
     4  C   -0.345489
     5  H    0.097215
     6  H    0.135325
     7  C   -0.327631
     8  H    0.113074
     9  H    0.123862
    10  H    0.147907
    11  H    0.076534
    12  H    0.120319
    13  H    0.117231
    14  Cl  -0.631215
    15  H   -0.101501
 Sum of Mulliken charges =  -0.00000

 Dipole moment (field-independent basis, Debye):
    X=              2.3950    Y=             -0.0406    Z=              0.5914  Tot=              2.4673

 Test job not archived.
 1\1\GINC-SE094\SP\RHF\Aug-CC-pVDZ\C4H9Cl1Si1\OHZDE\08-Apr-2025\0\\#t h
 f aug-cc-pvdz iop(5/13=1,5/36=2,99/5=2) pseudo=read geom=check guess=(
 read,tcheck) scf=(maxcycle=1)\\title\\0,1\Si,0,-0.41565,-0.086231,0.66
 8689\C,0,0.717175,1.385406,0.346087\C,0,0.743907,-1.409902,-0.012612\C
 ,0,1.792933,0.803317,-0.605952\H,0,1.174378,1.689571,1.295347\H,0,0.21
 1837,2.261311,-0.064197\C,0,2.087525,-0.653265,-0.187551\H,0,2.704959,
 1.407207,-0.603867\H,0,1.410779,0.811356,-1.633128\H,0,0.366697,-1.752
 668,-0.981327\H,0,0.836594,-2.290865,0.626282\H,0,2.7364,-1.150641,-0.

 Normal termination of Gaussian 16 at Tue Apr  8 23:48:26 2025.
