 Gaussian 16, Revision C.01,

 ----------------------------------------------------------------------
 #t hf aug-cc-pvdz symm=none int=(grid=ultrafine) guess=(read,tcheck) s
 table=(opt,rrhf)
 ----------------------------------------------------------------------
 -----
 title
 -----
 Symbolic Z-matrix:
 Charge =  0 Multiplicity = 1

 SCF Done:  E(RHF) =  -306.709454260     A.U. after   14 cycles
 Normal termination of Gaussian 16 at Tue Apr  8 23:20:54 2025.
 Gaussian 16:  ES64L-G16RevC.01  3-Jul-2019

 ----------------------------------------------------------------------
 #t hf aug-cc-pvdz iop(5/13=1,5/36=2,99/5=2) pseudo=read geom=check gue
 ss=(read,tcheck) scf=(maxcycle=1)
 ----------------------------------------------------------------------
 -----
 title
 -----
 Structure from the checkpoint file:  "BDE49_nonexpt_1153_mol1.chk"
 Charge =  0 Multiplicity = 1

                         Standard orientation:
 ---------------------------------------------------------------------
 Center     Atomic      Atomic             Coordinates (Angstroms)
 Number     Number       Type             X           Y           Z
 ---------------------------------------------------------------------
      1          9           0        1.831897   -0.201531   -0.000012
      2          8           0        0.527162   -0.797671   -0.000005
      3          6           0       -0.441322    0.209338    0.000002
      4          6           0       -1.771614   -0.488860    0.000014
      5          7           0       -0.264635    1.449146    0.000002
      6          1           0       -1.878008   -1.120443   -0.884644
      7          1           0       -2.543926    0.277770    0.000013
      8          1           0       -1.877998   -1.120431    0.884682
      9          1           0        0.725619    1.691351   -0.000005
 ---------------------------------------------------------------------

 SCF Done:  E(RHF) =  -307.010286688     A.U. after    2 cycles

 The electronic state is 1-A.
 Alpha  occ. eigenvalues --  -26.53128 -20.70699 -15.50750 -11.37718 -11.26828
 Alpha  occ. eigenvalues --   -1.68989  -1.40723  -1.23268  -1.02749  -0.82588
 Alpha  occ. eigenvalues --   -0.78225  -0.73268  -0.71532  -0.63134  -0.62098
 Alpha  occ. eigenvalues --   -0.60460  -0.58498  -0.55835  -0.50251  -0.47102
 Alpha virt. eigenvalues --    0.03502   0.05148   0.05204   0.05913   0.09340
 Alpha virt. eigenvalues --    0.11823   0.12103   0.12728   0.14185   0.14626
 Alpha virt. eigenvalues --    0.15231   0.15315   0.16970   0.18822   0.20899

 Mulliken charges:
               1
     1  F   -0.422958
     2  O   -0.539850
     3  C   -0.048270
     4  C   -0.410489
     5  N    0.581195
     6  H    0.231405
     7  H    0.200413
     8  H    0.231407
     9  H    0.177148
 Sum of Mulliken charges =   0.00000

 Dipole moment (field-independent basis, Debye):
    X=             -1.1668    Y=             -1.5120    Z=              0.0000  Tot=              1.9099

 Test job not archived.
 1\1\GINC-SE096\SP\RHF\Aug-CC-pVDZ\C2H4F1N1O1\OHZDE\08-Apr-2025\0\\#t h
 f aug-cc-pvdz iop(5/13=1,5/36=2,99/5=2) pseudo=read geom=check guess=(
 read,tcheck) scf=(maxcycle=1)\\title\\0,1\F,0,1.831897,-0.201531,-0.00
 0012\O,0,0.527162,-0.797671,-0.000005\C,0,-0.441322,0.209338,0.000002\
 C,0,-1.771614,-0.48886,0.000014\N,0,-0.264635,1.449146,0.000002\H,0,-1
 .878008,-1.120443,-0.884644\H,0,-2.543926,0.27777,0.000013\H,0,-1.8779
 98,-1.120431,0.884682\H,0,0.725619,1.691351,-0.000005\\Version=ES64L-G
 16RevC.01\State=1-A\HF=-307.0102867\RMSD=1.522e-02\Dipole=-0.4590678,-

 Normal termination of Gaussian 16 at Tue Apr  8 23:20:56 2025.
