 Gaussian 16, Revision C.01,

 ----------------------------------------------------------------------
 #t hf aug-cc-pvdz symm=none int=(grid=ultrafine) guess=(read,tcheck) s
 table=(opt,rrhf)
 ----------------------------------------------------------------------
 -----
 title
 -----
 Symbolic Z-matrix:
 Charge =  0 Multiplicity = 1

 SCF Done:  E(RHF) =  -647.728471447     A.U. after   15 cycles
 Normal termination of Gaussian 16 at Wed Apr  9 00:07:59 2025.
 Gaussian 16:  ES64L-G16RevC.01  3-Jul-2019

 ----------------------------------------------------------------------
 #t hf aug-cc-pvdz iop(5/13=1,5/36=2,99/5=2) pseudo=read geom=check gue
 ss=(read,tcheck) scf=(maxcycle=1)
 ----------------------------------------------------------------------
 -----
 title
 -----
 Structure from the checkpoint file:  "BDE49_nonexpt_2258_mol1.chk"
 Charge =  0 Multiplicity = 1

                         Standard orientation:
 ---------------------------------------------------------------------
 Center     Atomic      Atomic             Coordinates (Angstroms)
 Number     Number       Type             X           Y           Z
 ---------------------------------------------------------------------
      1          8           0        0.589518   -0.000079   -0.919369
      2          7           0        1.543704   -0.000044    0.093955
      3          8           0        1.119720    0.000105    1.236032
      4          8           0        2.679589   -0.000033   -0.282251
      5         14           0       -1.099665   -0.000018   -0.506442
      6          6           0       -1.568490   -1.566018    0.387289
      7          1           0       -1.205870   -2.446523   -0.149688
      8          1           0       -2.659628   -1.638603    0.444883
      9          1           0       -1.168981   -1.588184    1.402533
     10          6           0       -1.568406    1.566087    0.387147
     11          1           0       -2.659540    1.638734    0.444738
     12          1           0       -1.205741    2.446525   -0.149909
     13          1           0       -1.168895    1.588323    1.402389
     14          1           0       -1.631214   -0.000068   -1.884341
 ---------------------------------------------------------------------

 SCF Done:  E(RHF) =  -648.115301365     A.U. after    2 cycles

 The electronic state is 1-A.
 Alpha  occ. eigenvalues --  -69.57929 -20.63174 -20.61923 -20.61216 -15.86246
 Alpha  occ. eigenvalues --  -11.23359 -11.23356  -6.24541  -3.99996  -3.99826
 Alpha  occ. eigenvalues --   -3.99790  -1.73355  -1.55456  -1.50230  -0.99887
 Alpha  occ. eigenvalues --   -0.95951  -0.95589  -0.83904  -0.80160  -0.79067
 Alpha  occ. eigenvalues --   -0.69192  -0.62249  -0.59253  -0.58597  -0.57333
 Alpha  occ. eigenvalues --   -0.56402  -0.54979  -0.53154  -0.50176  -0.48298
 Alpha  occ. eigenvalues --   -0.48154  -0.46659
 Alpha virt. eigenvalues --    0.02930   0.03900   0.04408   0.04587   0.06262
 Alpha virt. eigenvalues --    0.06428   0.06677   0.07497   0.08295   0.10183
 Alpha virt. eigenvalues --    0.10262   0.13177   0.14207   0.14709   0.15221

 Mulliken charges:
               1
     1  O   -1.503590
     2  N    2.842008
     3  O   -1.205837
     4  O   -1.138287
     5  Si   2.339914
     6  C   -0.612315
     7  H   -0.026824
     8  H    0.023324
     9  H    0.103727
    10  C   -0.612317
    11  H    0.023320
    12  H   -0.026824
    13  H    0.103741
    14  H   -0.310041
 Sum of Mulliken charges =  -0.00000

 Dipole moment (field-independent basis, Debye):
    X=             -3.6146    Y=             -0.0000    Z=             -0.0064  Tot=              3.6146

 Test job not archived.
 1\1\GINC-SE273\SP\RHF\Aug-CC-pVDZ\C2H7N1O3Si1\OHZDE\09-Apr-2025\0\\#t
 hf aug-cc-pvdz iop(5/13=1,5/36=2,99/5=2) pseudo=read geom=check guess=
 (read,tcheck) scf=(maxcycle=1)\\title\\0,1\O,0,0.589518,-0.000079,-0.9
 19369\N,0,1.543704,-0.000044,0.093955\O,0,1.11972,0.000105,1.236032\O,
 0,2.679589,-0.000033,-0.282251\Si,0,-1.099665,-0.000018,-0.506442\C,0,
 -1.56849,-1.566018,0.387289\H,0,-1.20587,-2.446523,-0.149688\H,0,-2.65
 9628,-1.638603,0.444883\H,0,-1.168981,-1.588184,1.402533\C,0,-1.568406
 ,1.566087,0.387147\H,0,-2.65954,1.638734,0.444738\H,0,-1.205741,2.4465

 Normal termination of Gaussian 16 at Wed Apr  9 00:08:05 2025.
