 Gaussian 16, Revision C.01,

 ----------------------------------------------------------------------
 #t hf aug-cc-pvdz symm=none int=(grid=ultrafine) guess=(read,tcheck) s
 table=opt
 ----------------------------------------------------------------------
 -----
 title
 -----
 Symbolic Z-matrix:
 Charge =  0 Multiplicity = 2

 SCF Done:  E(UHF) =  -839.873512699     A.U. after   16 cycles
 Normal termination of Gaussian 16 at Tue Apr  8 23:35:04 2025.
 Gaussian 16:  ES64L-G16RevC.01  3-Jul-2019

 ----------------------------------------------------------------------
 #t hf aug-cc-pvdz iop(5/13=1,5/36=2,99/5=2) pseudo=read geom=check gue
 ss=(read,tcheck) scf=(maxcycle=1)
 ----------------------------------------------------------------------
 -----
 title
 -----
 Structure from the checkpoint file:  "BDE49_nonexpt_1500_mol2.chk"
 Charge =  0 Multiplicity = 2

                         Standard orientation:
 ---------------------------------------------------------------------
 Center     Atomic      Atomic             Coordinates (Angstroms)
 Number     Number       Type             X           Y           Z
 ---------------------------------------------------------------------
      1         15           0        0.490871   -0.759097    0.000029
      2          6           0        1.636090    0.687352    0.000071
      3          1           0        1.494857    1.307233   -0.889216
      4          1           0        2.657496    0.293635    0.000123
      5         17           0       -1.342749    0.256131   -0.000065
      6          1           0        1.494772    1.307248    0.889335
 ---------------------------------------------------------------------

 SCF Done:  E(UHF) =  -840.035279467     A.U. after    2 cycles

 The electronic state is 2-A.
 Alpha  occ. eigenvalues -- -105.56380 -84.33316 -11.25910 -10.61276  -7.78112
 Alpha  occ. eigenvalues --   -7.77947  -7.77788  -6.80195  -4.32429  -4.31838
 Alpha  occ. eigenvalues --   -4.31300  -1.07898  -0.98942  -0.77626  -0.60664
 Alpha  occ. eigenvalues --   -0.60453  -0.52705  -0.49981  -0.48213  -0.39822
 Alpha  occ. eigenvalues --   -0.32452
 Alpha virt. eigenvalues --    0.03523   0.05164   0.05601   0.07172   0.07995
 Alpha virt. eigenvalues --    0.11215   0.11410   0.13719   0.14373   0.14837
 Alpha virt. eigenvalues --    0.16847   0.17862   0.18617   0.18635   0.20584

  Beta  occ. eigenvalues -- -105.56314 -84.32611 -11.26037 -10.61206  -7.78156
  Beta  occ. eigenvalues --   -7.77750  -7.77608  -6.79299  -4.31307  -4.30956
  Beta  occ. eigenvalues --   -4.28938  -1.06496  -0.98419  -0.72060  -0.60245
  Beta  occ. eigenvalues --   -0.59040  -0.52255  -0.47770  -0.47343  -0.37975
  Beta virt. eigenvalues --    0.03569   0.04047   0.05237   0.05906   0.07349
  Beta virt. eigenvalues --    0.08414   0.11423   0.13418   0.13912   0.15164
  Beta virt. eigenvalues --    0.15589   0.17248   0.18532   0.18730   0.19080

 Mulliken charges and spin densities:
               1          2
     1  P    1.036135   1.070160
     2  C   -0.895769  -0.089820
     3  H    0.134526   0.013901
     4  H    0.105520  -0.004553
     5  Cl  -0.514940  -0.003588
     6  H    0.134528   0.013901
 Sum of Mulliken charges =  -0.00000   1.00000

 Dipole moment (field-independent basis, Debye):
    X=              2.4321    Y=              0.1093    Z=              0.0001  Tot=              2.4345
                          Isotropic Fermi Contact Couplings
        Atom                 a.u.       MegaHertz       Gauss      10(-4) cm-1
     1  P(31)              0.23921     433.23650     154.58956     144.51214
     2  C(13)             -0.02276     -25.58696      -9.13006      -8.53489
     3  H(1)               0.01109      49.56230      17.68506      16.53220
     4  H(1)               0.00000       0.02112       0.00754       0.00705
     5  Cl(35)             0.03814      16.72098       5.96646       5.57752
     6  H(1)               0.01109      49.56231      17.68506      16.53221
 --------------------------------------------------------
       Center         ----  Spin Dipole Couplings  ----

 Normal termination of Gaussian 16 at Tue Apr  8 23:35:05 2025.
