 Gaussian 16, Revision C.01,

 ----------------------------------------------------------------------
 #t hf aug-cc-pvdz symm=none int=(grid=ultrafine) guess=(read,tcheck) s
 table=(opt,rrhf)
 ----------------------------------------------------------------------
 -----
 title
 -----
 Symbolic Z-matrix:
 Charge =  0 Multiplicity = 1

 SCF Done:  E(RHF) =  -135.287434052     A.U. after   13 cycles
 Normal termination of Gaussian 16 at Wed Apr  9 00:36:17 2025.
 Gaussian 16:  ES64L-G16RevC.01  3-Jul-2019

 ----------------------------------------------------------------------
 #t hf aug-cc-pvdz iop(5/13=1,5/36=2,99/5=2) pseudo=read geom=check gue
 ss=(read,tcheck) scf=(maxcycle=1)
 ----------------------------------------------------------------------
 -----
 title
 -----
 Structure from the checkpoint file:  "BDE49_nonexpt_522_mol1.chk"
 Charge =  0 Multiplicity = 1

                         Standard orientation:
 ---------------------------------------------------------------------
 Center     Atomic      Atomic             Coordinates (Angstroms)
 Number     Number       Type             X           Y           Z
 ---------------------------------------------------------------------
      1          1           0       -1.878972   -1.053742    0.017894
      2          5           0       -1.327677    0.000229    0.004586
      3          1           0       -1.877536    1.054960    0.018025
      4          7           0        0.020719   -0.000603    0.024527
      5          7           0        1.220777    0.000234   -0.143934
      6          1           0        1.704419    0.000224    0.777002
 ---------------------------------------------------------------------

 SCF Done:  E(RHF) =  -135.421922860     A.U. after    2 cycles

 The electronic state is 1-A.
 Alpha  occ. eigenvalues --  -15.59866 -15.58668  -7.60463  -1.39315  -1.03251
 Alpha  occ. eigenvalues --   -0.83317  -0.68909  -0.63376  -0.60814  -0.48838
 Alpha  occ. eigenvalues --   -0.42495
 Alpha virt. eigenvalues --    0.03340   0.04705   0.04924   0.05587   0.06441
 Alpha virt. eigenvalues --    0.06940   0.10149   0.10354   0.13591   0.13913
 Alpha virt. eigenvalues --    0.17302   0.20308   0.20909   0.21568   0.22948

 Mulliken charges:
               1
     1  H    0.107274
     2  B   -0.341809
     3  H    0.107423
     4  N   -0.199470
     5  N    0.141915
     6  H    0.184667
 Sum of Mulliken charges =  -0.00000

 Dipole moment (field-independent basis, Debye):
    X=              0.1657    Y=              0.0003    Z=              1.4219  Tot=              1.4315

 Test job not archived.
 1\1\GINC-SE116\SP\RHF\Aug-CC-pVDZ\B1H3N2\OHZDE\09-Apr-2025\0\\#t hf au
 g-cc-pvdz iop(5/13=1,5/36=2,99/5=2) pseudo=read geom=check guess=(read
 ,tcheck) scf=(maxcycle=1)\\title\\0,1\H,0,-1.878972,-1.053742,0.017894
 \B,0,-1.327677,0.000229,0.004586\H,0,-1.877536,1.05496,0.018025\N,0,0.
 020719,-0.000603,0.024527\N,0,1.220777,0.000234,-0.143934\H,0,1.704419
 ,0.000224,0.777002\\Version=ES64L-G16RevC.01\State=1-A\HF=-135.4219229
 \RMSD=4.375e-02\Dipole=0.0651786,0.0001353,0.5594217\Quadrupole=0.6250
 667,-0.5454719,-0.0795947,-0.0003687,2.2478921,0.0005639\PG=C01 [X(B1H

 Normal termination of Gaussian 16 at Wed Apr  9 00:36:19 2025.
