 Gaussian 16, Revision C.01,

 ----------------------------------------------------------------------
 #t hf aug-cc-pvdz symm=none int=(grid=ultrafine) guess=(read,tcheck) s
 table=opt
 ----------------------------------------------------------------------
 -----
 title
 -----
 Symbolic Z-matrix:
 Charge =  0 Multiplicity = 2

 SCF Done:  E(UHF) =  -601.872751807     A.U. after   15 cycles
 Normal termination of Gaussian 16 at Tue Apr  8 23:49:36 2025.
 Gaussian 16:  ES64L-G16RevC.01  3-Jul-2019

 ----------------------------------------------------------------------
 #t hf aug-cc-pvdz iop(5/13=1,5/36=2,99/5=2) pseudo=read geom=check gue
 ss=(read,tcheck) scf=(maxcycle=1)
 ----------------------------------------------------------------------
 -----
 title
 -----
 Structure from the checkpoint file:  "BDE49_nonexpt_183_mol2.chk"
 Charge =  0 Multiplicity = 2

                         Standard orientation:
 ---------------------------------------------------------------------
 Center     Atomic      Atomic             Coordinates (Angstroms)
 Number     Number       Type             X           Y           Z
 ---------------------------------------------------------------------
      1         17           0        2.102449   -0.358328   -0.000001
      2          5           0        0.993108    0.991856    0.000002
      3          6           0       -0.558767    0.939440    0.000001
      4          6           0       -1.252995   -0.438323    0.000001
      5          1           0       -0.891349    1.536013    0.863742
      6          6           0       -2.780449   -0.334775   -0.000001
      7          1           0       -0.922148   -1.008446    0.873951
      8          1           0       -0.922147   -1.008447   -0.873949
      9          1           0       -3.141102    0.201976    0.883044
     10          1           0       -3.244707   -1.324829   -0.000001
     11          1           0       -0.891347    1.536012   -0.863742
     12          1           0       -3.141101    0.201976   -0.883046
 ---------------------------------------------------------------------

 SCF Done:  E(UHF) =  -602.102854847     A.U. after    2 cycles

 The electronic state is 2-A.
 Alpha  occ. eigenvalues -- -105.57082 -11.23945 -11.22983 -11.22898 -10.62102
 Alpha  occ. eigenvalues --   -7.79034  -7.78716  -7.78672  -7.66908  -1.08902
 Alpha  occ. eigenvalues --   -1.06024  -0.94702  -0.82407  -0.67577  -0.64219
 Alpha  occ. eigenvalues --   -0.60019  -0.57462  -0.55404  -0.51286  -0.50324
 Alpha  occ. eigenvalues --   -0.49303  -0.48518  -0.48247  -0.33783
 Alpha virt. eigenvalues --    0.03706   0.03765   0.03849   0.04137   0.06104
 Alpha virt. eigenvalues --    0.06292   0.06709   0.07359   0.08823   0.09346
 Alpha virt. eigenvalues --    0.10551   0.10895   0.12619   0.14514   0.14911

  Beta  occ. eigenvalues -- -105.57004 -11.23819 -11.22889 -11.22867 -10.62010
  Beta  occ. eigenvalues --   -7.78893  -7.78682  -7.78473  -7.64930  -1.07978
  Beta  occ. eigenvalues --   -1.05558  -0.94169  -0.81954  -0.64945  -0.64132
  Beta  occ. eigenvalues --   -0.59339  -0.55654  -0.55287  -0.49830  -0.49287
  Beta  occ. eigenvalues --   -0.49071  -0.48520  -0.46983
  Beta virt. eigenvalues --    0.03286   0.03807   0.03855   0.04008   0.06263
  Beta virt. eigenvalues --    0.06533   0.06705   0.07489   0.08586   0.09372
  Beta virt. eigenvalues --    0.10138   0.11621   0.11626   0.14146   0.14620

 Mulliken charges and spin densities:
               1          2
     1  Cl  -0.248951   0.002249
     2  B    0.109031   1.016368
     3  C   -0.125205  -0.029861
     4  C   -0.447634   0.042901
     5  H    0.199552  -0.012031
     6  C   -0.379522  -0.002837
     7  H    0.120267  -0.003091
     8  H    0.120269  -0.003091
     9  H    0.164274  -0.000053
    10  H    0.124093   0.001530
    11  H    0.199553  -0.012032
    12  H    0.164273  -0.000053
 Sum of Mulliken charges =  -0.00000   1.00000

 Dipole moment (field-independent basis, Debye):
    X=             -1.6165    Y=              0.1789    Z=             -0.0000  Tot=              1.6264
                          Isotropic Fermi Contact Couplings
        Atom                 a.u.       MegaHertz       Gauss      10(-4) cm-1
     1  Cl(35)             0.08342      36.57693      13.05156      12.20075
     2  B(11)              0.32279     463.00372     165.21124     154.44142
     3  C(13)              0.03550      39.90520      14.23917      13.31094
     4  C(13)              0.02435      27.37031       9.76641       9.12975
     5  H(1)              -0.00000      -0.01800      -0.00642      -0.00600
     6  C(13)              0.00196       2.20728       0.78761       0.73627
     7  H(1)              -0.00079      -3.51155      -1.25301      -1.17133
     8  H(1)              -0.00079      -3.51156      -1.25301      -1.17133

 Normal termination of Gaussian 16 at Tue Apr  8 23:49:40 2025.
