 Gaussian 16, Revision C.01,

 ----------------------------------------------------------------------
 #t hf aug-cc-pvdz symm=none int=(grid=ultrafine) guess=(read,tcheck) s
 table=(opt,rrhf)
 ----------------------------------------------------------------------
 -----
 title
 -----
 Symbolic Z-matrix:
 Charge =  0 Multiplicity = 1

 SCF Done:  E(RHF) =  -265.687290830     A.U. after   14 cycles
 Normal termination of Gaussian 16 at Tue Apr  8 22:36:25 2025.
 Gaussian 16:  ES64L-G16RevC.01  3-Jul-2019

 ----------------------------------------------------------------------
 #t hf aug-cc-pvdz iop(5/13=1,5/36=2,99/5=2) pseudo=read geom=check gue
 ss=(read,tcheck) scf=(maxcycle=1)
 ----------------------------------------------------------------------
 -----
 title
 -----
 Structure from the checkpoint file:  "BDE49_expt_1112_mol1.chk"
 Charge =  0 Multiplicity = 1

                         Standard orientation:
 ---------------------------------------------------------------------
 Center     Atomic      Atomic             Coordinates (Angstroms)
 Number     Number       Type             X           Y           Z
 ---------------------------------------------------------------------
      1          6           0       -0.781266   -0.636706   -0.000002
      2          6           0        0.498281    0.136862   -0.000007
      3          8           0        0.566568    1.334995    0.000003
      4          8           0        1.633366   -0.613373    0.000003
      5          1           0        1.416852   -1.552681    0.000004
      6          6           0       -1.951777   -0.005437    0.000000
      7          1           0       -0.736231   -1.723065   -0.000001
      8          1           0       -1.979898    1.078519    0.000000
      9          1           0       -2.891618   -0.544059    0.000003
 ---------------------------------------------------------------------

 SCF Done:  E(RHF) =  -265.952278482     A.U. after    2 cycles

 The electronic state is 1-A.
 Alpha  occ. eigenvalues --  -20.60530 -20.53329 -11.40014 -11.28251 -11.27424
 Alpha  occ. eigenvalues --   -1.54465  -1.45548  -1.09239  -0.89920  -0.81818
 Alpha  occ. eigenvalues --   -0.74007  -0.68360  -0.64725  -0.63035  -0.58698
 Alpha  occ. eigenvalues --   -0.56215  -0.48377  -0.44922  -0.41349
 Alpha virt. eigenvalues --    0.02455   0.03576   0.05375   0.06201   0.06764
 Alpha virt. eigenvalues --    0.10417   0.10436   0.12174   0.13104   0.13303
 Alpha virt. eigenvalues --    0.14102   0.14761   0.14838   0.16015   0.18490

 Mulliken charges:
               1
     1  C    0.611476
     2  C    1.833189
     3  O   -1.196243
     4  O   -1.244697
     5  H    0.428207
     6  C   -0.103135
     7  H   -0.267663
     8  H   -0.009085
     9  H   -0.052049
 Sum of Mulliken charges =  -0.00000

 Dipole moment (field-independent basis, Debye):
    X=             -2.5933    Y=             -3.8317    Z=             -0.0000  Tot=              4.6268

 Test job not archived.
 1\1\GINC-SE227\SP\RHF\Aug-CC-pVDZ\C3H4O2\OHZDE\08-Apr-2025\0\\#t hf au
 g-cc-pvdz iop(5/13=1,5/36=2,99/5=2) pseudo=read geom=check guess=(read
 ,tcheck) scf=(maxcycle=1)\\title\\0,1\C,0,0.781266,-0.636706,0.000002\
 C,0,-0.498281,0.136862,0.000007\O,0,-0.566568,1.334995,-0.000003\O,0,-
 1.633366,-0.613373,-0.000003\H,0,-1.416853,-1.552681,-0.000004\C,0,1.9
 51777,-0.005438,0.\H,0,0.73623,-1.723065,0.000001\H,0,1.979898,1.07851
 8,0.\H,0,2.891618,-0.54406,-0.000003\\Version=ES64L-G16RevC.01\State=1
 -A\HF=-265.9522785\RMSD=1.485e-02\Dipole=1.0202734,-1.5075222,0.000006

 Normal termination of Gaussian 16 at Tue Apr  8 22:36:27 2025.
