 Gaussian 16, Revision C.01,

 ----------------------------------------------------------------------
 #t hf aug-cc-pvdz symm=none int=(grid=ultrafine) guess=(read,tcheck) s
 table=(opt,rrhf)
 ----------------------------------------------------------------------
 -----
 title
 -----
 Symbolic Z-matrix:
 Charge =  0 Multiplicity = 1

 SCF Done:  E(RHF) =  -253.783494555     A.U. after   12 cycles
 Normal termination of Gaussian 16 at Tue Apr  8 22:52:37 2025.
 Gaussian 16:  ES64L-G16RevC.01  3-Jul-2019

 ----------------------------------------------------------------------
 #t hf aug-cc-pvdz iop(5/13=1,5/36=2,99/5=2) pseudo=read geom=check gue
 ss=(read,tcheck) scf=(maxcycle=1)
 ----------------------------------------------------------------------
 -----
 title
 -----
 Structure from the checkpoint file:  "BDE49_expt_1813_mol1.chk"
 Charge =  0 Multiplicity = 1

                         Standard orientation:
 ---------------------------------------------------------------------
 Center     Atomic      Atomic             Coordinates (Angstroms)
 Number     Number       Type             X           Y           Z
 ---------------------------------------------------------------------
      1          7           0       -0.000032    0.564353   -0.166313
      2          9           0       -1.101991   -0.278753    0.024130
      3          1           0       -0.000379    1.066447    0.729648
      4          9           0        1.102059   -0.278682    0.024153
 ---------------------------------------------------------------------

 SCF Done:  E(RHF) =  -254.018889938     A.U. after    2 cycles

 The electronic state is 1-A.
 Alpha  occ. eigenvalues --  -26.51498 -26.51494 -15.72635  -1.67566  -1.58909
 Alpha  occ. eigenvalues --   -1.13644  -0.82533  -0.76966  -0.75813  -0.66323
 Alpha  occ. eigenvalues --   -0.63062  -0.62116  -0.53503
 Alpha virt. eigenvalues --    0.03289   0.11910   0.11984   0.14114   0.17517
 Alpha virt. eigenvalues --    0.22391   0.22886   0.24485   0.25849   0.28062
 Alpha virt. eigenvalues --    0.28246   0.29102   0.36609   0.37496   0.43644

 Mulliken charges:
               1
     1  N    1.046823
     2  F   -0.560473
     3  H    0.074062
     4  F   -0.560412
 Sum of Mulliken charges =  -0.00000

 Dipole moment (field-independent basis, Debye):
    X=             -0.0006    Y=              1.3673    Z=              1.4598  Tot=              2.0001

 Test job not archived.
 1\1\GINC-SE095\SP\RHF\Aug-CC-pVDZ\F2H1N1\OHZDE\08-Apr-2025\0\\#t hf au
 g-cc-pvdz iop(5/13=1,5/36=2,99/5=2) pseudo=read geom=check guess=(read
 ,tcheck) scf=(maxcycle=1)\\title\\0,1\N,0,-0.000032,0.564353,-0.166313
 \F,0,-1.101991,-0.278753,0.02413\H,0,-0.000379,1.066447,0.729648\F,0,1
 .102059,-0.278682,0.024153\\Version=ES64L-G16RevC.01\State=1-A\HF=-254
 .0188899\RMSD=9.075e-03\Dipole=-0.00023,0.5379212,0.5743393\Quadrupole
 =-1.0324888,0.7776224,0.2548664,-0.0006074,-0.000447,1.4395631\PG=C01
 [X(F2H1N1)]\\@

 Normal termination of Gaussian 16 at Tue Apr  8 22:52:39 2025.
