 Gaussian 16, Revision C.01,

 ----------------------------------------------------------------------
 #t hf aug-cc-pvdz symm=none int=(grid=ultrafine) guess=(read,tcheck) s
 table=opt
 ----------------------------------------------------------------------
 -----
 title
 -----
 Symbolic Z-matrix:
 Charge =  0 Multiplicity = 2

 SCF Done:  E(UHF) =  -820.922020987     A.U. after   15 cycles
 Normal termination of Gaussian 16 at Wed Apr  9 00:47:54 2025.
 Gaussian 16:  ES64L-G16RevC.01  3-Jul-2019

 ----------------------------------------------------------------------
 #t hf aug-cc-pvdz iop(5/13=1,5/36=2,99/5=2) pseudo=read geom=check gue
 ss=(read,tcheck) scf=(maxcycle=1)
 ----------------------------------------------------------------------
 -----
 title
 -----
 Structure from the checkpoint file:  "BDE49_nonexpt_868_mol3.chk"
 Charge =  0 Multiplicity = 2

                         Standard orientation:
 ---------------------------------------------------------------------
 Center     Atomic      Atomic             Coordinates (Angstroms)
 Number     Number       Type             X           Y           Z
 ---------------------------------------------------------------------
      1          5           0        0.000000    0.638836    0.000003
      2         16           0        1.591438   -0.159621   -0.000005
      3         16           0       -1.591438   -0.159621    0.000004
      4          1           0       -2.344198    0.956843    0.000010
      5          1           0        2.344198    0.956843   -0.000003
 ---------------------------------------------------------------------

 SCF Done:  E(UHF) =  -821.062748281     A.U. after    2 cycles

 The electronic state is 2-A.
 Alpha  occ. eigenvalues --  -93.96823 -93.96820  -8.25143  -8.25113  -7.67338
 Alpha  occ. eigenvalues --   -6.22974  -6.22957  -6.22869  -6.22854  -6.22620
 Alpha  occ. eigenvalues --   -6.22615  -1.06175  -1.02056  -0.68486  -0.57191
 Alpha  occ. eigenvalues --   -0.56228  -0.50502  -0.45128  -0.38380  -0.34556
 Alpha virt. eigenvalues --    0.03553   0.04537   0.05345   0.05368   0.08262
 Alpha virt. eigenvalues --    0.08910   0.09112   0.12002   0.12940   0.13368
 Alpha virt. eigenvalues --    0.13472   0.16589   0.16826   0.17795   0.19245

  Beta  occ. eigenvalues --  -93.96835 -93.96833  -8.25163  -8.25133  -7.65330
  Beta  occ. eigenvalues --   -6.22992  -6.22986  -6.22775  -6.22771  -6.22721
  Beta  occ. eigenvalues --   -6.22717  -1.05127  -1.01827  -0.65831  -0.55403
  Beta  occ. eigenvalues --   -0.52004  -0.48825  -0.44817  -0.39012
  Beta virt. eigenvalues --    0.03090   0.04574   0.05405   0.05575   0.05953
  Beta virt. eigenvalues --    0.09156   0.09949   0.11182   0.12047   0.13358
  Beta virt. eigenvalues --    0.13522   0.15117   0.16820   0.17504   0.17869

 Mulliken charges and spin densities:
               1          2
     1  B    0.408256   1.040975
     2  S   -0.538269  -0.029170
     3  S   -0.538269  -0.029170
     4  H    0.334141   0.008683
     5  H    0.334141   0.008683
 Sum of Mulliken charges =  -0.00000   1.00000

 Dipole moment (field-independent basis, Debye):
    X=             -0.0000    Y=              1.4049    Z=              0.0000  Tot=              1.4049
                          Isotropic Fermi Contact Couplings
        Atom                 a.u.       MegaHertz       Gauss      10(-4) cm-1
     1  B(11)              0.31432     450.84747     160.87359     150.38653
     2  S(33)             -0.03911     -13.43328      -4.79333      -4.48086
     3  S(33)             -0.03911     -13.43328      -4.79333      -4.48086
     4  H(1)               0.01485      66.37681      23.68490      22.14092
     5  H(1)               0.01485      66.37681      23.68490      22.14092
 --------------------------------------------------------
       Center         ----  Spin Dipole Couplings  ----
                      3XX-RR        3YY-RR        3ZZ-RR

 Normal termination of Gaussian 16 at Wed Apr  9 00:47:56 2025.
