 Gaussian 16, Revision C.01,

 ----------------------------------------------------------------------
 #t hf aug-cc-pvdz symm=none int=(grid=ultrafine) guess=(read,tcheck) s
 table=(opt,rrhf)
 ----------------------------------------------------------------------
 -----
 title
 -----
 Symbolic Z-matrix:
 Charge =  0 Multiplicity = 1

 SCF Done:  E(RHF) =  -779.753211554     A.U. after   18 cycles
 Normal termination of Gaussian 16 at Tue Apr  8 23:39:20 2025.
 Gaussian 16:  ES64L-G16RevC.01  3-Jul-2019

 ----------------------------------------------------------------------
 #t hf aug-cc-pvdz iop(5/13=1,5/36=2,99/5=2) pseudo=read geom=check gue
 ss=(read,tcheck) scf=(maxcycle=1)
 ----------------------------------------------------------------------
 -----
 title
 -----
 Structure from the checkpoint file:  "BDE49_nonexpt_1495_mol1.chk"
 Charge =  0 Multiplicity = 1

                         Standard orientation:
 ---------------------------------------------------------------------
 Center     Atomic      Atomic             Coordinates (Angstroms)
 Number     Number       Type             X           Y           Z
 ---------------------------------------------------------------------
      1          6           0       -0.893845   -1.578182   -0.033138
      2          6           0       -2.225998   -1.915762    0.007513
      3          6           0       -3.216682   -0.911045    0.059825
      4          6           0       -2.850406    0.412527    0.062907
      5          6           0       -1.484911    0.795206    0.017352
      6          6           0       -0.475590   -0.220628   -0.025896
      7          1           0       -0.152360   -2.367568   -0.079990
      8          1           0       -2.519449   -2.959472   -0.002895
      9          1           0       -4.264215   -1.188471    0.093703
     10          1           0       -3.605896    1.190805    0.097739
     11          6           0        0.903876    0.168609   -0.059748
     12          6           0        1.227612    1.508691   -0.081022
     13          6           0       -1.098018    2.160908    0.007869
     14          6           0        0.227448    2.507075   -0.045320
     15          1           0       -1.869269    2.923399    0.038855
     16          1           0        0.519825    3.551382   -0.057940
     17          1           0        2.271149    1.796763   -0.124717
     18          7           0        3.623468   -0.220240    0.215847
     19         15           0        2.227462   -1.115631   -0.194869
     20          1           0        1.918095   -1.772898    1.030706
     21          1           0        3.769185    0.081812    1.169751
     22          1           0        4.475808   -0.543998   -0.215162
 ---------------------------------------------------------------------

 SCF Done:  E(RHF) =  -780.247929647     A.U. after    2 cycles

 The electronic state is 1-A.
 Alpha  occ. eigenvalues --  -84.29445 -15.49921 -11.25268 -11.24990 -11.24705
 Alpha  occ. eigenvalues --  -11.24536 -11.24512 -11.24403 -11.24383 -11.24376
 Alpha  occ. eigenvalues --  -11.24258 -11.24044  -6.76124  -4.29184  -4.28944
 Alpha  occ. eigenvalues --   -4.27926  -1.18213  -1.16784  -1.11087  -1.05431
 Alpha  occ. eigenvalues --   -1.00963  -0.98602  -0.87478  -0.85073  -0.84760
 Alpha  occ. eigenvalues --   -0.78538  -0.71809  -0.70953  -0.70216  -0.69072
 Alpha  occ. eigenvalues --   -0.63508  -0.62022  -0.60141  -0.58443  -0.57757
 Alpha  occ. eigenvalues --   -0.57280  -0.54401  -0.52640  -0.50125  -0.48666
 Alpha  occ. eigenvalues --   -0.46027  -0.43667  -0.40206  -0.34058  -0.32899
 Alpha  occ. eigenvalues --   -0.28947
 Alpha virt. eigenvalues --    0.03060   0.03522   0.03535   0.04292   0.05010
 Alpha virt. eigenvalues --    0.05674   0.06641   0.06883   0.07089   0.07698
 Alpha virt. eigenvalues --    0.08771   0.09109   0.09405   0.10292   0.10550

 Mulliken charges:
               1
     1  C   -0.344978
     2  C   -0.363072
     3  C   -0.180042
     4  C    0.276941
     5  C    0.947787
     6  C    1.599715
     7  H   -0.385368
     8  H   -0.241970
     9  H   -0.238800
    10  H   -0.311150
    11  C   -0.258409
    12  C    0.375942
    13  C    0.238953
    14  C   -0.605949
    15  H   -0.310153
    16  H   -0.277520
    17  H   -0.333700
    18  N    0.181572
    19  P   -0.027616
    20  H    0.328336
    21  H   -0.063568
    22  H   -0.006952
 Sum of Mulliken charges =   0.00000

 Dipole moment (field-independent basis, Debye):
    X=              0.5766    Y=              0.0856    Z=              1.0169  Tot=              1.1722

 Test job not archived.
 1\1\GINC-SE404\SP\RHF\Aug-CC-pVDZ\C10H10N1P1\OHZDE\08-Apr-2025\0\\#t h
 f aug-cc-pvdz iop(5/13=1,5/36=2,99/5=2) pseudo=read geom=check guess=(
 read,tcheck) scf=(maxcycle=1)\\title\\0,1\C,0,-0.893845,-1.578182,-0.0
 33138\C,0,-2.225998,-1.915762,0.007513\C,0,-3.216682,-0.911045,0.05982
 5\C,0,-2.850406,0.412527,0.062907\C,0,-1.484911,0.795206,0.017352\C,0,
 -0.47559,-0.220628,-0.025896\H,0,-0.15236,-2.367568,-0.07999\H,0,-2.51
 9449,-2.959472,-0.002895\H,0,-4.264215,-1.188471,0.093703\H,0,-3.60589
 6,1.190805,0.097739\C,0,0.903876,0.168609,-0.059748\C,0,1.227612,1.508

 Normal termination of Gaussian 16 at Tue Apr  8 23:39:38 2025.
