 Gaussian 16, Revision C.01,

 ----------------------------------------------------------------------
 #t hf aug-cc-pvdz symm=none int=(grid=ultrafine) guess=(read,tcheck) s
 table=(opt,rrhf)
 ----------------------------------------------------------------------
 -----
 title
 -----
 Symbolic Z-matrix:
 Charge =  0 Multiplicity = 1

 SCF Done:  E(RHF) =  -1253.31559313     A.U. after   14 cycles
 Normal termination of Gaussian 16 at Wed Apr  9 00:51:08 2025.
 Gaussian 16:  ES64L-G16RevC.01  3-Jul-2019

 ----------------------------------------------------------------------
 #t hf aug-cc-pvdz iop(5/13=1,5/36=2,99/5=2) pseudo=read geom=check gue
 ss=(read,tcheck) scf=(maxcycle=1)
 ----------------------------------------------------------------------
 -----
 title
 -----
 Structure from the checkpoint file:  "BDE49_nonexpt_929_mol1.chk"
 Charge =  0 Multiplicity = 1

                         Standard orientation:
 ---------------------------------------------------------------------
 Center     Atomic      Atomic             Coordinates (Angstroms)
 Number     Number       Type             X           Y           Z
 ---------------------------------------------------------------------
      1         17           0        0.875199    0.533039    2.406761
      2          7           0        0.123357   -0.102022    0.992615
      3          6           0        0.813537   -0.600589   -0.162835
      4          8           0        1.748871   -1.291105   -0.350047
      5          6           0       -0.813537    0.600589    0.162835
      6          7           0       -0.123357    0.102022   -0.992615
      7          8           0       -1.748871    1.291105    0.350047
      8         17           0       -0.875199   -0.533039   -2.406761
 ---------------------------------------------------------------------

 SCF Done:  E(RHF) =  -1253.78355258     A.U. after    2 cycles

 The electronic state is 1-AG.
 Alpha  occ. eigenvalues -- -105.65405-105.65405 -20.60314 -20.60311 -15.64383
 Alpha  occ. eigenvalues --  -15.64310 -11.46739 -11.46571 -10.69796 -10.69796
 Alpha  occ. eigenvalues --   -7.86786  -7.86775  -7.86240  -7.86237  -7.86211
 Alpha  occ. eigenvalues --   -7.86208  -1.56795  -1.55423  -1.42642  -1.26959
 Alpha  occ. eigenvalues --   -1.13923  -1.03349  -0.94182  -0.83353  -0.79135
 Alpha  occ. eigenvalues --   -0.76257  -0.74992  -0.69971  -0.67983  -0.62192
 Alpha  occ. eigenvalues --   -0.61044  -0.56059  -0.55208  -0.54196  -0.53247
 Alpha  occ. eigenvalues --   -0.48452  -0.47667  -0.47296
 Alpha virt. eigenvalues --    0.03411   0.04616   0.05739   0.08730   0.09127
 Alpha virt. eigenvalues --    0.09376   0.09597   0.09805   0.10560   0.11273
 Alpha virt. eigenvalues --    0.11401   0.12023   0.12623   0.15115   0.15531

 Mulliken charges:
               1
     1  Cl   0.217519
     2  N    0.092505
     3  C    0.720369
     4  O   -1.030393
     5  C    0.720369
     6  N    0.092505
     7  O   -1.030393
     8  Cl   0.217519
 Sum of Mulliken charges =  -0.00000

 Dipole moment (field-independent basis, Debye):
    X=             -0.0000    Y=             -0.0000    Z=             -0.0000  Tot=              0.0000

 Test job not archived.
 1\1\GINC-SE084\SP\RHF\Aug-CC-pVDZ\C2Cl2N2O2\OHZDE\09-Apr-2025\0\\#t hf
  aug-cc-pvdz iop(5/13=1,5/36=2,99/5=2) pseudo=read geom=check guess=(r
 ead,tcheck) scf=(maxcycle=1)\\title\\0,1\Cl,0,0.875199,0.533039,2.4067
 61\N,0,0.123357,-0.102022,0.992615\C,0,0.813537,-0.600589,-0.162835\O,
 0,1.748871,-1.291105,-0.350047\C,0,-0.813537,0.600589,0.162835\N,0,-0.
 123357,0.102022,-0.992615\O,0,-1.748871,1.291105,0.350047\Cl,0,-0.8751
 99,-0.533039,-2.406761\\Version=ES64L-G16RevC.01\State=1-AG\HF=-1253.7
 835526\RMSD=1.177e-02\Dipole=0.,0.,0.\Quadrupole=-3.343636,-1.4849895,

 Normal termination of Gaussian 16 at Wed Apr  9 00:51:13 2025.
