 Gaussian 16, Revision C.01,

 ----------------------------------------------------------------------
 #t hf aug-cc-pvdz symm=none int=(grid=ultrafine) guess=(read,tcheck) s
 table=(opt,rrhf)
 ----------------------------------------------------------------------
 -----
 title
 -----
 Symbolic Z-matrix:
 Charge =  0 Multiplicity = 1

 SCF Done:  E(RHF) =  -676.431447717     A.U. after   15 cycles
 Normal termination of Gaussian 16 at Tue Apr  8 23:08:35 2025.
 Gaussian 16:  ES64L-G16RevC.01  3-Jul-2019

 ----------------------------------------------------------------------
 #t hf aug-cc-pvdz iop(5/13=1,5/36=2,99/5=2) pseudo=read geom=check gue
 ss=(read,tcheck) scf=(maxcycle=1)
 ----------------------------------------------------------------------
 -----
 title
 -----
 Structure from the checkpoint file:  "BDE49_expt_451_mol1.chk"
 Charge =  0 Multiplicity = 1

                         Standard orientation:
 ---------------------------------------------------------------------
 Center     Atomic      Atomic             Coordinates (Angstroms)
 Number     Number       Type             X           Y           Z
 ---------------------------------------------------------------------
      1          6           0       -0.205548    1.294089   -0.015030
      2          6           0        1.174524    1.411732   -0.021869
      3          6           0       -0.807813    0.034442   -0.052265
      4          6           0       -0.001243   -1.103813   -0.093299
      5          6           0        1.381976   -0.997013   -0.101768
      6          6           0        1.989738    0.267000   -0.066002
      7          1           0        1.631060    2.396301   -0.000334
      8          1           0       -0.820878    2.184864    0.012605
      9          1           0       -0.460519   -2.084121   -0.127224
     10          1           0        2.010066   -1.875694   -0.136137
     11          7           0        3.370916    0.422073   -0.126103
     12          7           0        4.183167   -0.691255    0.148246
     13          1           0        4.971927   -0.696902   -0.486871
     14          1           0        4.519197   -0.686486    1.108367
     15          1           0        3.710004    1.322800    0.189068
     16          6           0       -2.296766   -0.090564    0.017134
     17          9           0       -2.926966    0.954691   -0.569911
     18          9           0       -2.753515   -0.135291    1.296397
     19          9           0       -2.747147   -1.216258   -0.583806
 ---------------------------------------------------------------------

 SCF Done:  E(RHF) =  -677.089380703     A.U. after    2 cycles

 The electronic state is 1-A.
 Alpha  occ. eigenvalues --  -26.49064 -26.49030 -26.48440 -15.55154 -15.54365
 Alpha  occ. eigenvalues --  -11.50782 -11.30167 -11.26421 -11.26230 -11.25213
 Alpha  occ. eigenvalues --  -11.24739 -11.23994  -1.69389  -1.59593  -1.58921
 Alpha  occ. eigenvalues --   -1.31197  -1.17550  -1.11161  -1.03398  -1.02685
 Alpha  occ. eigenvalues --   -0.93406  -0.86816  -0.85082  -0.79110  -0.78828
 Alpha  occ. eigenvalues --   -0.78214  -0.76174  -0.74875  -0.73251  -0.67299
 Alpha  occ. eigenvalues --   -0.67026  -0.64821  -0.63955  -0.62294  -0.61660
 Alpha  occ. eigenvalues --   -0.61578  -0.60415  -0.60083  -0.55982  -0.53877
 Alpha  occ. eigenvalues --   -0.51977  -0.49107  -0.48337  -0.36206  -0.32917
 Alpha virt. eigenvalues --    0.02033   0.03791   0.04776   0.04834   0.05351
 Alpha virt. eigenvalues --    0.06256   0.07873   0.08964   0.09127   0.09525
 Alpha virt. eigenvalues --    0.09789   0.10824   0.12296   0.12964   0.13569

 Mulliken charges:
               1
     1  C   -0.350801
     2  C    0.897910
     3  C    0.826896
     4  C   -0.207798
     5  C    0.839838
     6  C   -1.770716
     7  H   -0.328974
     8  H   -0.276255
     9  H   -0.287762
    10  H   -0.330988
    11  N    0.589475
    12  N    0.004700
    13  H    0.150558
    14  H    0.159882
    15  H    0.021968
    16  C    2.484679
    17  F   -0.828318
    18  F   -0.759503
    19  F   -0.834790
 Sum of Mulliken charges =  -0.00000

 Dipole moment (field-independent basis, Debye):
    X=              5.5090    Y=              1.1273    Z=              0.8587  Tot=              5.6884

 Test job not archived.
 1\1\GINC-SE250\SP\RHF\Aug-CC-pVDZ\C7H7F3N2\OHZDE\08-Apr-2025\0\\#t hf
 aug-cc-pvdz iop(5/13=1,5/36=2,99/5=2) pseudo=read geom=check guess=(re
 ad,tcheck) scf=(maxcycle=1)\\title\\0,1\C,0,-0.205548,1.294089,-0.0150
 3\C,0,1.174524,1.411732,-0.021869\C,0,-0.807813,0.034442,-0.052265\C,0
 ,-0.001243,-1.103813,-0.093299\C,0,1.381976,-0.997013,-0.101768\C,0,1.
 989738,0.267,-0.066002\H,0,1.63106,2.396301,-0.000334\H,0,-0.820878,2.
 184864,0.012605\H,0,-0.460519,-2.084121,-0.127224\H,0,2.010066,-1.8756
 94,-0.136137\N,0,3.370916,0.422073,-0.126103\N,0,4.183167,-0.691255,0.

 Normal termination of Gaussian 16 at Tue Apr  8 23:08:47 2025.
