 Gaussian 16, Revision C.01,

 ----------------------------------------------------------------------
 #t hf aug-cc-pvdz symm=none int=(grid=ultrafine) guess=(read,tcheck) s
 table=(opt,rrhf)
 ----------------------------------------------------------------------
 -----
 title
 -----
 Symbolic Z-matrix:
 Charge =  0 Multiplicity = 1

 SCF Done:  E(RHF) =  -1707.24564694     A.U. after   11 cycles
 Normal termination of Gaussian 16 at Tue Apr  8 23:45:56 2025.
 Gaussian 16:  ES64L-G16RevC.01  3-Jul-2019

 ----------------------------------------------------------------------
 #t hf aug-cc-pvdz iop(5/13=1,5/36=2,99/5=2) pseudo=read geom=check gue
 ss=(read,tcheck) scf=(maxcycle=1)
 ----------------------------------------------------------------------
 -----
 title
 -----
 Structure from the checkpoint file:  "BDE49_nonexpt_1763_mol1.chk"
 Charge =  0 Multiplicity = 1

                         Standard orientation:
 ---------------------------------------------------------------------
 Center     Atomic      Atomic             Coordinates (Angstroms)
 Number     Number       Type             X           Y           Z
 ---------------------------------------------------------------------
      1          6           0       -0.000012   -0.000014    2.111072
      2         14           0       -0.000001   -0.000002    0.262740
      3          1           0       -0.889720    0.511822    2.485149
      4          1           0        0.888107    0.514572    2.485154
      5          1           0        0.001571   -1.026446    2.485140
      6         17           0        1.671735   -0.961774   -0.466653
      7         17           0       -0.002935    1.928645   -0.466678
      8         17           0       -1.668792   -0.966862   -0.466683
 ---------------------------------------------------------------------

 SCF Done:  E(RHF) =  -1707.55459252     A.U. after    2 cycles

 The electronic state is 1-A.
 Alpha  occ. eigenvalues -- -105.57869-105.57869-105.57869 -69.66853 -11.25529
 Alpha  occ. eigenvalues --  -10.62907 -10.62892 -10.62892  -7.79790  -7.79784
 Alpha  occ. eigenvalues --   -7.79784  -7.79461  -7.79461  -7.79461  -7.79457
 Alpha  occ. eigenvalues --   -7.79457  -7.79455  -6.32686  -4.08044  -4.08044
 Alpha  occ. eigenvalues --   -4.07871  -1.11443  -1.05890  -1.05890  -0.98657
 Alpha  occ. eigenvalues --   -0.71507  -0.61594  -0.61594  -0.57030  -0.56807
 Alpha  occ. eigenvalues --   -0.56807  -0.50956  -0.50956  -0.48191  -0.48191
 Alpha  occ. eigenvalues --   -0.47386  -0.46982
 Alpha virt. eigenvalues --    0.03310   0.05087   0.05087   0.05952   0.07753
 Alpha virt. eigenvalues --    0.07753   0.08572   0.11475   0.12890   0.12890
 Alpha virt. eigenvalues --    0.14826   0.15424   0.15424   0.17001   0.17001

 Mulliken charges:
               1
     1  C   -0.642119
     2  Si   1.973024
     3  H    0.093741
     4  H    0.093746
     5  H    0.093746
     6  Cl  -0.537377
     7  Cl  -0.537381
     8  Cl  -0.537381
 Sum of Mulliken charges =  -0.00000

 Dipole moment (field-independent basis, Debye):
    X=              0.0000    Y=             -0.0000    Z=              2.2466  Tot=              2.2466

 Test job not archived.
 1\1\GINC-SE125\SP\RHF\Aug-CC-pVDZ\C1H3Cl3Si1\OHZDE\08-Apr-2025\0\\#t h
 f aug-cc-pvdz iop(5/13=1,5/36=2,99/5=2) pseudo=read geom=check guess=(
 read,tcheck) scf=(maxcycle=1)\\title\\0,1\C,0,-0.000012,-0.000014,2.11
 1072\Si,0,-0.000001,-0.000002,0.26274\H,0,-0.894735,0.503004,2.485149\
 H,0,0.882978,0.523325,2.485154\H,0,0.011716,-1.02638,2.48514\Cl,0,1.68
 1159,-0.945204,-0.466653\Cl,0,-0.021997,1.928522,-0.466678\Cl,0,-1.659
 155,-0.983308,-0.466683\\Version=ES64L-G16RevC.01\State=1-A\HF=-1707.5
 545925\RMSD=4.355e-03\Dipole=0.000003,-0.0000093,0.8838741\Quadrupole=

 Normal termination of Gaussian 16 at Tue Apr  8 23:46:00 2025.
