 Gaussian 16, Revision C.01,

 ----------------------------------------------------------------------
 #t hf aug-cc-pvdz symm=none int=(grid=ultrafine) guess=(read,tcheck) s
 table=(opt,rrhf)
 ----------------------------------------------------------------------
 -----
 title
 -----
 Symbolic Z-matrix:
 Charge =  0 Multiplicity = 1

 SCF Done:  E(RHF) =  -800.265033505     A.U. after   12 cycles
 Normal termination of Gaussian 16 at Tue Apr  8 23:30:27 2025.
 Gaussian 16:  ES64L-G16RevC.01  3-Jul-2019

 ----------------------------------------------------------------------
 #t hf aug-cc-pvdz iop(5/13=1,5/36=2,99/5=2) pseudo=read geom=check gue
 ss=(read,tcheck) scf=(maxcycle=1)
 ----------------------------------------------------------------------
 -----
 title
 -----
 Structure from the checkpoint file:  "BDE49_nonexpt_1333_mol1.chk"
 Charge =  0 Multiplicity = 1

                         Standard orientation:
 ---------------------------------------------------------------------
 Center     Atomic      Atomic             Coordinates (Angstroms)
 Number     Number       Type             X           Y           Z
 ---------------------------------------------------------------------
      1          6           0       -2.373536    1.267116   -0.219555
      2          6           0       -0.881202    1.275306    0.142502
      3          6           0       -3.075335    0.000023    0.287220
      4          1           0       -2.480712    1.329786   -1.310123
      5          1           0       -2.855504    2.159360    0.192214
      6          6           0       -2.373557   -1.267106   -0.219494
      7          1           0       -4.125399    0.000025   -0.021677
      8          1           0       -3.071844    0.000049    1.384687
      9          6           0       -0.881223   -1.275304    0.142561
     10          1           0       -2.480736   -1.329827   -1.310059
     11          1           0       -2.855540   -2.159322    0.192318
     12          6           0       -0.176305   -0.000016   -0.367309
     13          1           0       -0.393642   -2.160181   -0.273658
     14          1           0       -0.768421   -1.330637    1.231501
     15          1           0       -0.768404    1.330687    1.231440
     16          1           0       -0.393608    2.160157   -0.273759
     17         15           0        1.571373   -0.000014    0.095356
     18          1           0       -0.189048   -0.000040   -1.465396
     19          8           0        1.935991   -0.000006    1.523139
     20          8           0        2.141198    1.276639   -0.711868
     21          8           0        2.141100   -1.276662   -0.711921
     22          1           0        2.816625   -1.736703   -0.199280
     23          1           0        2.816262    1.736980   -0.198891
 ---------------------------------------------------------------------

 SCF Done:  E(RHF) =  -800.789583306     A.U. after    2 cycles

 The electronic state is 1-A.
 Alpha  occ. eigenvalues --  -84.41625 -20.58425 -20.58418 -20.49704 -11.25155
 Alpha  occ. eigenvalues --  -11.23846 -11.23827 -11.23301 -11.23285 -11.23024
 Alpha  occ. eigenvalues --   -6.86976  -4.41086  -4.40510  -4.39916  -1.52276
 Alpha  occ. eigenvalues --   -1.46701  -1.37867  -1.13126  -1.02668  -1.01361
 Alpha  occ. eigenvalues --   -0.88453  -0.84689  -0.80827  -0.76422  -0.71940
 Alpha  occ. eigenvalues --   -0.67330  -0.67084  -0.63545  -0.61943  -0.61748
 Alpha  occ. eigenvalues --   -0.61542  -0.58997  -0.54981  -0.54389  -0.53597
 Alpha  occ. eigenvalues --   -0.52159  -0.51074  -0.50493  -0.50043  -0.46763
 Alpha  occ. eigenvalues --   -0.46395  -0.45092  -0.44711  -0.42320
 Alpha virt. eigenvalues --    0.03482   0.03523   0.03602   0.03923   0.05109
 Alpha virt. eigenvalues --    0.05499   0.06189   0.06440   0.07528   0.08175
 Alpha virt. eigenvalues --    0.08829   0.09421   0.09696   0.10911   0.12632

 Mulliken charges:
               1
     1  C   -0.304572
     2  C   -0.034964
     3  C   -0.238694
     4  H    0.162311
     5  H    0.118263
     6  C   -0.304541
     7  H    0.110537
     8  H    0.153881
     9  C   -0.035035
    10  H    0.162310
    11  H    0.118262
    12  C   -1.477566
    13  H    0.062127
    14  H    0.133748
    15  H    0.133764
    16  H    0.062125
    17  P    4.815018
    18  H    0.077957
    19  O   -1.505920
    20  O   -1.453485
    21  O   -1.453476
    22  H    0.348990
    23  H    0.348962
 Sum of Mulliken charges =  -0.00000

 Dipole moment (field-independent basis, Debye):
    X=             -0.7389    Y=              0.0003    Z=             -1.5276  Tot=              1.6970

 Test job not archived.
 1\1\GINC-SE073\SP\RHF\Aug-CC-pVDZ\C6H13O3P1\OHZDE\08-Apr-2025\0\\#t hf
  aug-cc-pvdz iop(5/13=1,5/36=2,99/5=2) pseudo=read geom=check guess=(r
 ead,tcheck) scf=(maxcycle=1)\\title\\0,1\C,0,-2.373536,1.267116,-0.219
 555\C,0,-0.881202,1.275306,0.142502\C,0,-3.075335,0.000023,0.28722\H,0
 ,-2.480712,1.329786,-1.310123\H,0,-2.855504,2.15936,0.192214\C,0,-2.37
 3557,-1.267106,-0.219494\H,0,-4.125399,0.000025,-0.021677\H,0,-3.07184
 4,0.000049,1.384687\C,0,-0.881223,-1.275304,0.142561\H,0,-2.480736,-1.
 329827,-1.310059\H,0,-2.85554,-2.159322,0.192318\C,0,-0.176305,-0.0000

 Normal termination of Gaussian 16 at Tue Apr  8 23:30:43 2025.
