 Gaussian 16, Revision C.01,

 ----------------------------------------------------------------------
 #t hf aug-cc-pvdz symm=none int=(grid=ultrafine) guess=(read,tcheck) s
 table=(opt,rrhf)
 ----------------------------------------------------------------------
 -----
 title
 -----
 Symbolic Z-matrix:
 Charge =  0 Multiplicity = 1

 SCF Done:  E(RHF) =  -1125.84570928     A.U. after   14 cycles
 Normal termination of Gaussian 16 at Tue Apr  8 22:49:36 2025.
 Gaussian 16:  ES64L-G16RevC.01  3-Jul-2019

 ----------------------------------------------------------------------
 #t hf aug-cc-pvdz iop(5/13=1,5/36=2,99/5=2) pseudo=read geom=check gue
 ss=(read,tcheck) scf=(maxcycle=1)
 ----------------------------------------------------------------------
 -----
 title
 -----
 Structure from the checkpoint file:  "BDE49_expt_1722_mol1.chk"
 Charge =  0 Multiplicity = 1

                         Standard orientation:
 ---------------------------------------------------------------------
 Center     Atomic      Atomic             Coordinates (Angstroms)
 Number     Number       Type             X           Y           Z
 ---------------------------------------------------------------------
      1          6           0        0.228703    0.000072   -0.528957
      2          6           0       -1.257658   -0.000033   -0.118478
      3         17           0        1.073009   -1.484102    0.044192
      4         17           0        1.072847    1.484199    0.044495
      5          1           0        0.275917    0.000179   -1.611152
      6          7           0       -1.504842   -0.000394    1.210608
      7          1           0       -0.767308   -0.000687    1.895421
      8          1           0       -2.463801   -0.000491    1.518346
      9          8           0       -2.102091    0.000235   -0.987493
 ---------------------------------------------------------------------

 SCF Done:  E(RHF) =  -1126.20179670     A.U. after    2 cycles

 The electronic state is 1-A.
 Alpha  occ. eigenvalues -- -105.59700-105.59700 -20.54285 -15.55138 -11.39883
 Alpha  occ. eigenvalues --  -11.39829 -10.64493 -10.64490  -7.81436  -7.81435
 Alpha  occ. eigenvalues --   -7.81026  -7.81023  -7.81023  -7.81021  -1.49282
 Alpha  occ. eigenvalues --   -1.25567  -1.17388  -1.06632  -0.95083  -0.85408
 Alpha  occ. eigenvalues --   -0.79031  -0.70615  -0.66126  -0.64680  -0.63164
 Alpha  occ. eigenvalues --   -0.58203  -0.51924  -0.49809  -0.48143  -0.47067
 Alpha  occ. eigenvalues --   -0.46013  -0.44271
 Alpha virt. eigenvalues --    0.02983   0.05025   0.05791   0.07726   0.07884
 Alpha virt. eigenvalues --    0.09994   0.10833   0.11696   0.12883   0.13174
 Alpha virt. eigenvalues --    0.14306   0.15537   0.16058   0.16702   0.17370

 Mulliken charges:
               1
     1  C   -0.776759
     2  C    0.699857
     3  Cl   0.078748
     4  Cl   0.078800
     5  H    0.283614
     6  N    0.630496
     7  H    0.056747
     8  H    0.102031
     9  O   -1.153535
 Sum of Mulliken charges =   0.00000

 Dipole moment (field-independent basis, Debye):
    X=              0.3911    Y=             -0.0010    Z=              2.2502  Tot=              2.2839

 Test job not archived.
 1\1\GINC-SE082\SP\RHF\Aug-CC-pVDZ\C2H3Cl2N1O1\OHZDE\08-Apr-2025\0\\#t
 hf aug-cc-pvdz iop(5/13=1,5/36=2,99/5=2) pseudo=read geom=check guess=
 (read,tcheck) scf=(maxcycle=1)\\title\\0,1\C,0,-0.228703,-0.000072,-0.
 528957\C,0,1.257658,0.000033,-0.118478\Cl,0,-1.073009,1.484102,0.04419
 2\Cl,0,-1.072846,-1.484199,0.044495\H,0,-0.275917,-0.000179,-1.611152\
 N,0,1.504842,0.000394,1.210608\H,0,0.767308,0.000687,1.895421\H,0,2.46
 3801,0.000492,1.518346\O,0,2.102091,-0.000234,-0.987493\\Version=ES64L
 -G16RevC.01\State=1-A\HF=-1126.2017967\RMSD=1.220e-02\Dipole=-0.153880

 Normal termination of Gaussian 16 at Tue Apr  8 22:49:39 2025.
