 Gaussian 16, Revision C.01,

 ----------------------------------------------------------------------
 #t hf aug-cc-pvdz symm=none int=(grid=ultrafine) guess=(read,tcheck) s
 table=(opt,rrhf)
 ----------------------------------------------------------------------
 -----
 title
 -----
 Symbolic Z-matrix:
 Charge =  0 Multiplicity = 1

 SCF Done:  E(RHF) =  -254.381829084     A.U. after   12 cycles
 Normal termination of Gaussian 16 at Wed Apr  9 00:29:47 2025.
 Gaussian 16:  ES64L-G16RevC.01  3-Jul-2019

 ----------------------------------------------------------------------
 #t hf aug-cc-pvdz iop(5/13=1,5/36=2,99/5=2) pseudo=read geom=check gue
 ss=(read,tcheck) scf=(maxcycle=1)
 ----------------------------------------------------------------------
 -----
 title
 -----
 Structure from the checkpoint file:  "BDE49_nonexpt_324_mol1.chk"
 Charge =  0 Multiplicity = 1

                         Standard orientation:
 ---------------------------------------------------------------------
 Center     Atomic      Atomic             Coordinates (Angstroms)
 Number     Number       Type             X           Y           Z
 ---------------------------------------------------------------------
      1          6           0       -0.768775   -0.792502    0.000005
      2          5           0        0.611291   -0.022640    0.000013
      3          8           0        0.730668    1.345421   -0.000005
      4          8           0        1.767038   -0.749833   -0.000001
      5          6           0       -2.032997    0.080315   -0.000004
      6          1           0       -0.777468   -1.464546    0.867210
      7          1           0       -0.777460   -1.464552   -0.867196
      8          1           0       -2.079216    0.725593    0.884423
      9          1           0       -2.945229   -0.521776   -0.000007
     10          1           0       -2.079207    0.725588   -0.884435
     11          1           0        2.545041   -0.181734   -0.000009
     12          1           0       -0.113928    1.803040   -0.000010
 ---------------------------------------------------------------------

 SCF Done:  E(RHF) =  -254.647525987     A.U. after    2 cycles

 The electronic state is 1-A.
 Alpha  occ. eigenvalues --  -20.55626 -20.54625 -11.23448 -11.21079  -7.62954
 Alpha  occ. eigenvalues --   -1.47599  -1.43215  -1.02811  -0.86175  -0.75856
 Alpha  occ. eigenvalues --   -0.71681  -0.64037  -0.61726  -0.55879  -0.55739
 Alpha  occ. eigenvalues --   -0.54801  -0.52026  -0.49936  -0.48249  -0.46085
 Alpha virt. eigenvalues --    0.03356   0.04152   0.04354   0.04373   0.06494
 Alpha virt. eigenvalues --    0.07293   0.07387   0.08195   0.08540   0.10145
 Alpha virt. eigenvalues --    0.11427   0.14578   0.15612   0.16934   0.17250

 Mulliken charges:
               1
     1  C   -0.314840
     2  B    1.769571
     3  O   -1.205528
     4  O   -1.313380
     5  C   -0.509603
     6  H    0.088232
     7  H    0.088228
     8  H    0.116939
     9  H    0.059535
    10  H    0.116939
    11  H    0.498268
    12  H    0.605639
 Sum of Mulliken charges =  -0.00000

 Dipole moment (field-independent basis, Debye):
    X=             -1.1095    Y=              0.9743    Z=              0.0000  Tot=              1.4765

 Test job not archived.
 1\1\GINC-SE044\SP\RHF\Aug-CC-pVDZ\C2H7B1O2\OHZDE\09-Apr-2025\0\\#t hf
 aug-cc-pvdz iop(5/13=1,5/36=2,99/5=2) pseudo=read geom=check guess=(re
 ad,tcheck) scf=(maxcycle=1)\\title\\0,1\C,0,-0.768775,-0.792502,0.0000
 05\B,0,0.611291,-0.02264,0.000013\O,0,0.730668,1.345421,-0.000005\O,0,
 1.767038,-0.749833,-0.000001\C,0,-2.032997,0.080316,-0.000004\H,0,-0.7
 77468,-1.464546,0.86721\H,0,-0.77746,-1.464552,-0.867196\H,0,-2.079216
 ,0.725594,0.884423\H,0,-2.945229,-0.521775,-0.000007\H,0,-2.079207,0.7
 25589,-0.884435\H,0,2.545041,-0.181734,-0.000009\H,0,-0.113927,1.80304

 Normal termination of Gaussian 16 at Wed Apr  9 00:29:51 2025.
