 Gaussian 16, Revision C.01,

 ----------------------------------------------------------------------
 #t hf aug-cc-pvdz symm=none int=(grid=ultrafine) guess=(read,tcheck) s
 table=(opt,rrhf)
 ----------------------------------------------------------------------
 -----
 title
 -----
 Symbolic Z-matrix:
 Charge =  0 Multiplicity = 1

 SCF Done:  E(RHF) =  -635.107402753     A.U. after   12 cycles
 Normal termination of Gaussian 16 at Wed Apr  9 00:00:30 2025.
 Gaussian 16:  ES64L-G16RevC.01  3-Jul-2019

 ----------------------------------------------------------------------
 #t hf aug-cc-pvdz iop(5/13=1,5/36=2,99/5=2) pseudo=read geom=check gue
 ss=(read,tcheck) scf=(maxcycle=1)
 ----------------------------------------------------------------------
 -----
 title
 -----
 Structure from the checkpoint file:  "BDE49_nonexpt_2085_mol1.chk"
 Charge =  0 Multiplicity = 1

                         Standard orientation:
 ---------------------------------------------------------------------
 Center     Atomic      Atomic             Coordinates (Angstroms)
 Number     Number       Type             X           Y           Z
 ---------------------------------------------------------------------
      1         14           0        0.000000    1.768381   -0.005291
      2          8           0        1.320945    0.794040   -0.147795
      3          8           0       -1.320945    0.794040   -0.147795
      4          6           0        0.000000   -1.268030   -0.108968
      5          6           0       -1.285814   -0.560578    0.345307
      6          6           0        1.285814   -0.560578    0.345307
      7          6           0        2.547679   -1.257009   -0.139239
      8          1           0        2.558551   -1.300607   -1.231279
      9          1           0        2.606362   -2.275517    0.254649
     10          1           0        3.429443   -0.703655    0.189340
     11          1           0        1.297422   -0.524284    1.445333
     12          1           0        0.000000   -1.336584   -1.203014
     13          1           0        0.000000   -2.289512    0.286960
     14          6           0       -2.547679   -1.257009   -0.139239
     15          1           0       -1.297422   -0.524284    1.445333
     16          1           0       -2.558551   -1.300607   -1.231280
     17          1           0       -3.429443   -0.703655    0.189340
     18          1           0       -2.606362   -2.275517    0.254648
     19          1           0        0.000000    2.753443   -1.098300
     20          1           0        0.000000    2.438026    1.318057
 ---------------------------------------------------------------------

 SCF Done:  E(RHF) =  -635.501206359     A.U. after    2 cycles

 The electronic state is 1-A.
 Alpha  occ. eigenvalues --  -69.57039 -20.53126 -20.53125 -11.30087 -11.30083
 Alpha  occ. eigenvalues --  -11.23869 -11.22873 -11.22867  -6.23351  -3.98894
 Alpha  occ. eigenvalues --   -3.98756  -3.98628  -1.45288  -1.42031  -1.08293
 Alpha  occ. eigenvalues --   -1.01861  -0.94564  -0.82929  -0.81823  -0.74441
 Alpha  occ. eigenvalues --   -0.66200  -0.65596  -0.64956  -0.61384  -0.58758
 Alpha  occ. eigenvalues --   -0.56348  -0.55748  -0.55346  -0.53923  -0.52000
 Alpha  occ. eigenvalues --   -0.51852  -0.50627  -0.48148  -0.45391  -0.43015
 Alpha  occ. eigenvalues --   -0.41964
 Alpha virt. eigenvalues --    0.03423   0.03692   0.03771   0.04082   0.05615
 Alpha virt. eigenvalues --    0.05832   0.06145   0.06221   0.07345   0.08306
 Alpha virt. eigenvalues --    0.08985   0.09407   0.09657   0.10078   0.11628

 Mulliken charges:
               1
     1  Si   1.743399
     2  O   -1.779847
     3  O   -1.779847
     4  C   -0.703322
     5  C    0.901511
     6  C    0.901511
     7  C   -0.386235
     8  H    0.212868
     9  H    0.201726
    10  H    0.163680
    11  H    0.094512
    12  H    0.174942
    13  H    0.162349
    14  C   -0.386236
    15  H    0.094512
    16  H    0.212870
    17  H    0.163680
    18  H    0.201724
    19  H   -0.047960
    20  H   -0.145833
 Sum of Mulliken charges =  -0.00000

 Dipole moment (field-independent basis, Debye):
    X=              0.0000    Y=             -1.9520    Z=              0.8849  Tot=              2.1433

 Test job not archived.
 1\1\GINC-SE424\SP\RHF\Aug-CC-pVDZ\C5H12O2Si1\OHZDE\09-Apr-2025\0\\#t h
 f aug-cc-pvdz iop(5/13=1,5/36=2,99/5=2) pseudo=read geom=check guess=(
 read,tcheck) scf=(maxcycle=1)\\title\\0,1\Si,0,0.,1.768381,-0.005291\O
 ,0,1.320945,0.79404,-0.147795\O,0,-1.320945,0.79404,-0.147795\C,0,0.,-
 1.26803,-0.108968\C,0,-1.285814,-0.560578,0.345307\C,0,1.285814,-0.560
 578,0.345307\C,0,2.547679,-1.257009,-0.139239\H,0,2.558551,-1.300607,-
 1.231279\H,0,2.606362,-2.275517,0.254649\H,0,3.429443,-0.703655,0.1893
 4\H,0,1.297422,-0.524284,1.445333\H,0,0.,-1.336584,-1.203014\H,0,0.,-2

 Normal termination of Gaussian 16 at Wed Apr  9 00:00:39 2025.
