 Gaussian 16, Revision C.01,

 ----------------------------------------------------------------------
 #t hf aug-cc-pvdz symm=none int=(grid=ultrafine) guess=(read,tcheck) s
 table=(opt,rrhf)
 ----------------------------------------------------------------------
 -----
 title
 -----
 Symbolic Z-matrix:
 Charge =  0 Multiplicity = 1

 SCF Done:  E(RHF) =  -2417.26579090     A.U. after   10 cycles
 Normal termination of Gaussian 16 at Wed Apr  9 00:09:01 2025.
 Gaussian 16:  ES64L-G16RevC.01  3-Jul-2019

 ----------------------------------------------------------------------
 #t hf aug-cc-pvdz iop(5/13=1,5/36=2,99/5=2) pseudo=read geom=check gue
 ss=(read,tcheck) scf=(maxcycle=1)
 ----------------------------------------------------------------------
 -----
 title
 -----
 Structure from the checkpoint file:  "BDE49_nonexpt_2315_mol1.chk"
 Charge =  0 Multiplicity = 1

                         Standard orientation:
 ---------------------------------------------------------------------
 Center     Atomic      Atomic             Coordinates (Angstroms)
 Number     Number       Type             X           Y           Z
 ---------------------------------------------------------------------
      1         14           0        0.369134    1.118944    0.000000
      2         14           0       -0.369134   -1.118944    0.000000
      3         17           0        0.369134   -2.055750    1.691939
      4         17           0       -0.369136    2.055749   -1.691939
      5         17           0        0.369136   -2.055749   -1.691939
      6          1           0       -1.833952   -1.259565   -0.000001
      7         17           0       -0.369134    2.055750    1.691939
      8          1           0        1.833952    1.259565   -0.000001
 ---------------------------------------------------------------------

 SCF Done:  E(RHF) =  -2417.63922273     A.U. after    2 cycles

 The electronic state is 1-A.
 Alpha  occ. eigenvalues -- -105.58473-105.58472-105.58472-105.58472 -69.64328
 Alpha  occ. eigenvalues --  -69.64328 -10.63481 -10.63481 -10.63469 -10.63469
 Alpha  occ. eigenvalues --   -7.80368  -7.80364  -7.80360  -7.80359  -7.80041
 Alpha  occ. eigenvalues --   -7.80039  -7.80037  -7.80036  -7.80034  -7.80034
 Alpha  occ. eigenvalues --   -7.80034  -7.80034  -6.30622  -6.30611  -4.06019
 Alpha  occ. eigenvalues --   -4.06008  -4.05916  -4.05895  -4.05803  -4.05747
 Alpha  occ. eigenvalues --   -1.10269  -1.09403  -1.06466  -1.06045  -0.78338
 Alpha  occ. eigenvalues --   -0.71526  -0.59214  -0.58537  -0.57192  -0.57129
 Alpha  occ. eigenvalues --   -0.57084  -0.51566  -0.50354  -0.49992  -0.49788
 Alpha  occ. eigenvalues --   -0.48772  -0.48763  -0.47984  -0.42668
 Alpha virt. eigenvalues --    0.04111   0.04468   0.04644   0.04806   0.07136
 Alpha virt. eigenvalues --    0.07388   0.07461   0.08817   0.09595   0.09683
 Alpha virt. eigenvalues --    0.10523   0.11327   0.11447   0.13363   0.14468

 Mulliken charges:
               1
     1  Si   1.146691
     2  Si   1.146691
     3  Cl  -0.538257
     4  Cl  -0.538257
     5  Cl  -0.538257
     6  H   -0.070177
     7  Cl  -0.538257
     8  H   -0.070177
 Sum of Mulliken charges =  -0.00000

 Dipole moment (field-independent basis, Debye):
    X=             -0.0000    Y=              0.0000    Z=              0.0000  Tot=              0.0000

 Test job not archived.
 1\1\GINC-SE179\SP\RHF\Aug-CC-pVDZ\Cl4H2Si2\OHZDE\09-Apr-2025\0\\#t hf
 aug-cc-pvdz iop(5/13=1,5/36=2,99/5=2) pseudo=read geom=check guess=(re
 ad,tcheck) scf=(maxcycle=1)\\title\\0,1\Si,0,0.369134,1.118944,0.\Si,0
 ,-0.369134,-1.118944,0.\Cl,0,0.369134,-2.05575,1.691939\Cl,0,-0.369136
 ,2.055749,-1.691939\Cl,0,0.369136,-2.055749,-1.691939\H,0,-1.833952,-1
 .259565,-0.000001\Cl,0,-0.369134,2.05575,1.691939\H,0,1.833952,1.25956
 5,-0.000001\\Version=ES64L-G16RevC.01\State=1-A\HF=-2417.6392227\RMSD=
 3.468e-03\Dipole=0.,0.,0.0000012\Quadrupole=3.0734589,-1.9204455,-1.15

 Normal termination of Gaussian 16 at Wed Apr  9 00:09:04 2025.
