 Gaussian 16, Revision C.01,

 ----------------------------------------------------------------------
 #t hf aug-cc-pvdz symm=none int=(grid=ultrafine) guess=(read,tcheck) s
 table=(opt,rrhf)
 ----------------------------------------------------------------------
 -----
 title
 -----
 Symbolic Z-matrix:
 Charge =  0 Multiplicity = 1

 SCF Done:  E(RHF) =  -483.271701857     A.U. after   12 cycles
 Normal termination of Gaussian 16 at Wed Apr  9 00:07:14 2025.
 Gaussian 16:  ES64L-G16RevC.01  3-Jul-2019

 ----------------------------------------------------------------------
 #t hf aug-cc-pvdz iop(5/13=1,5/36=2,99/5=2) pseudo=read geom=check gue
 ss=(read,tcheck) scf=(maxcycle=1)
 ----------------------------------------------------------------------
 -----
 title
 -----
 Structure from the checkpoint file:  "BDE49_nonexpt_2254_mol1.chk"
 Charge =  0 Multiplicity = 1

                         Standard orientation:
 ---------------------------------------------------------------------
 Center     Atomic      Atomic             Coordinates (Angstroms)
 Number     Number       Type             X           Y           Z
 ---------------------------------------------------------------------
      1         14           0       -1.884451   -0.032774    0.056774
      2          8           0       -0.334983   -0.295281   -0.433309
      3          6           0        0.863554   -0.003891    0.307154
      4          6           0        1.871422   -1.103952   -0.001530
      5          1           0        1.470590   -2.079674    0.280493
      6          1           0        2.804984   -0.939520    0.543735
      7          1           0        2.090169   -1.120295   -1.072488
      8          6           0        1.372505    1.386009   -0.066345
      9          1           0        0.632954   -0.025396    1.382365
     10          1           0        2.284925    1.625534    0.487194
     11          1           0        0.626212    2.151251    0.160340
     12          1           0        1.592894    1.429061   -1.136224
     13          1           0       -2.752013   -0.670472   -0.952423
     14          1           0       -2.211634    1.413004    0.147488
     15          1           0       -2.121783   -0.631405    1.395467
 ---------------------------------------------------------------------

 SCF Done:  E(RHF) =  -483.513412869     A.U. after    2 cycles

 The electronic state is 1-A.
 Alpha  occ. eigenvalues --  -69.55317 -20.53180 -11.29875 -11.22850 -11.22599
 Alpha  occ. eigenvalues --   -6.21922  -3.97426  -3.97283  -3.97257  -1.43535
 Alpha  occ. eigenvalues --   -1.05334  -0.94303  -0.81734  -0.74824  -0.64897
 Alpha  occ. eigenvalues --   -0.62568  -0.61405  -0.55202  -0.55060  -0.53724
 Alpha  occ. eigenvalues --   -0.52344  -0.49695  -0.48319  -0.45151  -0.42624
 Alpha virt. eigenvalues --    0.03716   0.04109   0.04289   0.04346   0.06005
 Alpha virt. eigenvalues --    0.06649   0.06993   0.07225   0.07841   0.09190
 Alpha virt. eigenvalues --    0.09966   0.10557   0.10906   0.13978   0.14434

 Mulliken charges:
               1
     1  Si   1.282049
     2  O   -1.741017
     3  C    0.320882
     4  C   -0.248308
     5  H    0.140927
     6  H    0.190073
     7  H    0.200537
     8  C   -0.317233
     9  H    0.159072
    10  H    0.183998
    11  H    0.118720
    12  H    0.227951
    13  H   -0.130425
    14  H   -0.206635
    15  H   -0.180590
 Sum of Mulliken charges =  -0.00000

 Dipole moment (field-independent basis, Debye):
    X=              0.8171    Y=              0.3848    Z=              0.8539  Tot=              1.2429

 Test job not archived.
 1\1\GINC-SE343\SP\RHF\Aug-CC-pVDZ\C3H10O1Si1\OHZDE\09-Apr-2025\0\\#t h
 f aug-cc-pvdz iop(5/13=1,5/36=2,99/5=2) pseudo=read geom=check guess=(
 read,tcheck) scf=(maxcycle=1)\\title\\0,1\Si,0,-1.884451,-0.032774,0.0
 56774\O,0,-0.334983,-0.295281,-0.433309\C,0,0.863554,-0.003891,0.30715
 4\C,0,1.871422,-1.103952,-0.00153\H,0,1.47059,-2.079674,0.280493\H,0,2
 .804984,-0.93952,0.543735\H,0,2.090169,-1.120295,-1.072488\C,0,1.37250
 5,1.386009,-0.066345\H,0,0.632954,-0.025396,1.382365\H,0,2.284925,1.62
 5534,0.487194\H,0,0.626212,2.151251,0.16034\H,0,1.592894,1.429061,-1.1

 Normal termination of Gaussian 16 at Wed Apr  9 00:07:18 2025.
