 Gaussian 16, Revision C.01,

 ----------------------------------------------------------------------
 #t hf aug-cc-pvdz symm=none int=(grid=ultrafine) guess=(read,tcheck) s
 table=(opt,rrhf)
 ----------------------------------------------------------------------
 -----
 title
 -----
 Symbolic Z-matrix:
 Charge =  0 Multiplicity = 1

 SCF Done:  E(RHF) =  -1177.88464232     A.U. after   15 cycles
 Normal termination of Gaussian 16 at Wed Apr  9 00:26:39 2025.
 Gaussian 16:  ES64L-G16RevC.01  3-Jul-2019

 ----------------------------------------------------------------------
 #t hf aug-cc-pvdz iop(5/13=1,5/36=2,99/5=2) pseudo=read geom=check gue
 ss=(read,tcheck) scf=(maxcycle=1)
 ----------------------------------------------------------------------
 -----
 title
 -----
 Structure from the checkpoint file:  "BDE49_nonexpt_2715_mol1.chk"
 Charge =  0 Multiplicity = 1

                         Standard orientation:
 ---------------------------------------------------------------------
 Center     Atomic      Atomic             Coordinates (Angstroms)
 Number     Number       Type             X           Y           Z
 ---------------------------------------------------------------------
      1          6           0        2.117159    0.808478   -0.150292
      2          8           0        1.305684    1.522962   -0.657825
      3         16           0        1.894707   -1.008993    0.038328
      4         16           0        0.024535   -1.292587   -0.793720
      5          6           0       -1.080548   -0.643475    0.522574
      6          8           0       -0.676900   -0.167742    1.542078
      7          6           0        3.420821    1.267688    0.462910
      8          1           0        3.219335    1.581293    1.491316
      9          1           0        3.790174    2.128211   -0.096123
     10          1           0        4.173836    0.478466    0.484091
     11          6           0       -2.544691   -0.764348    0.136170
     12          6           0       -3.300747    0.558814    0.349429
     13          1           0       -2.963390   -1.546987    0.779208
     14          1           0       -2.640715   -1.109129   -0.898119
     15          6           0       -2.866887    1.665471   -0.616076
     16          1           0       -3.142645    0.878597    1.382767
     17          1           0       -4.371389    0.361757    0.236928
     18          1           0       -1.801613    1.890066   -0.517477
     19          1           0       -3.421166    2.587171   -0.422705
     20          1           0       -3.051210    1.378301   -1.655922
 ---------------------------------------------------------------------

 SCF Done:  E(RHF) =  -1178.39473594     A.U. after    2 cycles

 The electronic state is 1-A.
 Alpha  occ. eigenvalues --  -93.99237 -93.99226 -20.56065 -20.55822 -11.38642
 Alpha  occ. eigenvalues --  -11.38109 -11.26640 -11.26307 -11.24428 -11.22565
 Alpha  occ. eigenvalues --   -8.27277  -8.27249  -6.25074  -6.25029  -6.24839
 Alpha  occ. eigenvalues --   -6.24817  -6.24629  -6.24614  -1.50428  -1.50089
 Alpha  occ. eigenvalues --   -1.12390  -1.09058  -1.04507  -0.98688  -0.93321
 Alpha  occ. eigenvalues --   -0.83847  -0.76766  -0.74088  -0.68320  -0.66764
 Alpha  occ. eigenvalues --   -0.65583  -0.64313  -0.63204  -0.62296  -0.60126
 Alpha  occ. eigenvalues --   -0.57682  -0.56794  -0.55097  -0.53018  -0.51302
 Alpha  occ. eigenvalues --   -0.49636  -0.49467  -0.48159  -0.43233  -0.42488
 Alpha  occ. eigenvalues --   -0.39276  -0.37780
 Alpha virt. eigenvalues --    0.03352   0.03615   0.04279   0.04465   0.05385
 Alpha virt. eigenvalues --    0.05761   0.06108   0.07093   0.07498   0.08391
 Alpha virt. eigenvalues --    0.09014   0.09579   0.10549   0.10580   0.11675

 Mulliken charges:
               1
     1  C    0.971932
     2  O   -1.222519
     3  S    0.087887
     4  S    0.010525
     5  C    1.265686
     6  O   -1.308841
     7  C   -0.535783
     8  H    0.301311
     9  H    0.192726
    10  H    0.216909
    11  C   -0.522510
    12  C   -0.301204
    13  H    0.277637
    14  H    0.205860
    15  C   -0.300054
    16  H    0.140022
    17  H    0.128415
    18  H    0.129876
    19  H    0.114442
    20  H    0.147685
 Sum of Mulliken charges =  -0.00000

 Dipole moment (field-independent basis, Debye):
    X=              0.0043    Y=             -0.1927    Z=             -0.0009  Tot=              0.1927

 Test job not archived.
 1\1\GINC-SE336\SP\RHF\Aug-CC-pVDZ\C6H10O2S2\OHZDE\09-Apr-2025\0\\#t hf
  aug-cc-pvdz iop(5/13=1,5/36=2,99/5=2) pseudo=read geom=check guess=(r
 ead,tcheck) scf=(maxcycle=1)\\title\\0,1\C,0,2.117159,0.808478,-0.1502
 92\O,0,1.305684,1.522962,-0.657825\S,0,1.894707,-1.008993,0.038328\S,0
 ,0.024535,-1.292587,-0.79372\C,0,-1.080548,-0.643475,0.522574\O,0,-0.6
 769,-0.167742,1.542078\C,0,3.420821,1.267688,0.46291\H,0,3.219335,1.58
 1293,1.491316\H,0,3.790174,2.12821,-0.096123\H,0,4.173836,0.478465,0.4
 84091\C,0,-2.544691,-0.764348,0.13617\C,0,-3.300747,0.558814,0.349429\

 Normal termination of Gaussian 16 at Wed Apr  9 00:26:51 2025.
