 Gaussian 16, Revision C.01,

 ----------------------------------------------------------------------
 #t hf aug-cc-pvdz symm=none int=(grid=ultrafine) guess=(read,tcheck) s
 table=(opt,rrhf)
 ----------------------------------------------------------------------
 -----
 title
 -----
 Symbolic Z-matrix:
 Charge =  0 Multiplicity = 1

 SCF Done:  E(RHF) =  -912.639107568     A.U. after   12 cycles
 Normal termination of Gaussian 16 at Wed Apr  9 00:15:32 2025.
 Gaussian 16:  ES64L-G16RevC.01  3-Jul-2019

 ----------------------------------------------------------------------
 #t hf aug-cc-pvdz iop(5/13=1,5/36=2,99/5=2) pseudo=read geom=check gue
 ss=(read,tcheck) scf=(maxcycle=1)
 ----------------------------------------------------------------------
 -----
 title
 -----
 Structure from the checkpoint file:  "BDE49_nonexpt_2527_mol1.chk"
 Charge =  0 Multiplicity = 1

                         Standard orientation:
 ---------------------------------------------------------------------
 Center     Atomic      Atomic             Coordinates (Angstroms)
 Number     Number       Type             X           Y           Z
 ---------------------------------------------------------------------
      1         17           0       -1.412168    0.214298   -0.000014
      2          7           0        1.633394    0.604184    0.000017
      3         16           0        0.566766   -0.634259    0.000005
      4          1           0        1.752465    1.137885    0.851827
      5          1           0        1.752385    1.137906   -0.851792
 ---------------------------------------------------------------------

 SCF Done:  E(RHF) =  -912.835164562     A.U. after    2 cycles

 The electronic state is 1-A.
 Alpha  occ. eigenvalues -- -105.56320 -94.04455 -15.56204 -10.61052  -8.31755
 Alpha  occ. eigenvalues --   -7.77958  -7.77568  -7.77535  -6.29525  -6.29295
 Alpha  occ. eigenvalues --   -6.28965  -1.25955  -1.06198  -0.92686  -0.76535
 Alpha  occ. eigenvalues --   -0.66526  -0.58005  -0.49825  -0.46163  -0.45952
 Alpha  occ. eigenvalues --   -0.38379
 Alpha virt. eigenvalues --    0.02754   0.04952   0.05593   0.08505   0.11158
 Alpha virt. eigenvalues --    0.12949   0.14088   0.15197   0.16470   0.16475
 Alpha virt. eigenvalues --    0.17515   0.19395   0.20583   0.22855   0.26368

 Mulliken charges:
               1
     1  Cl  -0.313040
     2  N   -0.301016
     3  S    0.444212
     4  H    0.084920
     5  H    0.084925
 Sum of Mulliken charges =   0.00000

 Dipole moment (field-independent basis, Debye):
    X=              2.2671    Y=              1.3026    Z=              0.0000  Tot=              2.6147

 Test job not archived.
 1\1\GINC-SE455\SP\RHF\Aug-CC-pVDZ\Cl1H2N1S1\OHZDE\09-Apr-2025\0\\#t hf
  aug-cc-pvdz iop(5/13=1,5/36=2,99/5=2) pseudo=read geom=check guess=(r
 ead,tcheck) scf=(maxcycle=1)\\title\\0,1\Cl,0,-1.412168,0.214298,-0.00
 0014\N,0,1.633394,0.604184,0.000017\S,0,0.566766,-0.634259,0.000005\H,
 0,1.752465,1.137885,0.851827\H,0,1.752385,1.137906,-0.851792\\Version=
 ES64L-G16RevC.01\State=1-A\HF=-912.8351646\RMSD=7.218e-03\Dipole=0.891
 9604,0.5124879,0.0000182\Quadrupole=-0.5814447,1.0983122,-0.5168675,2.
 3779268,0.0001702,0.0000051\PG=C01 [X(Cl1H2N1S1)]\\@

 Normal termination of Gaussian 16 at Wed Apr  9 00:15:33 2025.
