 Gaussian 16, Revision C.01,

 ----------------------------------------------------------------------
 #t hf aug-cc-pvdz symm=none int=(grid=ultrafine) guess=(read,tcheck) s
 table=(opt,rrhf)
 ----------------------------------------------------------------------
 -----
 title
 -----
 Symbolic Z-matrix:
 Charge =  0 Multiplicity = 1

 SCF Done:  E(RHF) =  -870.804488564     A.U. after   20 cycles
 Normal termination of Gaussian 16 at Tue Apr  8 22:55:47 2025.
 Gaussian 16:  ES64L-G16RevC.01  3-Jul-2019

 ----------------------------------------------------------------------
 #t hf aug-cc-pvdz iop(5/13=1,5/36=2,99/5=2) pseudo=read geom=check gue
 ss=(read,tcheck) scf=(maxcycle=1)
 ----------------------------------------------------------------------
 -----
 title
 -----
 Structure from the checkpoint file:  "BDE49_expt_1830_mol1.chk"
 Charge =  0 Multiplicity = 1

                         Standard orientation:
 ---------------------------------------------------------------------
 Center     Atomic      Atomic             Coordinates (Angstroms)
 Number     Number       Type             X           Y           Z
 ---------------------------------------------------------------------
      1          7           0       -3.259536   -0.579541    0.783671
      2          8           0       -2.453202   -0.902451    1.559264
      3         16           0       -2.585484    0.287183   -0.826337
      4          6           0       -0.854418    0.292736   -0.503807
      5          6           0       -0.251943    1.380763    0.151687
      6          6           0        1.101721    1.371657    0.433525
      7          6           0        1.890784    0.267957    0.077137
      8          6           0        1.300864   -0.826440   -0.564508
      9          6           0       -0.062584   -0.807787   -0.845523
     10          1           0       -0.856795    2.234573    0.431624
     11          1           0        1.578986    2.205642    0.933219
     12          8           0        3.206893    0.358423    0.396800
     13          1           0       -0.517240   -1.656068   -1.342596
     14          1           0        1.886338   -1.690983   -0.845945
     15          6           0        4.066943   -0.727995    0.071378
     16          1           0        3.760350   -1.647001    0.581917
     17          1           0        5.055854   -0.435289    0.418952
     18          1           0        4.099270   -0.902145   -1.009337
 ---------------------------------------------------------------------

 SCF Done:  E(RHF) =  -871.326998573     A.U. after    2 cycles

 The electronic state is 1-A.
 Alpha  occ. eigenvalues --  -93.97502 -20.65554 -20.58744 -15.69627 -11.32742
 Alpha  occ. eigenvalues --  -11.30707 -11.27133 -11.26828 -11.26558 -11.25204
 Alpha  occ. eigenvalues --  -11.24741  -8.25387  -6.23151  -6.22985  -6.22771
 Alpha  occ. eigenvalues --   -1.66149  -1.51229  -1.17485  -1.08537  -1.03979
 Alpha  occ. eigenvalues --   -1.01701  -0.96526  -0.90821  -0.85956  -0.81635
 Alpha  occ. eigenvalues --   -0.74514  -0.72317  -0.71906  -0.69684  -0.66913
 Alpha  occ. eigenvalues --   -0.65978  -0.64990  -0.62823  -0.61517  -0.60270
 Alpha  occ. eigenvalues --   -0.54844  -0.54283  -0.50477  -0.50120  -0.48621
 Alpha  occ. eigenvalues --   -0.39739  -0.38466  -0.36516  -0.32959
 Alpha virt. eigenvalues --    0.02995   0.03530   0.04135   0.04901   0.05581
 Alpha virt. eigenvalues --    0.05680   0.05951   0.06073   0.08254   0.08683
 Alpha virt. eigenvalues --    0.08993   0.09380   0.09509   0.12454   0.12760

 Mulliken charges:
               1
     1  N    0.655048
     2  O   -0.887328
     3  S    0.157687
     4  C    0.866378
     5  C   -0.209740
     6  C    0.499503
     7  C    1.364572
     8  C    0.245935
     9  C   -0.146115
    10  H   -0.200278
    11  H   -0.294562
    12  O   -1.836748
    13  H   -0.203445
    14  H   -0.421822
    15  C    0.083472
    16  H    0.180126
    17  H   -0.035011
    18  H    0.182330
 Sum of Mulliken charges =  -0.00000

 Dipole moment (field-independent basis, Debye):
    X=              3.8512    Y=             -0.9008    Z=             -0.4202  Tot=              3.9774

 Test job not archived.
 1\1\GINC-SE100\SP\RHF\Aug-CC-pVDZ\C7H7N1O2S1\OHZDE\08-Apr-2025\0\\#t h
 f aug-cc-pvdz iop(5/13=1,5/36=2,99/5=2) pseudo=read geom=check guess=(
 read,tcheck) scf=(maxcycle=1)\\title\\0,1\N,0,-3.259536,-0.579541,0.78
 3671\O,0,-2.453202,-0.902451,1.559264\S,0,-2.585484,0.287183,-0.826337
 \C,0,-0.854418,0.292736,-0.503807\C,0,-0.251943,1.380763,0.151687\C,0,
 1.101721,1.371657,0.433525\C,0,1.890784,0.267957,0.077137\C,0,1.300864
 ,-0.82644,-0.564508\C,0,-0.062584,-0.807787,-0.845523\H,0,-0.856795,2.
 234573,0.431624\H,0,1.578986,2.205642,0.933219\O,0,3.206893,0.358423,0

 Normal termination of Gaussian 16 at Tue Apr  8 22:55:58 2025.
