 Gaussian 16, Revision C.01,

 ----------------------------------------------------------------------
 #t hf aug-cc-pvdz symm=none int=(grid=ultrafine) guess=(read,tcheck) s
 table=(opt,rrhf)
 ----------------------------------------------------------------------
 -----
 title
 -----
 Symbolic Z-matrix:
 Charge =  0 Multiplicity = 1

 SCF Done:  E(RHF) =  -627.120019533     A.U. after   11 cycles
 Normal termination of Gaussian 16 at Tue Apr  8 22:45:30 2025.
 Gaussian 16:  ES64L-G16RevC.01  3-Jul-2019

 ----------------------------------------------------------------------
 #t hf aug-cc-pvdz iop(5/13=1,5/36=2,99/5=2) pseudo=read geom=check gue
 ss=(read,tcheck) scf=(maxcycle=1)
 ----------------------------------------------------------------------
 -----
 title
 -----
 Structure from the checkpoint file:  "BDE49_expt_1540_mol1.chk"
 Charge =  0 Multiplicity = 1

                         Standard orientation:
 ---------------------------------------------------------------------
 Center     Atomic      Atomic             Coordinates (Angstroms)
 Number     Number       Type             X           Y           Z
 ---------------------------------------------------------------------
      1         14           0        0.034965    0.000006   -0.000009
      2          6           0       -1.799515    0.000015   -0.000046
      3          1           0       -2.183554   -0.988065    0.264952
      4          1           0       -2.183498    0.264563   -0.988266
      5          1           0       -2.183538    0.723564    0.723151
      6          9           0        0.624403   -1.042313   -1.041847
      7          9           0        0.624315   -0.381156    1.423601
      8          9           0        0.624412    1.423444   -0.381691
 ---------------------------------------------------------------------

 SCF Done:  E(RHF) =  -627.467829572     A.U. after    2 cycles

 The electronic state is 1-A.
 Alpha  occ. eigenvalues --  -69.66798 -26.47643 -26.47643 -26.47641 -11.25260
 Alpha  occ. eigenvalues --   -6.32743  -4.08055  -4.08055  -4.07791  -1.61553
 Alpha  occ. eigenvalues --   -1.58186  -1.58186  -0.99479  -0.80653  -0.72688
 Alpha  occ. eigenvalues --   -0.72688  -0.69747  -0.66566  -0.66566  -0.63934
 Alpha  occ. eigenvalues --   -0.63933  -0.61938  -0.59136  -0.59136  -0.52766
 Alpha virt. eigenvalues --    0.03094   0.04959   0.04960   0.06070   0.08278
 Alpha virt. eigenvalues --    0.08278   0.10687   0.14343   0.15026   0.15026
 Alpha virt. eigenvalues --    0.17890   0.21559   0.21560   0.22337   0.22337

 Mulliken charges:
               1
     1  Si   3.068296
     2  C   -0.526671
     3  H    0.034128
     4  H    0.034125
     5  H    0.034129
     6  F   -0.881336
     7  F   -0.881345
     8  F   -0.881327
 Sum of Mulliken charges =  -0.00000

 Dipole moment (field-independent basis, Debye):
    X=             -2.5288    Y=              0.0001    Z=             -0.0002  Tot=              2.5288

 Test job not archived.
 1\1\GINC-SE103\SP\RHF\Aug-CC-pVDZ\C1H3F3Si1\OHZDE\08-Apr-2025\0\\#t hf
  aug-cc-pvdz iop(5/13=1,5/36=2,99/5=2) pseudo=read geom=check guess=(r
 ead,tcheck) scf=(maxcycle=1)\\title\\0,1\Si,0,0.034965,0.000006,-0.000
 009\C,0,-1.799515,0.000013,-0.000047\H,0,-2.183553,-0.987294,0.267816\
 H,0,-2.183498,0.261693,-0.98903\H,0,-2.183539,0.725657,0.721048\F,0,0.
 624405,-1.045331,-1.038818\F,0,0.624315,-0.377024,1.424701\F,0,0.62441
 1,1.422331,-0.385819\\Version=ES64L-G16RevC.01\State=1-A\HF=-627.46782
 96\RMSD=4.233e-03\Dipole=-0.9949211,0.000032,-0.0000613\Quadrupole=1.9

 Normal termination of Gaussian 16 at Tue Apr  8 22:45:33 2025.
