 Gaussian 16, Revision C.01,

 ----------------------------------------------------------------------
 #t hf aug-cc-pvdz symm=none int=(grid=ultrafine) guess=(read,tcheck) s
 table=(opt,rrhf)
 ----------------------------------------------------------------------
 -----
 title
 -----
 Symbolic Z-matrix:
 Charge =  0 Multiplicity = 1

 SCF Done:  E(RHF) =  -583.480057595     A.U. after   12 cycles
 Normal termination of Gaussian 16 at Tue Apr  8 23:55:02 2025.
 Gaussian 16:  ES64L-G16RevC.01  3-Jul-2019

 ----------------------------------------------------------------------
 #t hf aug-cc-pvdz iop(5/13=1,5/36=2,99/5=2) pseudo=read geom=check gue
 ss=(read,tcheck) scf=(maxcycle=1)
 ----------------------------------------------------------------------
 -----
 title
 -----
 Structure from the checkpoint file:  "BDE49_nonexpt_1959_mol1.chk"
 Charge =  0 Multiplicity = 1

                         Standard orientation:
 ---------------------------------------------------------------------
 Center     Atomic      Atomic             Coordinates (Angstroms)
 Number     Number       Type             X           Y           Z
 ---------------------------------------------------------------------
      1         14           0        2.295690   -0.496321   -0.343693
      2          6           0        0.973894   -0.063462    0.930232
      3          5           0       -0.482331   -0.040249    0.331773
      4          1           0        2.059048   -1.841383   -0.916372
      5          1           0        3.646225   -0.476960    0.270784
      6          8           0       -1.122090    1.072335   -0.145337
      7          8           0       -1.149931   -1.227432    0.257982
      8          6           0       -0.547481    2.372594   -0.130287
      9          1           0       -1.256431    3.048856   -0.609315
     10          1           0        0.395500    2.402770   -0.684433
     11          1           0       -0.370992    2.718848    0.893127
     12          6           0       -2.460304   -1.306867   -0.301145
     13          1           0       -2.758718   -2.355264   -0.277077
     14          1           0       -2.472261   -0.948600   -1.334001
     15          1           0       -3.172471   -0.713244    0.278612
     16          1           0        2.293183    0.486723   -1.457096
     17          1           0        1.258277    0.889283    1.388618
     18          1           0        1.030138   -0.834100    1.706038
 ---------------------------------------------------------------------

 SCF Done:  E(RHF) =  -583.820081282     A.U. after    2 cycles

 The electronic state is 1-A.
 Alpha  occ. eigenvalues --  -69.52470 -20.54537 -20.53555 -11.29370 -11.27969
 Alpha  occ. eigenvalues --  -11.20240  -7.62899  -6.19499  -3.94879  -3.94872
 Alpha  occ. eigenvalues --   -3.94867  -1.47691  -1.43565  -0.97118  -0.94870
 Alpha  occ. eigenvalues --   -0.92201  -0.73005  -0.71468  -0.68235  -0.65007
 Alpha  occ. eigenvalues --   -0.64164  -0.61753  -0.59614  -0.56070  -0.54574
 Alpha  occ. eigenvalues --   -0.50194  -0.48994  -0.48264  -0.47191  -0.45691
 Alpha  occ. eigenvalues --   -0.44293  -0.43567
 Alpha virt. eigenvalues --    0.03402   0.03772   0.03954   0.04062   0.05785
 Alpha virt. eigenvalues --    0.06071   0.06342   0.06586   0.07383   0.08623
 Alpha virt. eigenvalues --    0.08738   0.09611   0.10097   0.10729   0.11204

 Mulliken charges:
               1
     1  Si   0.780278
     2  C   -0.630613
     3  B    2.140196
     4  H   -0.127468
     5  H   -0.201666
     6  O   -1.317120
     7  O   -1.440179
     8  C    0.410204
     9  H   -0.071722
    10  H    0.165103
    11  H    0.112622
    12  C    0.378648
    13  H   -0.046253
    14  H    0.134785
    15  H    0.146192
    16  H   -0.185700
    17  H   -0.111219
    18  H   -0.136088
 Sum of Mulliken charges =  -0.00000

 Dipole moment (field-independent basis, Debye):
    X=             -0.4907    Y=              1.5378    Z=              0.2855  Tot=              1.6393

 Test job not archived.
 1\1\GINC-SE339\SP\RHF\Aug-CC-pVDZ\C3H11B1O2Si1\OHZDE\08-Apr-2025\0\\#t
  hf aug-cc-pvdz iop(5/13=1,5/36=2,99/5=2) pseudo=read geom=check guess
 =(read,tcheck) scf=(maxcycle=1)\\title\\0,1\Si,0,2.29569,-0.496321,-0.
 343693\C,0,0.973894,-0.063462,0.930232\B,0,-0.482331,-0.040249,0.33177
 3\H,0,2.059048,-1.841383,-0.916372\H,0,3.646225,-0.47696,0.270784\O,0,
 -1.12209,1.072335,-0.145337\O,0,-1.149931,-1.227432,0.257982\C,0,-0.54
 7481,2.372594,-0.130287\H,0,-1.256431,3.048856,-0.609315\H,0,0.3955,2.
 40277,-0.684433\H,0,-0.370992,2.718848,0.893127\C,0,-2.460304,-1.30686

 Normal termination of Gaussian 16 at Tue Apr  8 23:55:09 2025.
