 Gaussian 16, Revision C.01,

 ----------------------------------------------------------------------
 #t hf aug-cc-pvdz symm=none int=(grid=ultrafine) guess=(read,tcheck) s
 table=(opt,rrhf)
 ----------------------------------------------------------------------
 -----
 title
 -----
 Symbolic Z-matrix:
 Charge =  0 Multiplicity = 1

 SCF Done:  E(RHF) =  -1040.32283904     A.U. after   11 cycles
 Normal termination of Gaussian 16 at Wed Apr  9 00:09:29 2025.
 Gaussian 16:  ES64L-G16RevC.01  3-Jul-2019

 ----------------------------------------------------------------------
 #t hf aug-cc-pvdz iop(5/13=1,5/36=2,99/5=2) pseudo=read geom=check gue
 ss=(read,tcheck) scf=(maxcycle=1)
 ----------------------------------------------------------------------
 -----
 title
 -----
 Structure from the checkpoint file:  "BDE49_nonexpt_2321_mol1.chk"
 Charge =  0 Multiplicity = 1

                         Standard orientation:
 ---------------------------------------------------------------------
 Center     Atomic      Atomic             Coordinates (Angstroms)
 Number     Number       Type             X           Y           Z
 ---------------------------------------------------------------------
      1         14           0        1.862711   -0.352739    0.000000
      2         14           0       -0.163860    0.846924    0.000000
      3          1           0       -0.308737    1.692099    1.205037
      4          1           0        1.943854   -1.202021    1.210151
      5         17           0       -1.767424   -0.500463   -0.000001
      6          1           0        1.943855   -1.202020   -1.210151
      7          1           0       -0.308737    1.692100   -1.205035
      8          1           0        2.992058    0.609112    0.000001
 ---------------------------------------------------------------------

 SCF Done:  E(RHF) =  -1040.47106138     A.U. after    2 cycles

 The electronic state is 1-A.
 Alpha  occ. eigenvalues -- -105.55799 -69.57932 -69.54043 -10.60786  -7.77673
 Alpha  occ. eigenvalues --   -7.77362  -7.77360  -6.24699  -6.21274  -4.00113
 Alpha  occ. eigenvalues --   -3.99950  -3.99943  -3.96628  -3.96620  -3.96615
 Alpha  occ. eigenvalues --   -1.05133  -0.78743  -0.70635  -0.54237  -0.53965
 Alpha  occ. eigenvalues --   -0.50372  -0.49994  -0.49569  -0.45594  -0.41479
 Alpha virt. eigenvalues --    0.03673   0.03908   0.05127   0.05718   0.06967
 Alpha virt. eigenvalues --    0.07285   0.07592   0.08548   0.08726   0.09972
 Alpha virt. eigenvalues --    0.10235   0.12049   0.12957   0.14326   0.14555

 Mulliken charges:
               1
     1  Si   0.429992
     2  Si   0.792898
     3  H   -0.126680
     4  H   -0.131988
     5  Cl  -0.560560
     6  H   -0.131988
     7  H   -0.126679
     8  H   -0.144995
 Sum of Mulliken charges =   0.00000

 Dipole moment (field-independent basis, Debye):
    X=              1.6436    Y=              0.9315    Z=             -0.0000  Tot=              1.8892

 Test job not archived.
 1\1\GINC-SE179\SP\RHF\Aug-CC-pVDZ\Cl1H5Si2\OHZDE\09-Apr-2025\0\\#t hf
 aug-cc-pvdz iop(5/13=1,5/36=2,99/5=2) pseudo=read geom=check guess=(re
 ad,tcheck) scf=(maxcycle=1)\\title\\0,1\Si,0,1.862711,-0.352739,0.\Si,
 0,-0.16386,0.846924,0.\H,0,-0.308737,1.692099,1.205037\H,0,1.943854,-1
 .202021,1.210151\Cl,0,-1.767424,-0.500463,-0.000001\H,0,1.943855,-1.20
 202,-1.210151\H,0,-0.308737,1.6921,-1.205035\H,0,2.992058,0.609112,0.0
 00001\\Version=ES64L-G16RevC.01\State=1-A\HF=-1040.4710614\RMSD=3.802e
 -03\Dipole=0.6466326,0.3664904,-0.0000006\Quadrupole=-1.1223264,0.7771

 Normal termination of Gaussian 16 at Wed Apr  9 00:09:32 2025.
