 Gaussian 16, Revision C.01,

 ----------------------------------------------------------------------
 #t hf aug-cc-pvdz symm=none int=(grid=ultrafine) guess=(read,tcheck) s
 table=opt
 ----------------------------------------------------------------------
 -----
 title
 -----
 Symbolic Z-matrix:
 Charge =  0 Multiplicity = 2

 SCF Done:  E(UHF) =  -730.612252355     A.U. after   22 cycles
 Normal termination of Gaussian 16 at Tue Apr  8 23:57:01 2025.
 Gaussian 16:  ES64L-G16RevC.01  3-Jul-2019

 ----------------------------------------------------------------------
 #t hf aug-cc-pvdz iop(5/13=1,5/36=2,99/5=2) pseudo=read geom=check gue
 ss=(read,tcheck) scf=(maxcycle=1)
 ----------------------------------------------------------------------
 -----
 title
 -----
 Structure from the checkpoint file:  "BDE49_nonexpt_200_mol2.chk"
 Charge =  0 Multiplicity = 2

                         Standard orientation:
 ---------------------------------------------------------------------
 Center     Atomic      Atomic             Coordinates (Angstroms)
 Number     Number       Type             X           Y           Z
 ---------------------------------------------------------------------
      1         17           0       -2.574144    0.215345    0.234219
      2          5           0       -1.130817   -0.012038   -0.691921
      3          6           0        0.255105   -0.513975   -0.223526
      4          8           0        0.195388   -1.748852   -0.140910
      5          7           0        1.370376    0.227042   -0.019104
      6          6           0        1.355814    1.673244   -0.124679
      7          1           0        0.373918    2.008982   -0.465113
      8          1           0        2.102338    2.015142   -0.849162
      9          1           0        1.567283    2.144180    0.841636
     10          6           0        2.622467   -0.423629    0.336840
     11          1           0        2.452617   -1.498685    0.357453
     12          1           0        2.964452   -0.091756    1.322708
     13          1           0        3.397887   -0.190855   -0.400430
 ---------------------------------------------------------------------

 SCF Done:  E(UHF) =  -730.960644708     A.U. after    2 cycles

 The electronic state is 2-A.
 Alpha  occ. eigenvalues -- -105.58749 -20.52349 -15.54282 -11.35110 -11.29492
 Alpha  occ. eigenvalues --  -11.27619 -10.63730  -7.80650  -7.80362  -7.80293
 Alpha  occ. eigenvalues --   -7.69317  -1.46247  -1.26977  -1.09706  -1.00422
 Alpha  occ. eigenvalues --   -0.97817  -0.82623  -0.75499  -0.68668  -0.68434
 Alpha  occ. eigenvalues --   -0.64910  -0.59011  -0.58742  -0.58492  -0.56970
 Alpha  occ. eigenvalues --   -0.56230  -0.51666  -0.51000  -0.43291  -0.41568
 Alpha  occ. eigenvalues --   -0.35375
 Alpha virt. eigenvalues --    0.02901   0.04095   0.04230   0.04992   0.05777
 Alpha virt. eigenvalues --    0.05907   0.06436   0.07204   0.07428   0.08231
 Alpha virt. eigenvalues --    0.09658   0.12717   0.12882   0.13564   0.14175

  Beta  occ. eigenvalues -- -105.58680 -20.52007 -15.54289 -11.35087 -11.29486
  Beta  occ. eigenvalues --  -11.27616 -10.63651  -7.80573  -7.80311  -7.80088
  Beta  occ. eigenvalues --   -7.67323  -1.45537  -1.26903  -1.08774  -1.00374
  Beta  occ. eigenvalues --   -0.97624  -0.80982  -0.74794  -0.68555  -0.68272
  Beta  occ. eigenvalues --   -0.63106  -0.58746  -0.58510  -0.58164  -0.56209
  Beta  occ. eigenvalues --   -0.54433  -0.51121  -0.49304  -0.42037  -0.40331
  Beta virt. eigenvalues --    0.02711   0.03908   0.04234   0.04581   0.05728
  Beta virt. eigenvalues --    0.06226   0.06446   0.06611   0.07247   0.08730
  Beta virt. eigenvalues --    0.09588   0.10389   0.12845   0.13243   0.13654

 Mulliken charges and spin densities:
               1          2
     1  Cl  -0.256827   0.022162
     2  B    0.130695   0.952297
     3  C    0.476356  -0.063303
     4  O   -1.185155   0.094697
     5  N    0.843275  -0.003800
     6  C   -0.455802   0.006863
     7  H   -0.003459  -0.006413
     8  H    0.160168   0.000750
     9  H    0.168923  -0.001775
    10  C   -0.253768  -0.000038
    11  H    0.023143  -0.001426
    12  H    0.176714  -0.000394
    13  H    0.175738   0.000378
 Sum of Mulliken charges =  -0.00000   1.00000

 Dipole moment (field-independent basis, Debye):
    X=              2.3335    Y=              3.4039    Z=              0.2573  Tot=              4.1349
                          Isotropic Fermi Contact Couplings
        Atom                 a.u.       MegaHertz       Gauss      10(-4) cm-1
     1  Cl(35)             0.06505      28.52230      10.17747       9.51402
     2  B(11)              0.32443     465.34803     166.04775     155.22339
     3  C(13)              0.02299      25.84518       9.22220       8.62102
     4  O(17)              0.02603     -15.78028      -5.63080      -5.26374
     5  N(14)             -0.00219      -0.70818      -0.25270      -0.23622
     6  C(13)              0.00041       0.45955       0.16398       0.15329
     7  H(1)              -0.00009      -0.41786      -0.14910      -0.13938
     8  H(1)              -0.00019      -0.83442      -0.29774      -0.27833

 Normal termination of Gaussian 16 at Tue Apr  8 23:57:06 2025.
