 Gaussian 16, Revision C.01,

 ----------------------------------------------------------------------
 #t hf aug-cc-pvdz symm=none int=(grid=ultrafine) guess=(read,tcheck) s
 table=opt
 ----------------------------------------------------------------------
 -----
 title
 -----
 Symbolic Z-matrix:
 Charge =  0 Multiplicity = 2

 SCF Done:  E(UHF) =  -748.416133155     A.U. after   19 cycles
 Normal termination of Gaussian 16 at Wed Apr  9 00:06:36 2025.
 Gaussian 16:  ES64L-G16RevC.01  3-Jul-2019

 ----------------------------------------------------------------------
 #t hf aug-cc-pvdz iop(5/13=1,5/36=2,99/5=2) pseudo=read geom=check gue
 ss=(read,tcheck) scf=(maxcycle=1)
 ----------------------------------------------------------------------
 -----
 title
 -----
 Structure from the checkpoint file:  "BDE49_nonexpt_223_mol2.chk"
 Charge =  0 Multiplicity = 2

                         Standard orientation:
 ---------------------------------------------------------------------
 Center     Atomic      Atomic             Coordinates (Angstroms)
 Number     Number       Type             X           Y           Z
 ---------------------------------------------------------------------
      1          5           0       -0.575318   -0.749832   -0.307894
      2         17           0       -2.128564   -0.044750   -0.023736
      3          6           0        0.831747   -0.035415   -0.033886
      4          8           0        1.886668   -0.610099   -0.749257
      5          1           0        1.771542   -1.565972   -0.710444
      6          8           0        1.023407   -0.144283    1.358035
      7          1           0        1.941658    0.114066    1.528026
      8          8           0        0.853242    1.302759   -0.457618
      9          1           0        0.251968    1.787299    0.119435
 ---------------------------------------------------------------------

 SCF Done:  E(UHF) =  -748.773161297     A.U. after    2 cycles

 The electronic state is 2-A.
 Alpha  occ. eigenvalues -- -105.59521 -20.58094 -20.57853 -20.57508 -11.40742
 Alpha  occ. eigenvalues --  -10.64540  -7.81467  -7.81159  -7.81093  -7.69866
 Alpha  occ. eigenvalues --   -1.55633  -1.45512  -1.45112  -1.10658  -0.92355
 Alpha  occ. eigenvalues --   -0.81479  -0.72504  -0.68829  -0.65192  -0.64188
 Alpha  occ. eigenvalues --   -0.61841  -0.55724  -0.52645  -0.52344  -0.51573
 Alpha  occ. eigenvalues --   -0.48544  -0.47610  -0.36859
 Alpha virt. eigenvalues --    0.03403   0.04075   0.04323   0.04971   0.06392
 Alpha virt. eigenvalues --    0.07070   0.07509   0.10194   0.12233   0.14662
 Alpha virt. eigenvalues --    0.14992   0.15481   0.16804   0.16909   0.19014

  Beta  occ. eigenvalues -- -105.59453 -20.58086 -20.57858 -20.57410 -11.40566
  Beta  occ. eigenvalues --  -10.64461  -7.81359  -7.81122  -7.80913  -7.67876
  Beta  occ. eigenvalues --   -1.55479  -1.45467  -1.44918  -1.09719  -0.91431
  Beta  occ. eigenvalues --   -0.80777  -0.71315  -0.68402  -0.64424  -0.63304
  Beta  occ. eigenvalues --   -0.61137  -0.54674  -0.51910  -0.51712  -0.50628
  Beta  occ. eigenvalues --   -0.48243  -0.46029
  Beta virt. eigenvalues --    0.02647   0.03980   0.04487   0.05196   0.06526
  Beta virt. eigenvalues --    0.07434   0.07535   0.08911   0.11894   0.12380
  Beta virt. eigenvalues --    0.15107   0.15406   0.15787   0.16959   0.17316

 Mulliken charges and spin densities:
               1          2
     1  B    0.078696   1.013272
     2  Cl  -0.207378   0.005023
     3  C    3.131223  -0.049184
     4  O   -1.305613   0.009401
     5  H    0.345508  -0.009111
     6  O   -1.192878   0.010039
     7  H    0.168656   0.000244
     8  O   -1.317993   0.024417
     9  H    0.299779  -0.004101
 Sum of Mulliken charges =   0.00000   1.00000

 Dipole moment (field-independent basis, Debye):
    X=             -0.1086    Y=             -0.6645    Z=              1.0332  Tot=              1.2332
                          Isotropic Fermi Contact Couplings
        Atom                 a.u.       MegaHertz       Gauss      10(-4) cm-1
     1  B(11)              0.32594     467.52346     166.82400     155.94904
     2  Cl(35)             0.06788      29.76312      10.62022       9.92791
     3  C(13)              0.04150      46.65714      16.64843      15.56315
     4  O(17)             -0.00008       0.04631       0.01653       0.01545
     5  H(1)              -0.00039      -1.72159      -0.61430      -0.57426
     6  O(17)              0.00208      -1.26142      -0.45011      -0.42077
     7  H(1)               0.00052       2.31711       0.82680       0.77291
     8  O(17)              0.00869      -5.26884      -1.88005      -1.75750

 1\1\GINC-SE419\SP\UHF\Aug-CC-pVDZ\C1H3B1Cl1O3(2)\OHZDE\09-Apr-2025\0\\
 #t hf aug-cc-pvdz iop(5/13=1,5/36=2,99/5=2) pseudo=read geom=check gue
 ss=(read,tcheck) scf=(maxcycle=1)\\title\\0,2\B,0,-0.575318,-0.749832,
 -0.307894\Cl,0,-2.128564,-0.04475,-0.023736\C,0,0.831747,-0.035415,-0.
 033886\O,0,1.886668,-0.610099,-0.749257\H,0,1.771542,-1.565972,-0.7104
 44\O,0,1.023407,-0.144283,1.358035\H,0,1.941658,0.114066,1.528026\O,0,
 0.853242,1.302759,-0.457618\H,0,0.251968,1.787299,0.119435\\Version=ES
 64L-G16RevC.01\State=2-A\HF=-748.7731613\S2=0.754514\S2-1=0.\S2A=0.750

 Normal termination of Gaussian 16 at Wed Apr  9 00:06:39 2025.
