 Gaussian 16, Revision C.01,

 ----------------------------------------------------------------------
 #t hf aug-cc-pvdz symm=none int=(grid=ultrafine) guess=(read,tcheck) s
 table=(opt,rrhf)
 ----------------------------------------------------------------------
 -----
 title
 -----
 Symbolic Z-matrix:
 Charge =  0 Multiplicity = 1

 SCF Done:  E(RHF) =  -995.020782791     A.U. after   14 cycles
 Normal termination of Gaussian 16 at Wed Apr  9 00:13:01 2025.
 Gaussian 16:  ES64L-G16RevC.01  3-Jul-2019

 ----------------------------------------------------------------------
 #t hf aug-cc-pvdz iop(5/13=1,5/36=2,99/5=2) pseudo=read geom=check gue
 ss=(read,tcheck) scf=(maxcycle=1)
 ----------------------------------------------------------------------
 -----
 title
 -----
 Structure from the checkpoint file:  "BDE49_nonexpt_2371_mol1.chk"
 Charge =  0 Multiplicity = 1

                         Standard orientation:
 ---------------------------------------------------------------------
 Center     Atomic      Atomic             Coordinates (Angstroms)
 Number     Number       Type             X           Y           Z
 ---------------------------------------------------------------------
      1         14           0       -1.154448   -1.567201   -0.450269
      2         14           0        0.924553   -1.502649    0.673302
      3          6           0        1.829348    0.128143    0.178272
      4          1           0        1.798200   -2.669441    0.368676
      5          1           0        0.748756   -1.432357    2.143698
      6          8           0        1.196030    1.187795    0.214226
      7          7           0        3.133115    0.073089   -0.192890
      8          6           0       -2.298497   -0.033588   -0.183489
      9          1           0       -1.902578   -2.754918    0.014480
     10          1           0       -0.890976   -1.703202   -1.903969
     11          8           0       -3.495341   -0.221058   -0.376700
     12          7           0       -1.751238    1.151603    0.176228
     13          6           0        3.909551    1.246321   -0.577625
     14          1           0        3.585948   -0.827506   -0.191952
     15          1           0        3.243357    2.106078   -0.546576
     16          1           0        4.306341    1.132944   -1.589640
     17          1           0        4.738954    1.410486    0.115443
     18          6           0       -2.551241    2.358609    0.334377
     19          1           0       -0.737854    1.224805    0.251361
     20          1           0       -2.325865    3.086787   -0.450944
     21          1           0       -2.357753    2.819973    1.306116
     22          1           0       -3.601612    2.080598    0.268069
 ---------------------------------------------------------------------

 SCF Done:  E(RHF) =  -995.508450617     A.U. after    2 cycles

 The electronic state is 1-A.
 Alpha  occ. eigenvalues --  -69.55002 -69.54004 -20.53119 -20.49857 -15.55080
 Alpha  occ. eigenvalues --  -15.50944 -11.36362 -11.33446 -11.28466 -11.25481
 Alpha  occ. eigenvalues --   -6.22217  -6.21168  -3.97565  -3.97533  -3.97507
 Alpha  occ. eigenvalues --   -3.96505  -3.96486  -3.96483  -1.47133  -1.43900
 Alpha  occ. eigenvalues --   -1.25607  -1.22006  -0.99170  -0.95935  -0.85134
 Alpha  occ. eigenvalues --   -0.82120  -0.80781  -0.76706  -0.69231  -0.67441
 Alpha  occ. eigenvalues --   -0.66195  -0.65640  -0.63748  -0.62421  -0.58242
 Alpha  occ. eigenvalues --   -0.57411  -0.56459  -0.54376  -0.54215  -0.53617
 Alpha  occ. eigenvalues --   -0.50960  -0.48852  -0.44216  -0.43451  -0.41848
 Alpha  occ. eigenvalues --   -0.39805  -0.37819
 Alpha virt. eigenvalues --    0.02247   0.03746   0.03908   0.04360   0.04797
 Alpha virt. eigenvalues --    0.05198   0.05808   0.06229   0.06469   0.07200
 Alpha virt. eigenvalues --    0.07733   0.07871   0.08137   0.09240   0.09969

 Mulliken charges:
               1
     1  Si   0.561277
     2  Si   0.595862
     3  C    0.035066
     4  H   -0.166630
     5  H   -0.145963
     6  O   -1.397228
     7  N    0.707601
     8  C   -0.013498
     9  H   -0.087630
    10  H   -0.104586
    11  O   -1.212887
    12  N    0.908773
    13  C   -0.287752
    14  H    0.099271
    15  H    0.093945
    16  H    0.115432
    17  H    0.114961
    18  C   -0.207605
    19  H    0.038110
    20  H    0.171449
    21  H    0.154566
    22  H    0.027467
 Sum of Mulliken charges =  -0.00000

 Dipole moment (field-independent basis, Debye):
    X=              6.2887    Y=             -0.6486    Z=              0.1572  Tot=              6.3241

 Test job not archived.
 1\1\GINC-SE073\SP\RHF\Aug-CC-pVDZ\C4H12N2O2Si2\OHZDE\09-Apr-2025\0\\#t
  hf aug-cc-pvdz iop(5/13=1,5/36=2,99/5=2) pseudo=read geom=check guess
 =(read,tcheck) scf=(maxcycle=1)\\title\\0,1\Si,0,-1.154448,-1.567201,-
 0.450269\Si,0,0.924553,-1.502649,0.673302\C,0,1.829348,0.128143,0.1782
 72\H,0,1.7982,-2.669441,0.368676\H,0,0.748756,-1.432357,2.143698\O,0,1
 .19603,1.187795,0.214226\N,0,3.133115,0.073089,-0.19289\C,0,-2.298497,
 -0.033588,-0.183489\H,0,-1.902578,-2.754918,0.01448\H,0,-0.890976,-1.7
 03202,-1.903969\O,0,-3.495341,-0.221058,-0.3767\N,0,-1.751238,1.151603

 Normal termination of Gaussian 16 at Wed Apr  9 00:13:15 2025.
