 Gaussian 16, Revision C.01,

 ----------------------------------------------------------------------
 #t hf aug-cc-pvdz symm=none int=(grid=ultrafine) guess=(read,tcheck) s
 table=(opt,rrhf)
 ----------------------------------------------------------------------
 -----
 title
 -----
 Symbolic Z-matrix:
 Charge =  0 Multiplicity = 1

 SCF Done:  E(RHF) =  -1412.53044654     A.U. after   15 cycles
 Normal termination of Gaussian 16 at Tue Apr  8 23:39:43 2025.
 Gaussian 16:  ES64L-G16RevC.01  3-Jul-2019

 ----------------------------------------------------------------------
 #t hf aug-cc-pvdz iop(5/13=1,5/36=2,99/5=2) pseudo=read geom=check gue
 ss=(read,tcheck) scf=(maxcycle=1)
 ----------------------------------------------------------------------
 -----
 title
 -----
 Structure from the checkpoint file:  "BDE49_nonexpt_1588_mol1.chk"
 Charge =  0 Multiplicity = 1

                         Standard orientation:
 ---------------------------------------------------------------------
 Center     Atomic      Atomic             Coordinates (Angstroms)
 Number     Number       Type             X           Y           Z
 ---------------------------------------------------------------------
      1          8           0       -0.607339    0.629884   -0.706674
      2         15           0       -1.942319   -0.011175    0.022118
      3          8           0       -2.967956    1.018249   -0.078824
      4          8           0       -2.212181   -1.410163   -0.661933
      5          8           0        0.524406   -0.323362   -0.670716
      6          6           0        1.554905    0.320750   -0.035170
      7         17           0        2.881870   -0.854739   -0.014998
      8          9           0        1.227088    0.670356    1.229744
      9          9           0        1.924924    1.437095   -0.662704
     10          1           0       -2.823694   -1.340421   -1.405060
     11          8           0       -1.451029   -0.538389    1.427169
     12          1           0       -1.018049    0.137301    1.963747
 ---------------------------------------------------------------------

 SCF Done:  E(RHF) =  -1413.22636805     A.U. after    2 cycles

 The electronic state is 1-A.
 Alpha  occ. eigenvalues -- -105.62034 -84.49109 -26.54181 -26.53716 -20.70278
 Alpha  occ. eigenvalues --  -20.68284 -20.62572 -20.62533 -20.53384 -11.57808
 Alpha  occ. eigenvalues --  -10.66922  -7.83877  -7.83422  -7.83413  -6.93995
 Alpha  occ. eigenvalues --   -4.48205  -4.47442  -4.47336  -1.73812  -1.65271
 Alpha  occ. eigenvalues --   -1.64578  -1.57177  -1.50995  -1.43392  -1.38236
 Alpha  occ. eigenvalues --   -1.13966  -0.94589  -0.90024  -0.83812  -0.83584
 Alpha  occ. eigenvalues --   -0.80715  -0.76338  -0.74104  -0.71945  -0.69752
 Alpha  occ. eigenvalues --   -0.68521  -0.67326  -0.66078  -0.64608  -0.61168
 Alpha  occ. eigenvalues --   -0.60287  -0.58816  -0.56791  -0.55682  -0.54005
 Alpha  occ. eigenvalues --   -0.51938  -0.51480  -0.48835  -0.48613
 Alpha virt. eigenvalues --    0.03434   0.04566   0.06647   0.08270   0.09203
 Alpha virt. eigenvalues --    0.09936   0.10443   0.10931   0.12248   0.12662
 Alpha virt. eigenvalues --    0.14190   0.14714   0.14890   0.16965   0.17864

 Mulliken charges:
               1
     1  O   -0.989759
     2  P    4.153485
     3  O   -1.312263
     4  O   -1.255952
     5  O   -0.917095
     6  C    2.238081
     7  Cl  -0.098233
     8  F   -0.648812
     9  F   -0.639728
    10  H    0.374408
    11  O   -1.289894
    12  H    0.385762
 Sum of Mulliken charges =  -0.00000

 Dipole moment (field-independent basis, Debye):
    X=              1.1281    Y=             -1.6713    Z=              0.1905  Tot=              2.0254

 Test job not archived.
 1\1\GINC-SE045\SP\RHF\Aug-CC-pVDZ\C1H2Cl1F2O5P1\OHZDE\08-Apr-2025\0\\#
 t hf aug-cc-pvdz iop(5/13=1,5/36=2,99/5=2) pseudo=read geom=check gues
 s=(read,tcheck) scf=(maxcycle=1)\\title\\0,1\O,0,-0.607339,0.629884,-0
 .706674\P,0,-1.942319,-0.011175,0.022118\O,0,-2.967956,1.018249,-0.078
 824\O,0,-2.212181,-1.410163,-0.661933\O,0,0.524406,-0.323362,-0.670716
 \C,0,1.554905,0.32075,-0.03517\Cl,0,2.88187,-0.854739,-0.014998\F,0,1.
 227088,0.670356,1.229744\F,0,1.924924,1.437095,-0.662704\H,0,-2.823694
 ,-1.340421,-1.40506\O,0,-1.451029,-0.538389,1.427169\H,0,-1.018049,0.1

 Normal termination of Gaussian 16 at Tue Apr  8 23:39:51 2025.
