 Gaussian 16, Revision C.01,

 ----------------------------------------------------------------------
 #t hf aug-cc-pvdz symm=none int=(grid=ultrafine) guess=(read,tcheck) s
 table=opt
 ----------------------------------------------------------------------
 -----
 title
 -----
 Symbolic Z-matrix:
 Charge =  0 Multiplicity = 2

 SCF Done:  E(UHF) =  -1059.17498722     A.U. after   23 cycles
 Normal termination of Gaussian 16 at Wed Apr  9 00:18:47 2025.
 Gaussian 16:  ES64L-G16RevC.01  3-Jul-2019

 ----------------------------------------------------------------------
 #t hf aug-cc-pvdz iop(5/13=1,5/36=2,99/5=2) pseudo=read geom=check gue
 ss=(read,tcheck) scf=(maxcycle=1)
 ----------------------------------------------------------------------
 -----
 title
 -----
 Structure from the checkpoint file:  "BDE49_nonexpt_2578_mol2.chk"
 Charge =  0 Multiplicity = 2

                         Standard orientation:
 ---------------------------------------------------------------------
 Center     Atomic      Atomic             Coordinates (Angstroms)
 Number     Number       Type             X           Y           Z
 ---------------------------------------------------------------------
      1         16           0        1.356524    1.175244   -0.083548
      2         16           0        0.159984   -0.511642    0.056047
      3          8           0       -0.085966   -0.645931    1.471390
      4          8           0       -1.213296   -0.126225   -0.683268
      5          6           0       -2.097523    0.823801   -0.039354
      6          1           0       -3.000530    0.813667   -0.645357
      7          1           0       -1.648288    1.819095   -0.050066
      8          1           0       -2.313499    0.506991    0.980195
      9          8           0        0.709680   -1.565369   -0.739200
 ---------------------------------------------------------------------

 SCF Done:  E(UHF) =  -1059.55091115     A.U. after    2 cycles

 The electronic state is 2-A.
 Alpha  occ. eigenvalues --  -94.26678 -94.03806 -20.63039 -20.57630 -20.57273
 Alpha  occ. eigenvalues --  -11.32903  -8.51290  -8.31949  -6.49381  -6.49242
 Alpha  occ. eigenvalues --   -6.49113  -6.31054  -6.29332  -6.28922  -1.63332
 Alpha  occ. eigenvalues --   -1.50514  -1.48135  -1.11116  -1.00581  -0.86524
 Alpha  occ. eigenvalues --   -0.75534  -0.72886  -0.71201  -0.66248  -0.64680
 Alpha  occ. eigenvalues --   -0.58801  -0.56050  -0.53720  -0.52338  -0.50010
 Alpha  occ. eigenvalues --   -0.48612  -0.48089  -0.45030
 Alpha virt. eigenvalues --    0.03072   0.04442   0.05623   0.06071   0.08892
 Alpha virt. eigenvalues --    0.09759   0.10580   0.11456   0.12183   0.13611
 Alpha virt. eigenvalues --    0.14230   0.15519   0.15652   0.16388   0.18567

  Beta  occ. eigenvalues --  -94.26713 -94.02885 -20.63067 -20.57419 -20.57203
  Beta  occ. eigenvalues --  -11.32902  -8.51337  -8.30893  -6.49421  -6.49265
  Beta  occ. eigenvalues --   -6.49222  -6.28799  -6.28374  -6.26947  -1.63241
  Beta  occ. eigenvalues --   -1.50470  -1.47784  -1.05400  -0.99237  -0.84603
  Beta  occ. eigenvalues --   -0.74968  -0.71828  -0.70918  -0.65872  -0.64423
  Beta  occ. eigenvalues --   -0.58420  -0.53802  -0.52445  -0.51745  -0.49384
  Beta  occ. eigenvalues --   -0.47047  -0.42921
  Beta virt. eigenvalues --   -0.04758   0.03109   0.04622   0.05706   0.06490
  Beta virt. eigenvalues --    0.09052   0.10279   0.11319   0.12210   0.12408
  Beta virt. eigenvalues --    0.13848   0.14338   0.15591   0.16060   0.16626

 Mulliken charges and spin densities:
               1          2
     1  S    0.202678   1.063007
     2  S    3.347292  -0.071673
     3  O   -1.346560   0.017852
     4  O   -1.460825  -0.007837
     5  C    0.167943   0.003541
     6  H    0.033570   0.000713
     7  H    0.200230  -0.010449
     8  H    0.190414  -0.000750
     9  O   -1.334741   0.005596
 Sum of Mulliken charges =  -0.00000   1.00000

 Dipole moment (field-independent basis, Debye):
    X=             -1.8038    Y=              3.8831    Z=             -0.3661  Tot=              4.2972
                          Isotropic Fermi Contact Couplings
        Atom                 a.u.       MegaHertz       Gauss      10(-4) cm-1
     1  S(33)              0.17839      61.27165      21.86325      20.43802
     2  S(33)             -0.03629     -12.46464      -4.44769      -4.15776
     3  O(17)              0.02000     -12.12434      -4.32627      -4.04425
     4  O(17)             -0.00340       2.06234       0.73589       0.68792
     5  C(13)             -0.00005      -0.05369      -0.01916      -0.01791
     6  H(1)               0.00001       0.03643       0.01300       0.01215
     7  H(1)               0.00010       0.44774       0.15977       0.14935
     8  H(1)              -0.00000      -0.02084      -0.00744      -0.00695

 Normal termination of Gaussian 16 at Wed Apr  9 00:18:50 2025.
