 Gaussian 16, Revision C.01,

 ----------------------------------------------------------------------
 #t hf aug-cc-pvdz symm=none int=(grid=ultrafine) guess=(read,tcheck) s
 table=opt
 ----------------------------------------------------------------------
 -----
 title
 -----
 Symbolic Z-matrix:
 Charge =  0 Multiplicity = 2

 SCF Done:  E(UHF) =  -1855.91793772     A.U. after   23 cycles
 Normal termination of Gaussian 16 at Wed Apr  9 00:54:58 2025.
 Gaussian 16:  ES64L-G16RevC.01  3-Jul-2019

 ----------------------------------------------------------------------
 #t hf aug-cc-pvdz iop(5/13=1,5/36=2,99/5=2) pseudo=read geom=check gue
 ss=(read,tcheck) scf=(maxcycle=1)
 ----------------------------------------------------------------------
 -----
 title
 -----
 Structure from the checkpoint file:  "BDE49_nonexpt_966_mol2.chk"
 Charge =  0 Multiplicity = 2

                         Standard orientation:
 ---------------------------------------------------------------------
 Center     Atomic      Atomic             Coordinates (Angstroms)
 Number     Number       Type             X           Y           Z
 ---------------------------------------------------------------------
      1         17           0        1.557618    1.964043   -0.466899
      2          7           0       -0.775598    0.873981    0.637437
      3          6           0        0.599927    1.123306    0.949424
      4          9           0       -1.345062    2.089623    0.223767
      5          7           0        1.357059   -0.037283    1.241821
      6          6           0       -0.960245   -0.136555   -0.402416
      7          6           0        0.964466   -1.246580    0.588713
      8         17           0       -2.678376   -0.308771   -0.816866
      9          7           0       -0.414593   -1.387666    0.098554
     10         17           0        2.079988   -1.526579   -0.825855
     11          9           0       -1.152916   -1.717450    1.278763
     12          1           0        0.668511    1.862428    1.740675
     13          1           0        1.134526   -2.080256    1.265081
     14          1           0       -0.421121    0.096263   -1.323997
 ---------------------------------------------------------------------

 SCF Done:  E(UHF) =  -1856.59462013     A.U. after    2 cycles

 The electronic state is 2-A.
 Alpha  occ. eigenvalues -- -105.60369-105.59647-105.58704 -26.52232 -26.51298
 Alpha  occ. eigenvalues --  -15.66375 -15.65769 -15.61350 -11.42114 -11.41971
 Alpha  occ. eigenvalues --  -11.41942 -10.65147 -10.64491 -10.63460  -7.82301
 Alpha  occ. eigenvalues --   -7.81645  -7.81631  -7.81449  -7.81009  -7.80998
 Alpha  occ. eigenvalues --   -7.80692  -7.79957  -7.79946  -1.64085  -1.62725
 Alpha  occ. eigenvalues --   -1.38016  -1.27595  -1.23847  -1.12237  -1.10272
 Alpha  occ. eigenvalues --   -1.08229  -0.97723  -0.97049  -0.84277  -0.82948
 Alpha  occ. eigenvalues --   -0.80065  -0.77743  -0.75818  -0.73267  -0.71452
 Alpha  occ. eigenvalues --   -0.68917  -0.67094  -0.65523  -0.63825  -0.62468
 Alpha  occ. eigenvalues --   -0.61858  -0.58143  -0.54667  -0.52094  -0.51181
 Alpha  occ. eigenvalues --   -0.50196  -0.49624  -0.49457  -0.48685  -0.47768
 Alpha  occ. eigenvalues --   -0.47186
 Alpha virt. eigenvalues --    0.03599   0.04559   0.05393   0.07097   0.07723
 Alpha virt. eigenvalues --    0.07970   0.08888   0.09567   0.10446   0.11898
 Alpha virt. eigenvalues --    0.12252   0.12966   0.13662   0.13829   0.14722

  Beta  occ. eigenvalues -- -105.60222-105.59646-105.58483 -26.52250 -26.51329
  Beta  occ. eigenvalues --  -15.66346 -15.65758 -15.58025 -11.42401 -11.42370
  Beta  occ. eigenvalues --  -11.42125 -10.64994 -10.64490 -10.63230  -7.81756
  Beta  occ. eigenvalues --   -7.81549  -7.81494  -7.81446  -7.81008  -7.80998
  Beta  occ. eigenvalues --   -7.79921  -7.79817  -7.79690  -1.64129  -1.62789
  Beta  occ. eigenvalues --   -1.34944  -1.23999  -1.23049  -1.10829  -1.09479
  Beta  occ. eigenvalues --   -1.06008  -0.97008  -0.96309  -0.83946  -0.82261
  Beta  occ. eigenvalues --   -0.79671  -0.76479  -0.75878  -0.71380  -0.70430
  Beta  occ. eigenvalues --   -0.66553  -0.65158  -0.64392  -0.62620  -0.61665
  Beta  occ. eigenvalues --   -0.59883  -0.56492  -0.51298  -0.50937  -0.50402
  Beta  occ. eigenvalues --   -0.49818  -0.49354  -0.48438  -0.47759  -0.46693
  Beta virt. eigenvalues --   -0.02018   0.03621   0.04566   0.05451   0.07238
  Beta virt. eigenvalues --    0.07828   0.08591   0.08979   0.09605   0.10537
  Beta virt. eigenvalues --    0.12079   0.12528   0.13116   0.13737   0.13952

 Mulliken charges and spin densities:
               1          2
     1  Cl   0.011418   0.165611
     2  N    1.249768   0.006927
     3  C   -0.804820  -0.239070
     4  F   -0.693899  -0.001387
     5  N    0.866950   1.110259
     6  C   -0.726926   0.012632
     7  C   -1.139950  -0.204323
     8  Cl   0.089901   0.000555
     9  N    1.302646   0.014456
    10  Cl   0.127981   0.102846
    11  F   -0.698830  -0.003703
    12  H    0.082054   0.015168
    13  H    0.173032   0.021433
    14  H    0.160676  -0.001405
 Sum of Mulliken charges =  -0.00000   1.00000

 Dipole moment (field-independent basis, Debye):
    X=              0.7778    Y=             -0.1132    Z=              0.7320  Tot=              1.0741
                          Isotropic Fermi Contact Couplings
        Atom                 a.u.       MegaHertz       Gauss      10(-4) cm-1
     1  Cl(35)             0.04771      20.91902       7.46443       6.97783
     2  N(14)              0.00197       0.63734       0.22742       0.21259
     3  C(13)             -0.06372     -71.62956     -25.55921     -23.89305
     4  F(19)             -0.00210      -8.81971      -3.14709      -2.94194
     5  N(14)              0.31755     102.60255      36.61114      34.22453
     6  C(13)             -0.00238      -2.67848      -0.95575      -0.89344
     7  C(13)             -0.06096     -68.52661     -24.45200     -22.85802
     8  Cl(35)             0.00013       0.05532       0.01974       0.01845

 1\1\GINC-SE049\SP\UHF\Aug-CC-pVDZ\C3H3Cl3F2N3(2)\OHZDE\09-Apr-2025\0\\
 #t hf aug-cc-pvdz iop(5/13=1,5/36=2,99/5=2) pseudo=read geom=check gue
 ss=(read,tcheck) scf=(maxcycle=1)\\title\\0,2\Cl,0,1.557618,1.964043,-
 0.466899\N,0,-0.775598,0.873981,0.637437\C,0,0.599927,1.123306,0.94942
 4\F,0,-1.345062,2.089623,0.223767\N,0,1.357059,-0.037283,1.241821\C,0,
 -0.960245,-0.136555,-0.402416\C,0,0.964466,-1.24658,0.588713\Cl,0,-2.6
 78376,-0.308771,-0.816866\N,0,-0.414593,-1.387666,0.098554\Cl,0,2.0799
 88,-1.526579,-0.825855\F,0,-1.152916,-1.71745,1.278763\H,0,0.668511,1.

 Normal termination of Gaussian 16 at Wed Apr  9 00:55:08 2025.
