 Gaussian 16, Revision C.01,

 ----------------------------------------------------------------------
 #t hf aug-cc-pvdz symm=none int=(grid=ultrafine) guess=(read,tcheck) s
 table=(opt,rrhf)
 ----------------------------------------------------------------------
 -----
 title
 -----
 Symbolic Z-matrix:
 Charge =  0 Multiplicity = 1

 SCF Done:  E(RHF) =  -2166.09249019     A.U. after   12 cycles
 Normal termination of Gaussian 16 at Tue Apr  8 23:49:06 2025.
 Gaussian 16:  ES64L-G16RevC.01  3-Jul-2019

 ----------------------------------------------------------------------
 #t hf aug-cc-pvdz iop(5/13=1,5/36=2,99/5=2) pseudo=read geom=check gue
 ss=(read,tcheck) scf=(maxcycle=1)
 ----------------------------------------------------------------------
 -----
 title
 -----
 Structure from the checkpoint file:  "BDE49_nonexpt_1821_mol1.chk"
 Charge =  0 Multiplicity = 1

                         Standard orientation:
 ---------------------------------------------------------------------
 Center     Atomic      Atomic             Coordinates (Angstroms)
 Number     Number       Type             X           Y           Z
 ---------------------------------------------------------------------
      1          6           0        0.967759    0.000000   -0.441542
      2         14           0       -0.713101    0.000000    0.440256
      3         17           0        1.874494    1.486134    0.019959
      4         17           0        1.874494   -1.486134    0.019961
      5         17           0       -1.762506    1.674740   -0.134103
      6         17           0       -1.762506   -1.674740   -0.134105
      7          1           0        0.891769   -0.000001   -1.525665
      8          1           0       -0.522497   -0.000001    1.892228
 ---------------------------------------------------------------------

 SCF Done:  E(RHF) =  -2166.47044976     A.U. after    2 cycles

 The electronic state is 1-A.
 Alpha  occ. eigenvalues -- -105.59613-105.59612-105.58556-105.58556 -69.65222
 Alpha  occ. eigenvalues --  -11.38439 -10.64391 -10.64379 -10.63584 -10.63574
 Alpha  occ. eigenvalues --   -7.81331  -7.81330  -7.80927  -7.80927  -7.80918
 Alpha  occ. eigenvalues --   -7.80916  -7.80471  -7.80465  -7.80144  -7.80142
 Alpha  occ. eigenvalues --   -7.80137  -7.80134  -6.31391  -4.06815  -4.06703
 Alpha  occ. eigenvalues --   -4.06593  -1.17435  -1.09991  -1.07005  -1.05900
 Alpha  occ. eigenvalues --   -0.89646  -0.75728  -0.65999  -0.61666  -0.61435
 Alpha  occ. eigenvalues --   -0.58099  -0.57323  -0.51308  -0.50318  -0.49965
 Alpha  occ. eigenvalues --   -0.49803  -0.48544  -0.48456  -0.46482  -0.44629
 Alpha virt. eigenvalues --    0.03949   0.04937   0.05568   0.05618   0.07722
 Alpha virt. eigenvalues --    0.07972   0.09421   0.09897   0.11969   0.12140
 Alpha virt. eigenvalues --    0.13194   0.13446   0.14207   0.15190   0.15736

 Mulliken charges:
               1
     1  C   -0.873141
     2  Si   1.809995
     3  Cl  -0.044773
     4  Cl  -0.044773
     5  Cl  -0.536740
     6  Cl  -0.536741
     7  H    0.308672
     8  H   -0.082499
 Sum of Mulliken charges =  -0.00000

 Dipole moment (field-independent basis, Debye):
    X=             -0.1191    Y=              0.0000    Z=             -0.1735  Tot=              0.2105

 Test job not archived.
 1\1\GINC-SE096\SP\RHF\Aug-CC-pVDZ\C1H2Cl4Si1\OHZDE\08-Apr-2025\0\\#t h
 f aug-cc-pvdz iop(5/13=1,5/36=2,99/5=2) pseudo=read geom=check guess=(
 read,tcheck) scf=(maxcycle=1)\\title\\0,1\C,0,0.967759,0.,-0.441542\Si
 ,0,-0.713101,0.,0.440256\Cl,0,1.874494,1.486134,0.019959\Cl,0,1.874494
 ,-1.486134,0.019961\Cl,0,-1.762506,1.67474,-0.134103\Cl,0,-1.762506,-1
 .67474,-0.134105\H,0,0.891769,-0.000001,-1.525665\H,0,-0.522497,-0.000
 001,1.892228\\Version=ES64L-G16RevC.01\State=1-A\HF=-2166.4704498\RMSD
 =4.092e-03\Dipole=-0.0468534,0.0000015,-0.0682798\Quadrupole=-2.163360

 Normal termination of Gaussian 16 at Tue Apr  8 23:49:10 2025.
