 Gaussian 16, Revision C.01,

 ----------------------------------------------------------------------
 #t hf aug-cc-pvdz symm=none int=(grid=ultrafine) guess=(read,tcheck) s
 table=opt
 ----------------------------------------------------------------------
 -----
 title
 -----
 Symbolic Z-matrix:
 Charge =  0 Multiplicity = 2

 SCF Done:  E(UHF) =  -462.373541872     A.U. after   17 cycles
 Normal termination of Gaussian 16 at Tue Apr  8 23:15:48 2025.
 Gaussian 16:  ES64L-G16RevC.01  3-Jul-2019

 ----------------------------------------------------------------------
 #t hf aug-cc-pvdz iop(5/13=1,5/36=2,99/5=2) pseudo=read geom=check gue
 ss=(read,tcheck) scf=(maxcycle=1)
 ----------------------------------------------------------------------
 -----
 title
 -----
 Structure from the checkpoint file:  "BDE49_nonexpt_100_mol2.chk"
 Charge =  0 Multiplicity = 2

                         Standard orientation:
 ---------------------------------------------------------------------
 Center     Atomic      Atomic             Coordinates (Angstroms)
 Number     Number       Type             X           Y           Z
 ---------------------------------------------------------------------
      1          5           0       -1.536857    0.596677   -0.000003
      2         16           0       -0.246431   -0.546849    0.000002
      3          6           0        1.368561    0.387347   -0.000001
      4          1           0        1.925000    0.103183    0.892593
      5          1           0        1.173804    1.457355   -0.000006
      6          1           0        1.925001    0.103175   -0.892593
      7          1           0       -1.607994    1.778407   -0.000008
 ---------------------------------------------------------------------

 SCF Done:  E(UHF) =  -462.500701940     A.U. after    2 cycles

 The electronic state is 2-A.
 Alpha  occ. eigenvalues --  -93.95679 -11.28129  -8.24024  -7.63458  -6.21746
 Alpha  occ. eigenvalues --   -6.21581  -6.21466  -1.07334  -0.91745  -0.67897
 Alpha  occ. eigenvalues --   -0.60727  -0.60074  -0.55827  -0.45396  -0.39734
 Alpha  occ. eigenvalues --   -0.33660
 Alpha virt. eigenvalues --    0.03414   0.04120   0.04649   0.05539   0.06118
 Alpha virt. eigenvalues --    0.07116   0.08188   0.10771   0.11337   0.13245
 Alpha virt. eigenvalues --    0.14247   0.14293   0.16248   0.17187   0.17260

  Beta  occ. eigenvalues --  -93.95778 -11.27754  -8.24109  -7.61554  -6.22007
  Beta  occ. eigenvalues --   -6.21729  -6.21699  -1.06610  -0.90596  -0.64745
  Beta  occ. eigenvalues --   -0.60592  -0.58583  -0.53936  -0.44466  -0.39952
  Beta virt. eigenvalues --    0.03079   0.04342   0.04395   0.04808   0.06593
  Beta virt. eigenvalues --    0.07176   0.08253   0.09213   0.12210   0.12515
  Beta virt. eigenvalues --    0.13379   0.14820   0.14870   0.16746   0.17231

 Mulliken charges and spin densities:
               1          2
     1  B   -0.173376   1.052520
     2  S    0.128807  -0.165334
     3  C   -0.713481   0.146924
     4  H    0.201988  -0.005797
     5  H    0.040071  -0.005914
     6  H    0.201990  -0.005797
     7  H    0.314001  -0.016602
 Sum of Mulliken charges =  -0.00000   1.00000

 Dipole moment (field-independent basis, Debye):
    X=              1.9962    Y=              1.1788    Z=             -0.0000  Tot=              2.3183
                          Isotropic Fermi Contact Couplings
        Atom                 a.u.       MegaHertz       Gauss      10(-4) cm-1
     1  B(11)              0.26061     373.80455     133.38276     124.68778
     2  S(33)              0.11152      38.30248      13.66728      12.77633
     3  C(13)              0.07273      81.76588      29.17610      27.27416
     4  H(1)              -0.00128      -5.71604      -2.03962      -1.90666
     5  H(1)              -0.00200      -8.95568      -3.19561      -2.98729
     6  H(1)              -0.00128      -5.71604      -2.03963      -1.90667
     7  H(1)              -0.00043      -1.92751      -0.68778      -0.64295
 --------------------------------------------------------

 Normal termination of Gaussian 16 at Tue Apr  8 23:15:50 2025.
