 Gaussian 16, Revision C.01,

 ----------------------------------------------------------------------
 #t hf aug-cc-pvdz symm=none int=(grid=ultrafine) guess=(read,tcheck) s
 table=(opt,rrhf)
 ----------------------------------------------------------------------
 -----
 title
 -----
 Symbolic Z-matrix:
 Charge =  0 Multiplicity = 1

 SCF Done:  E(RHF) =  -737.331694628     A.U. after   17 cycles
 Normal termination of Gaussian 16 at Wed Apr  9 00:00:39 2025.
 Gaussian 16:  ES64L-G16RevC.01  3-Jul-2019

 ----------------------------------------------------------------------
 #t hf aug-cc-pvdz iop(5/13=1,5/36=2,99/5=2) pseudo=read geom=check gue
 ss=(read,tcheck) scf=(maxcycle=1)
 ----------------------------------------------------------------------
 -----
 title
 -----
 Structure from the checkpoint file:  "BDE49_nonexpt_2113_mol1.chk"
 Charge =  0 Multiplicity = 1

                         Standard orientation:
 ---------------------------------------------------------------------
 Center     Atomic      Atomic             Coordinates (Angstroms)
 Number     Number       Type             X           Y           Z
 ---------------------------------------------------------------------
      1         14           0       -0.075649    0.550305    0.538142
      2          7           0       -1.387840   -0.584451   -0.120833
      3          7           0        1.516470   -0.286032    0.064456
      4          8           0       -1.162216   -1.532786   -0.851079
      5          8           0       -2.502758   -0.211801    0.254479
      6          8           0        2.168085    0.180261   -0.864833
      7          8           0        1.818685   -1.275766    0.722026
      8          6           0       -0.238825    2.180516   -0.301771
      9          1           0       -0.114526    2.069355   -1.380602
     10          1           0        0.529136    2.867685    0.062585
     11          1           0       -1.223206    2.605622   -0.092568
     12          1           0       -0.174155    0.484091    1.997106
 ---------------------------------------------------------------------

 SCF Done:  E(RHF) =  -737.793049654     A.U. after    2 cycles

 The electronic state is 1-A.
 Alpha  occ. eigenvalues --  -69.66350 -20.62289 -20.61595 -20.61588 -20.61566
 Alpha  occ. eigenvalues --  -15.78485 -15.78173 -11.28287  -6.32950  -4.08317
 Alpha  occ. eigenvalues --   -4.08219  -4.08104  -1.68437  -1.67887  -1.52726
 Alpha  occ. eigenvalues --   -1.52278  -1.06794  -1.00335  -0.99880  -0.84978
 Alpha  occ. eigenvalues --   -0.81824  -0.76659  -0.76318  -0.75405  -0.74852
 Alpha  occ. eigenvalues --   -0.67761  -0.62525  -0.62192  -0.55933  -0.52308
 Alpha  occ. eigenvalues --   -0.51051  -0.49680  -0.48501  -0.47206  -0.46478
 Alpha virt. eigenvalues --    0.02031   0.02259   0.03162   0.04184   0.04524
 Alpha virt. eigenvalues --    0.04885   0.06960   0.07303   0.08449   0.10815
 Alpha virt. eigenvalues --    0.11458   0.12653   0.13782   0.14028   0.14661

 Mulliken charges:
               1
     1  Si   1.481155
     2  N    1.795338
     3  N    1.912526
     4  O   -1.152255
     5  O   -1.226186
     6  O   -1.158163
     7  O   -1.260274
     8  C   -0.616927
     9  H    0.169218
    10  H    0.068418
    11  H    0.100523
    12  H   -0.113373
 Sum of Mulliken charges =  -0.00000

 Dipole moment (field-independent basis, Debye):
    X=             -0.4305    Y=              4.7963    Z=              1.5910  Tot=              5.0716

 Test job not archived.
 1\1\GINC-SE335\SP\RHF\Aug-CC-pVDZ\C1H4N2O4Si1\OHZDE\09-Apr-2025\0\\#t
 hf aug-cc-pvdz iop(5/13=1,5/36=2,99/5=2) pseudo=read geom=check guess=
 (read,tcheck) scf=(maxcycle=1)\\title\\0,1\Si,0,-0.075649,0.550305,0.5
 38142\N,0,-1.38784,-0.584451,-0.120833\N,0,1.51647,-0.286032,0.064456\
 O,0,-1.162216,-1.532786,-0.851079\O,0,-2.502758,-0.211801,0.254479\O,0
 ,2.168085,0.180261,-0.864833\O,0,1.818685,-1.275766,0.722026\C,0,-0.23
 8825,2.180516,-0.301771\H,0,-0.114526,2.069355,-1.380602\H,0,0.529136,
 2.867685,0.062585\H,0,-1.223206,2.605622,-0.092568\H,0,-0.174155,0.484

 Normal termination of Gaussian 16 at Wed Apr  9 00:00:44 2025.
