 Gaussian 16, Revision C.01,

 ----------------------------------------------------------------------
 #t hf aug-cc-pvdz symm=none int=(grid=ultrafine) guess=(read,tcheck) s
 table=opt
 ----------------------------------------------------------------------
 -----
 title
 -----
 Symbolic Z-matrix:
 Charge =  0 Multiplicity = 2

 SCF Done:  E(UHF) =  -716.228929576     A.U. after   23 cycles
 Normal termination of Gaussian 16 at Tue Apr  8 23:17:59 2025.
 Gaussian 16:  ES64L-G16RevC.01  3-Jul-2019

 ----------------------------------------------------------------------
 #t hf aug-cc-pvdz iop(5/13=1,5/36=2,99/5=2) pseudo=read geom=check gue
 ss=(read,tcheck) scf=(maxcycle=1)
 ----------------------------------------------------------------------
 -----
 title
 -----
 Structure from the checkpoint file:  "BDE49_nonexpt_1045_mol2.chk"
 Charge =  0 Multiplicity = 2

                         Standard orientation:
 ---------------------------------------------------------------------
 Center     Atomic      Atomic             Coordinates (Angstroms)
 Number     Number       Type             X           Y           Z
 ---------------------------------------------------------------------
      1          8           0       -2.101067   -0.152621    0.078998
      2         15           0        0.459063    0.012662   -0.112525
      3          8           0        1.386763   -0.658456   -1.004313
      4          8           0       -0.102313    1.432224   -0.458506
      5          1           0       -1.068409    1.461832   -0.311310
      6          8           0        0.898000    0.137064    1.407030
      7          1           0        1.555907   -0.523331    1.659933
      8          8           0       -1.003063   -0.899265    0.019198
 ---------------------------------------------------------------------

 SCF Done:  E(UHF) =  -716.631480163     A.U. after    2 cycles

 The electronic state is 2-A.
 Alpha  occ. eigenvalues --  -84.49418 -20.72075 -20.68207 -20.62695 -20.62656
 Alpha  occ. eigenvalues --  -20.54004  -6.94301  -4.48520  -4.47805  -4.47282
 Alpha  occ. eigenvalues --   -1.72724  -1.57307  -1.51420  -1.42956  -1.29462
 Alpha  occ. eigenvalues --   -0.88756  -0.80971  -0.79131  -0.75719  -0.72111
 Alpha  occ. eigenvalues --   -0.67705  -0.62732  -0.61300  -0.60764  -0.57122
 Alpha  occ. eigenvalues --   -0.54825  -0.52254  -0.49613  -0.48779
 Alpha virt. eigenvalues --    0.03282   0.04518   0.08344   0.08695   0.10793
 Alpha virt. eigenvalues --    0.11972   0.13848   0.16853   0.18416   0.18822
 Alpha virt. eigenvalues --    0.19072   0.21758   0.23096   0.23585   0.24126

  Beta  occ. eigenvalues --  -84.49427 -20.67998 -20.67411 -20.62692 -20.62682
  Beta  occ. eigenvalues --  -20.54018  -6.94315  -4.48526  -4.47811  -4.47321
  Beta  occ. eigenvalues --   -1.66617  -1.56787  -1.51441  -1.42895  -1.19787
  Beta  occ. eigenvalues --   -0.88327  -0.80032  -0.76051  -0.70319  -0.67181
  Beta  occ. eigenvalues --   -0.63281  -0.61394  -0.60951  -0.57466  -0.56517
  Beta  occ. eigenvalues --   -0.51033  -0.49504  -0.47921
  Beta virt. eigenvalues --    0.03286   0.04566   0.05969   0.08355   0.09149
  Beta virt. eigenvalues --    0.10991   0.12116   0.14246   0.17144   0.18577
  Beta virt. eigenvalues --    0.19036   0.19781   0.22936   0.23235   0.24044

 Mulliken charges and spin densities:
               1          2
     1  O   -0.147345   0.951739
     2  P    3.867074  -0.010529
     3  O   -1.280671  -0.003562
     4  O   -1.265115  -0.001784
     5  H    0.437004  -0.006216
     6  O   -1.251381   0.002494
     7  H    0.375841   0.000114
     8  O   -0.735408   0.067745
 Sum of Mulliken charges =  -0.00000   1.00000

 Dipole moment (field-independent basis, Debye):
    X=             -0.9896    Y=              0.9994    Z=              2.4368  Tot=              2.8136
                          Isotropic Fermi Contact Couplings
        Atom                 a.u.       MegaHertz       Gauss      10(-4) cm-1
     1  O(17)              0.26705    -161.88624     -57.76504     -53.99944
     2  P(31)             -0.01113     -20.15461      -7.19167      -6.72285
     3  O(17)             -0.00074       0.45098       0.16092       0.15043
     4  O(17)             -0.00299       1.81222       0.64664       0.60449
     5  H(1)               0.00045       2.02417       0.72227       0.67519
     6  O(17)             -0.00001       0.00310       0.00110       0.00103
     7  H(1)              -0.00004      -0.16697      -0.05958      -0.05569
     8  O(17)              0.07995     -48.46511     -17.29356     -16.16622

 Normal termination of Gaussian 16 at Tue Apr  8 23:18:02 2025.
