 Gaussian 16, Revision C.01,

 ----------------------------------------------------------------------
 #t hf aug-cc-pvdz symm=none int=(grid=ultrafine) guess=(read,tcheck) s
 table=(opt,rrhf)
 ----------------------------------------------------------------------
 -----
 title
 -----
 Symbolic Z-matrix:
 Charge =  0 Multiplicity = 1

 SCF Done:  E(RHF) =  -694.320042955     A.U. after   12 cycles
 Normal termination of Gaussian 16 at Tue Apr  8 22:48:14 2025.
 Gaussian 16:  ES64L-G16RevC.01  3-Jul-2019

 ----------------------------------------------------------------------
 #t hf aug-cc-pvdz iop(5/13=1,5/36=2,99/5=2) pseudo=read geom=check gue
 ss=(read,tcheck) scf=(maxcycle=1)
 ----------------------------------------------------------------------
 -----
 title
 -----
 Structure from the checkpoint file:  "BDE49_expt_1661_mol1.chk"
 Charge =  0 Multiplicity = 1

                         Standard orientation:
 ---------------------------------------------------------------------
 Center     Atomic      Atomic             Coordinates (Angstroms)
 Number     Number       Type             X           Y           Z
 ---------------------------------------------------------------------
      1          6           0       -2.230033    0.824351    0.311319
      2          6           0       -0.831143    1.038469   -0.245360
      3          1           0       -2.934031    1.560270   -0.072817
      4          1           0       -2.244705    0.845920    1.400802
      5         17           0       -2.928595   -0.796584   -0.155282
      6          6           0        0.243047    0.117184    0.340857
      7          1           0       -0.569078    2.084513   -0.035293
      8          1           0       -0.860262    0.938954   -1.335393
      9          6           0        1.640720    0.390925   -0.225442
     10          1           0       -0.030706   -0.925209    0.148657
     11          1           0        0.262727    0.235553    1.431983
     12          6           0        2.724758   -0.523501    0.356490
     13          1           0        1.913376    1.437853   -0.037948
     14          1           0        1.618139    0.273524   -1.316515
     15          6           0        4.118358   -0.248438   -0.215383
     16          1           0        2.452152   -1.568787    0.168730
     17          1           0        2.747721   -0.406785    1.446730
     18          1           0        4.136005   -0.391748   -1.300273
     19          1           0        4.867021   -0.916126    0.219369
     20          1           0        4.433510    0.780057   -0.013129
 ---------------------------------------------------------------------

 SCF Done:  E(RHF) =  -694.661081886     A.U. after    2 cycles

 The electronic state is 1-A.
 Alpha  occ. eigenvalues -- -105.54780 -11.30387 -11.24565 -11.23118 -11.22909
 Alpha  occ. eigenvalues --  -11.22854 -11.22375 -10.59580  -7.76513  -7.76160
 Alpha  occ. eigenvalues --   -7.76150  -1.12063  -1.07558  -1.01796  -0.95094
 Alpha  occ. eigenvalues --   -0.87291  -0.80754  -0.79614  -0.66669  -0.64355
 Alpha  occ. eigenvalues --   -0.62486  -0.60275  -0.57278  -0.56587  -0.55205
 Alpha  occ. eigenvalues --   -0.52029  -0.50507  -0.48612  -0.47756  -0.47262
 Alpha  occ. eigenvalues --   -0.46995  -0.43709  -0.43461
 Alpha virt. eigenvalues --    0.03131   0.03446   0.03647   0.04373   0.05247
 Alpha virt. eigenvalues --    0.05731   0.06301   0.06873   0.07946   0.08663
 Alpha virt. eigenvalues --    0.09444   0.09673   0.10665   0.11275   0.12594

 Mulliken charges:
               1
     1  C   -0.407023
     2  C   -0.223049
     3  H    0.195132
     4  H    0.230389
     5  Cl  -0.094964
     6  C   -0.227968
     7  H    0.171760
     8  H    0.114972
     9  C   -0.275154
    10  H    0.143830
    11  H    0.112924
    12  C   -0.213056
    13  H    0.099843
    14  H    0.106348
    15  C   -0.413683
    16  H    0.120247
    17  H    0.117568
    18  H    0.163427
    19  H    0.117172
    20  H    0.161287
 Sum of Mulliken charges =  -0.00000

 Dipole moment (field-independent basis, Debye):
    X=              1.2954    Y=              1.9759    Z=              0.5293  Tot=              2.4213

 Test job not archived.
 1\1\GINC-SE365\SP\RHF\Aug-CC-pVDZ\C6H13Cl1\OHZDE\08-Apr-2025\0\\#t hf
 aug-cc-pvdz iop(5/13=1,5/36=2,99/5=2) pseudo=read geom=check guess=(re
 ad,tcheck) scf=(maxcycle=1)\\title\\0,1\C,0,-2.230033,0.824351,0.31131
 9\C,0,-0.831143,1.038469,-0.24536\H,0,-2.934031,1.56027,-0.072817\H,0,
 -2.244705,0.84592,1.400802\Cl,0,-2.928595,-0.796584,-0.155282\C,0,0.24
 3047,0.117184,0.340857\H,0,-0.569078,2.084513,-0.035293\H,0,-0.860262,
 0.938954,-1.335393\C,0,1.64072,0.390925,-0.225442\H,0,-0.030706,-0.925
 209,0.148657\H,0,0.262727,0.235553,1.431983\C,0,2.724758,-0.523501,0.3

 Normal termination of Gaussian 16 at Tue Apr  8 22:48:21 2025.
