 Gaussian 16, Revision C.01,

 ----------------------------------------------------------------------
 #t hf aug-cc-pvdz symm=none int=(grid=ultrafine) guess=(read,tcheck) s
 table=opt
 ----------------------------------------------------------------------
 -----
 title
 -----
 Symbolic Z-matrix:
 Charge =  0 Multiplicity = 2

 SCF Done:  E(UHF) =  -583.675623475     A.U. after   14 cycles

 1\1\GINC-SE364\Stability\UHF\Aug-CC-pVDZ\B1Cl1F1\OHZDE\08-Apr-2025\0\\
 #t hf aug-cc-pvdz symm=none int=(grid=ultrafine) guess=(read,tcheck) s
 table=opt\\title\\0,2\B,0,0.,0.822376,0.\F,0,1.286013,1.045097,0.\Cl,0
 ,-0.68083,-0.795162,0.\\Version=ES64L-G16RevC.01\HF=-583.6756235\S2=0.
 753922\S2-1=0.\S2A=0.750009\RMSD=4.882e-09\Dipole=-0.1024391,0.1116072
 ,0.\Quadrupole=-1.1936166,0.0177909,1.1758257,-0.268604,0.,0.\PG=Unkno
 wn\\@
 The archive entry for this job was punched.

 Normal termination of Gaussian 16 at Tue Apr  8 23:51:16 2025.
 Gaussian 16:  ES64L-G16RevC.01  3-Jul-2019

 ----------------------------------------------------------------------
 #t hf aug-cc-pvdz iop(5/13=1,5/36=2,99/5=2) pseudo=read geom=check gue
 ss=(read,tcheck) scf=(maxcycle=1)
 ----------------------------------------------------------------------
 -----
 title
 -----
 Structure from the checkpoint file:  "BDE49_nonexpt_18_mol2.chk"
 Charge =  0 Multiplicity = 2

                         Standard orientation:
 ---------------------------------------------------------------------
 Center     Atomic      Atomic             Coordinates (Angstroms)
 Number     Number       Type             X           Y           Z
 ---------------------------------------------------------------------
      1          5           0        0.000000    0.822376    0.000000
      2          9           0        1.286013    1.045097    0.000000
      3         17           0       -0.680830   -0.795162    0.000000
 ---------------------------------------------------------------------

 SCF Done:  E(UHF) =  -583.858947124     A.U. after    2 cycles

 The electronic state is 2-A'.
 Alpha  occ. eigenvalues -- -105.59152 -26.51220 -10.64196  -7.81237  -7.80733
 Alpha  occ. eigenvalues --   -7.80714  -7.75886  -1.64804  -1.10133  -0.81234
 Alpha  occ. eigenvalues --   -0.72138  -0.69510  -0.64914  -0.51525  -0.51070
 Alpha  occ. eigenvalues --   -0.39419
 Alpha virt. eigenvalues --    0.04320   0.05318   0.05655   0.06092   0.09089
 Alpha virt. eigenvalues --    0.13122   0.16060   0.16409   0.22073   0.22753
 Alpha virt. eigenvalues --    0.24866   0.27172   0.27443   0.28935   0.30028

  Beta  occ. eigenvalues -- -105.59012 -26.50910 -10.64033  -7.80818  -7.80683
  Beta  occ. eigenvalues --   -7.80510  -7.73652  -1.63895  -1.08784  -0.79664
  Beta  occ. eigenvalues --   -0.69730  -0.69445  -0.61010  -0.51018  -0.50103
  Beta virt. eigenvalues --    0.02853   0.04952   0.05419   0.05906   0.10955
  Beta virt. eigenvalues --    0.12787   0.13360   0.16226   0.16700   0.23258
  Beta virt. eigenvalues --    0.23765   0.25497   0.27518   0.29389   0.29642

 Mulliken charges and spin densities:
               1          2
     1  B    0.575769   1.008764
     2  F   -0.350229  -0.059562
     3  Cl  -0.225539   0.050798
 Sum of Mulliken charges =   0.00000   1.00000

 Dipole moment (field-independent basis, Debye):
    X=             -0.1023    Y=              0.2870    Z=              0.0000  Tot=              0.3047
                          Isotropic Fermi Contact Couplings
        Atom                 a.u.       MegaHertz       Gauss      10(-4) cm-1
     1  B(11)              0.44783     642.35721     229.20903     214.26730
     2  F(19)              0.08422     354.34933     126.44065     118.19821
     3  Cl(35)             0.13501      59.19664      21.12283      19.74587
 --------------------------------------------------------
       Center         ----  Spin Dipole Couplings  ----
                      3XX-RR        3YY-RR        3ZZ-RR
 --------------------------------------------------------
     1   Atom        0.036118      0.129457     -0.165575

 Normal termination of Gaussian 16 at Tue Apr  8 23:51:17 2025.
