 Gaussian 16, Revision C.01,

 ----------------------------------------------------------------------
 #t hf aug-cc-pvdz symm=none int=(grid=ultrafine) guess=(read,tcheck) s
 table=(opt,rrhf)
 ----------------------------------------------------------------------
 -----
 title
 -----
 Symbolic Z-matrix:
 Charge =  0 Multiplicity = 1

 SCF Done:  E(RHF) =  -1438.72724594     A.U. after   15 cycles
 Normal termination of Gaussian 16 at Tue Apr  8 23:47:08 2025.
 Gaussian 16:  ES64L-G16RevC.01  3-Jul-2019

 ----------------------------------------------------------------------
 #t hf aug-cc-pvdz iop(5/13=1,5/36=2,99/5=2) pseudo=read geom=check gue
 ss=(read,tcheck) scf=(maxcycle=1)
 ----------------------------------------------------------------------
 -----
 title
 -----
 Structure from the checkpoint file:  "BDE49_nonexpt_1772_mol1.chk"
 Charge =  0 Multiplicity = 1

                         Standard orientation:
 ---------------------------------------------------------------------
 Center     Atomic      Atomic             Coordinates (Angstroms)
 Number     Number       Type             X           Y           Z
 ---------------------------------------------------------------------
      1          6           0        0.152343    1.741329    0.087782
      2          6           0       -1.130877    2.148993   -0.264813
      3          6           0       -2.171994    1.225692   -0.323719
      4          6           0       -1.908775   -0.107230   -0.024555
      5          6           0       -0.632241   -0.530420    0.328112
      6          6           0        0.419220    0.396329    0.386520
      7          1           0        0.948912    2.476357    0.131202
      8          1           0       -1.328106    3.189858   -0.494137
      9         14           0        2.137547   -0.158708    0.853710
     10         17           0       -3.216333   -1.277767   -0.090290
     11          1           0       -3.174185    1.531687   -0.594838
     12          1           0       -0.467316   -1.576805    0.556112
     13         17           0        3.263196   -0.615287   -0.845284
     14          1           0        2.075866   -1.388399    1.665660
     15          1           0        2.856445    0.922965    1.552859
 ---------------------------------------------------------------------

 SCF Done:  E(RHF) =  -1439.14754939     A.U. after    2 cycles

 The electronic state is 1-A.
 Alpha  occ. eigenvalues -- -105.57991-105.55696 -69.58620 -11.32219 -11.27564
 Alpha  occ. eigenvalues --  -11.27399 -11.27116 -11.26845 -11.25864 -10.62785
 Alpha  occ. eigenvalues --  -10.60685  -7.79751  -7.79353  -7.79335  -7.77573
 Alpha  occ. eigenvalues --   -7.77268  -7.77266  -6.25280  -4.00705  -4.00575
 Alpha  occ. eigenvalues --   -4.00565  -1.19556  -1.10662  -1.05735  -1.04094
 Alpha  occ. eigenvalues --   -0.99977  -0.86919  -0.84253  -0.75518  -0.71496
 Alpha  occ. eigenvalues --   -0.68120  -0.64986  -0.61366  -0.59549  -0.56734
 Alpha  occ. eigenvalues --   -0.54242  -0.53733  -0.53173  -0.51421  -0.48624
 Alpha  occ. eigenvalues --   -0.47533  -0.45691  -0.45428  -0.37419  -0.35823
 Alpha virt. eigenvalues --    0.02978   0.03636   0.04095   0.04730   0.05291
 Alpha virt. eigenvalues --    0.05831   0.06590   0.07759   0.08285   0.08797
 Alpha virt. eigenvalues --    0.09596   0.09840   0.10722   0.11786   0.12714

 Mulliken charges:
               1
     1  C    0.276416
     2  C    0.666338
     3  C    0.269063
     4  C    0.309028
     5  C    0.443634
     6  C   -0.925202
     7  H   -0.311298
     8  H   -0.209600
     9  Si   1.071132
    10  Cl  -0.332051
    11  H   -0.159429
    12  H   -0.220819
    13  Cl  -0.601823
    14  H   -0.145313
    15  H   -0.130075
 Sum of Mulliken charges =   0.00000

 Dipole moment (field-independent basis, Debye):
    X=             -0.5251    Y=              2.0351    Z=              1.1491  Tot=              2.3953

 Test job not archived.
 1\1\GINC-SE339\SP\RHF\Aug-CC-pVDZ\C6H6Cl2Si1\OHZDE\08-Apr-2025\0\\#t h
 f aug-cc-pvdz iop(5/13=1,5/36=2,99/5=2) pseudo=read geom=check guess=(
 read,tcheck) scf=(maxcycle=1)\\title\\0,1\C,0,0.152343,1.741329,0.0877
 82\C,0,-1.130877,2.148993,-0.264813\C,0,-2.171994,1.225692,-0.323719\C
 ,0,-1.908775,-0.10723,-0.024555\C,0,-0.632241,-0.53042,0.328112\C,0,0.
 41922,0.396329,0.38652\H,0,0.948912,2.476357,0.131202\H,0,-1.328106,3.
 189858,-0.494137\Si,0,2.137547,-0.158708,0.85371\Cl,0,-3.216333,-1.277
 767,-0.09029\H,0,-3.174185,1.531687,-0.594838\H,0,-0.467316,-1.576805,

 Normal termination of Gaussian 16 at Tue Apr  8 23:47:16 2025.
