 Gaussian 16, Revision C.01,

 ----------------------------------------------------------------------
 #t hf aug-cc-pvdz symm=none int=(grid=ultrafine) guess=(read,tcheck) s
 table=(opt,rrhf)
 ----------------------------------------------------------------------
 -----
 title
 -----
 Symbolic Z-matrix:
 Charge =  0 Multiplicity = 1

 SCF Done:  E(RHF) =  -549.206419963     A.U. after   13 cycles
 Normal termination of Gaussian 16 at Wed Apr  9 00:43:57 2025.
 Gaussian 16:  ES64L-G16RevC.01  3-Jul-2019

 ----------------------------------------------------------------------
 #t hf aug-cc-pvdz iop(5/13=1,5/36=2,99/5=2) pseudo=read geom=check gue
 ss=(read,tcheck) scf=(maxcycle=1)
 ----------------------------------------------------------------------
 -----
 title
 -----
 Structure from the checkpoint file:  "BDE49_nonexpt_733_mol1.chk"
 Charge =  0 Multiplicity = 1

                         Standard orientation:
 ---------------------------------------------------------------------
 Center     Atomic      Atomic             Coordinates (Angstroms)
 Number     Number       Type             X           Y           Z
 ---------------------------------------------------------------------
      1          6           0        1.841979    1.587617    0.017381
      2          5           0        1.638941    0.025068    0.006259
      3          1           0        1.694645    1.941420    1.048111
      4          1           0        1.152660    2.155995   -0.609031
      5          1           0        2.866337    1.866120   -0.253105
      6          6           0        2.845520   -0.922572    0.364736
      7          1           0        3.630272   -0.808852   -0.395773
      8          1           0        2.609324   -1.985631    0.444594
      9          1           0        3.306840   -0.602560    1.307910
     10         15           0       -0.000001   -0.751731   -0.510852
     11          5           0       -1.638900    0.025068    0.006401
     12          6           0       -2.845525   -0.922573    0.364722
     13          1           0       -3.630219   -0.808799   -0.395839
     14          1           0       -3.306910   -0.602606    1.307878
     15          1           0       -2.609352   -1.985640    0.444537
     16          6           0       -1.841989    1.587610    0.017359
     17          1           0       -1.694682    1.941514    1.048058
     18          1           0       -2.866351    1.866057   -0.253170
     19          1           0       -1.152677    2.155950   -0.609096
     20          1           0        0.000014   -2.088181   -0.070785
 ---------------------------------------------------------------------

 SCF Done:  E(RHF) =  -549.485289685     A.U. after    2 cycles

 The electronic state is 1-A.
 Alpha  occ. eigenvalues --  -84.22847 -11.20687 -11.20682 -11.20632 -11.20629
 Alpha  occ. eigenvalues --   -7.59840  -7.59786  -6.70704  -4.23566  -4.23502
 Alpha  occ. eigenvalues --   -4.22528  -0.98645  -0.97632  -0.93131  -0.92495
 Alpha  occ. eigenvalues --   -0.84650  -0.63839  -0.61162  -0.58002  -0.57770
 Alpha  occ. eigenvalues --   -0.56897  -0.56355  -0.54207  -0.53921  -0.53554
 Alpha  occ. eigenvalues --   -0.53379  -0.48574  -0.47048  -0.44497  -0.39644
 Alpha  occ. eigenvalues --   -0.30707
 Alpha virt. eigenvalues --    0.03321   0.03476   0.03826   0.04131   0.05523
 Alpha virt. eigenvalues --    0.05626   0.05706   0.07141   0.07349   0.07751
 Alpha virt. eigenvalues --    0.08108   0.08234   0.09162   0.09220   0.10141

 Mulliken charges:
               1
     1  C   -0.418702
     2  B    1.095540
     3  H    0.142057
     4  H   -0.042045
     5  H   -0.007446
     6  C   -0.446428
     7  H    0.125052
     8  H   -0.095858
     9  H    0.081711
    10  P   -0.885179
    11  B    1.095540
    12  C   -0.446435
    13  H    0.125026
    14  H    0.081685
    15  H   -0.095863
    16  C   -0.418758
    17  H    0.142079
    18  H   -0.007439
    19  H   -0.042027
    20  H    0.017490
 Sum of Mulliken charges =  -0.00000

 Dipole moment (field-independent basis, Debye):
    X=              0.0001    Y=              0.3374    Z=              0.5990  Tot=              0.6875

 Test job not archived.
 1\1\GINC-SE404\SP\RHF\Aug-CC-pVDZ\C4H13B2P1\OHZDE\09-Apr-2025\0\\#t hf
  aug-cc-pvdz iop(5/13=1,5/36=2,99/5=2) pseudo=read geom=check guess=(r
 ead,tcheck) scf=(maxcycle=1)\\title\\0,1\C,0,1.841979,1.587617,0.01738
 1\B,0,1.638941,0.025068,0.006259\H,0,1.694645,1.94142,1.048111\H,0,1.1
 5266,2.155995,-0.609031\H,0,2.866337,1.86612,-0.253105\C,0,2.84552,-0.
 922572,0.364736\H,0,3.630272,-0.808852,-0.395773\H,0,2.609324,-1.98563
 1,0.444594\H,0,3.30684,-0.60256,1.30791\P,0,-0.000001,-0.751731,-0.510
 852\B,0,-1.6389,0.025068,0.006401\C,0,-2.845525,-0.922573,0.364722\H,0

 Normal termination of Gaussian 16 at Wed Apr  9 00:44:05 2025.
