 Gaussian 16, Revision C.01,

 ----------------------------------------------------------------------
 #t hf aug-cc-pvdz symm=none int=(grid=ultrafine) guess=(read,tcheck) s
 table=(opt,rrhf)
 ----------------------------------------------------------------------
 -----
 title
 -----
 Symbolic Z-matrix:
 Charge =  0 Multiplicity = 1

 SCF Done:  E(RHF) =  -419.903222900     A.U. after   13 cycles
 Normal termination of Gaussian 16 at Tue Apr  8 22:52:38 2025.
 Gaussian 16:  ES64L-G16RevC.01  3-Jul-2019

 ----------------------------------------------------------------------
 #t hf aug-cc-pvdz iop(5/13=1,5/36=2,99/5=2) pseudo=read geom=check gue
 ss=(read,tcheck) scf=(maxcycle=1)
 ----------------------------------------------------------------------
 -----
 title
 -----
 Structure from the checkpoint file:  "BDE49_expt_1814_mol1.chk"
 Charge =  0 Multiplicity = 1

                         Standard orientation:
 ---------------------------------------------------------------------
 Center     Atomic      Atomic             Coordinates (Angstroms)
 Number     Number       Type             X           Y           Z
 ---------------------------------------------------------------------
      1         14           0        0.532398   -0.851646    0.000000
      2          7           0        0.000000    0.943057    0.000000
      3          8           0       -1.196282    1.136488    0.000000
      4          1           0       -0.620042   -1.779045    0.000000
      5          1           0        1.368363   -0.995603    1.211175
      6          1           0        1.368363   -0.995603   -1.211175
 ---------------------------------------------------------------------

 SCF Done:  E(RHF) =  -420.057387311     A.U. after    2 cycles

 The electronic state is 1-A'.
 Alpha  occ. eigenvalues --  -69.57397 -20.62796 -15.62040  -6.24363  -3.99741
 Alpha  occ. eigenvalues --   -3.99677  -3.99669  -1.58505  -0.99020  -0.78471
 Alpha  occ. eigenvalues --   -0.68167  -0.66432  -0.60790  -0.51970  -0.51653
 Alpha  occ. eigenvalues --   -0.39411
 Alpha virt. eigenvalues --    0.03705   0.04592   0.05110   0.05629   0.05830
 Alpha virt. eigenvalues --    0.08135   0.08204   0.12042   0.14710   0.15439
 Alpha virt. eigenvalues --    0.16892   0.16916   0.19207   0.19895   0.23874

 Mulliken charges:
               1
     1  Si   0.878845
     2  N    0.506447
     3  O   -0.881676
     4  H   -0.134653
     5  H   -0.184482
     6  H   -0.184482
 Sum of Mulliken charges =  -0.00000

 Dipole moment (field-independent basis, Debye):
    X=              0.8108    Y=             -2.4335    Z=              0.0000  Tot=              2.5650

 Test job not archived.
 1\1\GINC-SE339\SP\RHF\Aug-CC-pVDZ\H3N1O1Si1\OHZDE\08-Apr-2025\0\\#t hf
  aug-cc-pvdz iop(5/13=1,5/36=2,99/5=2) pseudo=read geom=check guess=(r
 ead,tcheck) scf=(maxcycle=1)\\title\\0,1\Si,0,0.532398,-0.851646,0.\N,
 0,0.,0.943057,0.\O,0,-1.196282,1.136488,0.\H,0,-0.620042,-1.779045,0.\
 H,0,1.368363,-0.995603,1.211175\H,0,1.368363,-0.995603,-1.211175\\Vers
 ion=ES64L-G16RevC.01\State=1-A'\HF=-420.0573873\RMSD=1.098e-02\Dipole=
 0.3190099,-0.9574144,0.\Quadrupole=-0.2938817,-0.8265185,1.1204003,-0.
 1643564,0.,0.\PG=CS [SG(H1N1O1Si1),X(H2)]\\@

 Normal termination of Gaussian 16 at Tue Apr  8 22:52:41 2025.
