 Gaussian 16, Revision C.01,

 ----------------------------------------------------------------------
 #t hf aug-cc-pvdz symm=none int=(grid=ultrafine) guess=(read,tcheck) s
 table=opt
 ----------------------------------------------------------------------
 -----
 title
 -----
 Symbolic Z-matrix:
 Charge =  0 Multiplicity = 2

 SCF Done:  E(UHF) =  -256.629002936     A.U. after   19 cycles
 Normal termination of Gaussian 16 at Wed Apr  9 00:36:58 2025.
 Gaussian 16:  ES64L-G16RevC.01  3-Jul-2019

 ----------------------------------------------------------------------
 #t hf aug-cc-pvdz iop(5/13=1,5/36=2,99/5=2) pseudo=read geom=check gue
 ss=(read,tcheck) scf=(maxcycle=1)
 ----------------------------------------------------------------------
 -----
 title
 -----
 Structure from the checkpoint file:  "BDE49_nonexpt_542_mol2.chk"
 Charge =  0 Multiplicity = 2

                         Standard orientation:
 ---------------------------------------------------------------------
 Center     Atomic      Atomic             Coordinates (Angstroms)
 Number     Number       Type             X           Y           Z
 ---------------------------------------------------------------------
      1          9           0       -1.766935   -0.702644   -0.281886
      2          6           0        0.129632    0.753306   -0.234636
      3          6           0       -1.099973    0.299488    0.464319
      4          1           0       -1.806335    1.124259    0.584336
      5          1           0       -0.857720   -0.135981    1.436349
      6          7           0        1.288495    0.124475   -0.075065
      7          5           0        2.381092   -0.472401    0.084160
      8          1           0        3.397403   -1.021001    0.233232
      9          1           0        0.066179    1.530432   -0.990391
 ---------------------------------------------------------------------

 SCF Done:  E(UHF) =  -256.876169256     A.U. after    2 cycles

 The electronic state is 2-A.
 Alpha  occ. eigenvalues --  -26.43651 -15.49995 -11.32247 -11.29001  -7.62458
 Alpha  occ. eigenvalues --   -1.55344  -1.20687  -1.01793  -0.89271  -0.74277
 Alpha  occ. eigenvalues --   -0.69094  -0.67511  -0.64844  -0.63462  -0.55513
 Alpha  occ. eigenvalues --   -0.54514  -0.51821  -0.44476  -0.32391
 Alpha virt. eigenvalues --    0.03418   0.04254   0.04664   0.05150   0.05434
 Alpha virt. eigenvalues --    0.05681   0.09127   0.10484   0.11348   0.12464
 Alpha virt. eigenvalues --    0.13398   0.14574   0.15202   0.15521   0.15759

  Beta  occ. eigenvalues --  -26.43329 -15.51274 -11.32525 -11.26742  -7.61681
  Beta  occ. eigenvalues --   -1.54451  -1.21322  -0.99457  -0.87350  -0.72807
  Beta  occ. eigenvalues --   -0.68634  -0.65106  -0.64309  -0.62883  -0.55320
  Beta  occ. eigenvalues --   -0.53121  -0.51644  -0.45776
  Beta virt. eigenvalues --    0.03464   0.04288   0.04576   0.04922   0.05468
  Beta virt. eigenvalues --    0.05712   0.06685   0.09320   0.11334   0.11596
  Beta virt. eigenvalues --    0.13679   0.13829   0.14779   0.15819   0.15992

 Mulliken charges and spin densities:
               1          2
     1  F   -0.688539   0.023157
     2  C   -0.616741   1.158709
     3  C    0.491999  -0.188348
     4  H    0.122914   0.007580
     5  H    0.072892   0.004029
     6  N    0.930547  -0.351343
     7  B   -0.390826   0.456481
     8  H    0.125915  -0.023202
     9  H   -0.048162  -0.087064
 Sum of Mulliken charges =  -0.00000   1.00000

 Dipole moment (field-independent basis, Debye):
    X=              1.8874    Y=              0.9381    Z=              1.0010  Tot=              2.3333
                          Isotropic Fermi Contact Couplings
        Atom                 a.u.       MegaHertz       Gauss      10(-4) cm-1
     1  F(19)              0.06276     264.07518      94.22859      88.08600
     2  C(13)              0.19348     217.50906      77.61264      72.55321
     3  C(13)             -0.04093     -46.01453     -16.41913     -15.34880
     4  H(1)               0.00279      12.45020       4.44254       4.15294
     5  H(1)               0.00302      13.49711       4.81611       4.50215
     6  N(14)             -0.20329     -65.68268     -23.43721     -21.90939
     7  B(11)              0.05585      80.11222      28.58603      26.72256
     8  H(1)              -0.01306     -58.36801     -20.82716     -19.46947

 Normal termination of Gaussian 16 at Wed Apr  9 00:37:01 2025.
