 Gaussian 16, Revision C.01,

 ----------------------------------------------------------------------
 #t hf aug-cc-pvdz symm=none int=(grid=ultrafine) guess=(read,tcheck) s
 table=(opt,rrhf)
 ----------------------------------------------------------------------
 -----
 title
 -----
 Symbolic Z-matrix:
 Charge =  0 Multiplicity = 1

 SCF Done:  E(RHF) =  -621.429957263     A.U. after   15 cycles
 Normal termination of Gaussian 16 at Tue Apr  8 23:09:10 2025.
 Gaussian 16:  ES64L-G16RevC.01  3-Jul-2019

 ----------------------------------------------------------------------
 #t hf aug-cc-pvdz iop(5/13=1,5/36=2,99/5=2) pseudo=read geom=check gue
 ss=(read,tcheck) scf=(maxcycle=1)
 ----------------------------------------------------------------------
 -----
 title
 -----
 Structure from the checkpoint file:  "BDE49_expt_462_mol1.chk"
 Charge =  0 Multiplicity = 1

                         Standard orientation:
 ---------------------------------------------------------------------
 Center     Atomic      Atomic             Coordinates (Angstroms)
 Number     Number       Type             X           Y           Z
 ---------------------------------------------------------------------
      1          6           0        2.829710   -0.281259    0.009147
      2          6           0        2.154302    0.929134    0.011768
      3          6           0        0.749329    0.981478   -0.003566
      4          6           0        2.129759   -1.487473   -0.011004
      5          6           0        0.741957   -1.456193   -0.023287
      6          6           0        0.046259   -0.245899   -0.018165
      7          1           0        3.914072   -0.282205    0.019270
      8          1           0        2.710591    1.860793    0.027020
      9          7           0        0.105271    2.204338    0.053511
     10          1           0        0.667365    3.005807   -0.186371
     11          1           0        0.177709   -2.379377   -0.038193
     12          1           0       -0.835906    2.252221   -0.303389
     13          1           0        2.655509   -2.433805   -0.016535
     14          6           0       -1.451233   -0.256129    0.008399
     15          9           0       -1.971190   -1.488196   -0.143406
     16          9           0       -1.954688    0.244454    1.162927
     17          9           0       -1.988204    0.515326   -0.987980
 ---------------------------------------------------------------------

 SCF Done:  E(RHF) =  -622.030321211     A.U. after    2 cycles

 The electronic state is 1-A.
 Alpha  occ. eigenvalues --  -26.50450 -26.49962 -26.49605 -15.52353 -11.51991
 Alpha  occ. eigenvalues --  -11.31407 -11.26692 -11.26456 -11.26238 -11.24848
 Alpha  occ. eigenvalues --  -11.24296  -1.70565  -1.60813  -1.59993  -1.24721
 Alpha  occ. eigenvalues --   -1.15499  -1.06722  -1.01675  -0.95098  -0.87088
 Alpha  occ. eigenvalues --   -0.86162  -0.80050  -0.79862  -0.79162  -0.74048
 Alpha  occ. eigenvalues --   -0.73219  -0.68558  -0.68042  -0.67099  -0.63725
 Alpha  occ. eigenvalues --   -0.63326  -0.62782  -0.62211  -0.61335  -0.59042
 Alpha  occ. eigenvalues --   -0.57240  -0.54007  -0.52355  -0.48961  -0.37207
 Alpha  occ. eigenvalues --   -0.32841
 Alpha virt. eigenvalues --    0.02930   0.03496   0.04086   0.05307   0.06151
 Alpha virt. eigenvalues --    0.08223   0.08558   0.09092   0.09493   0.10522
 Alpha virt. eigenvalues --    0.11258   0.12371   0.12956   0.13427   0.13948

 Mulliken charges:
               1
     1  C   -0.334225
     2  C    1.084581
     3  C   -2.731601
     4  C    0.374482
     5  C   -0.065251
     6  C    1.727880
     7  H   -0.223607
     8  H   -0.316533
     9  N    0.915536
    10  H    0.011140
    11  H   -0.234183
    12  H    0.028572
    13  H   -0.225695
    14  C    2.487240
    15  F   -0.871272
    16  F   -0.795337
    17  F   -0.831724
 Sum of Mulliken charges =   0.00000

 Dipole moment (field-independent basis, Debye):
    X=              2.5910    Y=              0.9850    Z=             -0.8409  Tot=              2.8966

 Test job not archived.
 1\1\GINC-SE163\SP\RHF\Aug-CC-pVDZ\C7H6F3N1\OHZDE\08-Apr-2025\0\\#t hf
 aug-cc-pvdz iop(5/13=1,5/36=2,99/5=2) pseudo=read geom=check guess=(re
 ad,tcheck) scf=(maxcycle=1)\\title\\0,1\C,0,2.82971,-0.281259,0.009147
 \C,0,2.154302,0.929134,0.011768\C,0,0.749329,0.981478,-0.003566\C,0,2.
 129759,-1.487473,-0.011004\C,0,0.741957,-1.456193,-0.023287\C,0,0.0462
 59,-0.245899,-0.018165\H,0,3.914072,-0.282205,0.01927\H,0,2.710591,1.8
 60793,0.02702\N,0,0.105271,2.204338,0.053511\H,0,0.667365,3.005807,-0.
 186371\H,0,0.177709,-2.379377,-0.038193\H,0,-0.835906,2.252221,-0.3033

 Normal termination of Gaussian 16 at Tue Apr  8 23:09:20 2025.
