 Gaussian 16, Revision C.01,

 ----------------------------------------------------------------------
 #t hf aug-cc-pvdz symm=none int=(grid=ultrafine) guess=(read,tcheck) s
 table=(opt,rrhf)
 ----------------------------------------------------------------------
 -----
 title
 -----
 Symbolic Z-matrix:
 Charge =  0 Multiplicity = 1

 SCF Done:  E(RHF) =  -741.011597639     A.U. after   16 cycles
 Normal termination of Gaussian 16 at Tue Apr  8 23:15:45 2025.
 Gaussian 16:  ES64L-G16RevC.01  3-Jul-2019

 ----------------------------------------------------------------------
 #t hf aug-cc-pvdz iop(5/13=1,5/36=2,99/5=2) pseudo=read geom=check gue
 ss=(read,tcheck) scf=(maxcycle=1)
 ----------------------------------------------------------------------
 -----
 title
 -----
 Structure from the checkpoint file:  "BDE49_expt_847_mol1.chk"
 Charge =  0 Multiplicity = 1

                         Standard orientation:
 ---------------------------------------------------------------------
 Center     Atomic      Atomic             Coordinates (Angstroms)
 Number     Number       Type             X           Y           Z
 ---------------------------------------------------------------------
      1          6           0        1.041529    1.218096   -0.186870
      2          6           0        2.405380    0.962968   -0.255918
      3          6           0        2.884455   -0.332123   -0.060521
      4          6           0        1.994348   -1.370391    0.205536
      5          6           0        0.626084   -1.121659    0.258129
      6          6           0        0.138837    0.173615    0.053704
      7          1           0        0.653168    2.220076   -0.318571
      8          1           0        3.095970    1.773788   -0.457001
      9          1           0        2.365314   -2.373955    0.378190
     10          1           0       -0.052432   -1.931360    0.495259
     11          1           0        3.949181   -0.530275   -0.108412
     12          6           0       -1.308781    0.545280    0.133351
     13          8           0       -1.684999    1.655746    0.407816
     14         16           0       -2.588591   -0.698924   -0.215007
     15          1           0       -1.804849   -1.676171   -0.696337
 ---------------------------------------------------------------------

 SCF Done:  E(RHF) =  -741.414999973     A.U. after    2 cycles

 The electronic state is 1-A.
 Alpha  occ. eigenvalues --  -93.97641 -20.55393 -11.38675 -11.27439 -11.27359
 Alpha  occ. eigenvalues --  -11.26977 -11.26729 -11.26416 -11.26205  -8.25797
 Alpha  occ. eigenvalues --   -6.23624  -6.23475  -6.23260  -1.49677  -1.18211
 Alpha  occ. eigenvalues --   -1.07886  -1.04301  -1.03130  -0.89118  -0.85823
 Alpha  occ. eigenvalues --   -0.78808  -0.73584  -0.68314  -0.67439  -0.64644
 Alpha  occ. eigenvalues --   -0.62669  -0.62335  -0.58348  -0.54870  -0.52795
 Alpha  occ. eigenvalues --   -0.52498  -0.51748  -0.42401  -0.39695  -0.37000
 Alpha  occ. eigenvalues --   -0.36681
 Alpha virt. eigenvalues --    0.02771   0.03233   0.04003   0.04964   0.05330
 Alpha virt. eigenvalues --    0.06107   0.06705   0.08646   0.08674   0.10018
 Alpha virt. eigenvalues --    0.10417   0.11328   0.12513   0.13119   0.13555

 Mulliken charges:
               1
     1  C   -0.373352
     2  C    0.393308
     3  C   -0.104185
     4  C    0.153023
     5  C    0.246474
     6  C    1.591658
     7  H   -0.308161
     8  H   -0.207177
     9  H   -0.224514
    10  H   -0.236347
    11  H   -0.203740
    12  C    0.296416
    13  O   -1.357024
    14  S   -0.002851
    15  H    0.336471
 Sum of Mulliken charges =   0.00000

 Dipole moment (field-independent basis, Debye):
    X=              3.3939    Y=             -2.4854    Z=             -0.7529  Tot=              4.2734

 Test job not archived.
 1\1\GINC-SE132\SP\RHF\Aug-CC-pVDZ\C7H6O1S1\OHZDE\08-Apr-2025\0\\#t hf
 aug-cc-pvdz iop(5/13=1,5/36=2,99/5=2) pseudo=read geom=check guess=(re
 ad,tcheck) scf=(maxcycle=1)\\title\\0,1\C,0,1.041529,1.218096,-0.18687
 \C,0,2.40538,0.962968,-0.255918\C,0,2.884455,-0.332123,-0.060521\C,0,1
 .994348,-1.370391,0.205536\C,0,0.626084,-1.121659,0.258129\C,0,0.13883
 7,0.173615,0.053704\H,0,0.653168,2.220076,-0.318571\H,0,3.09597,1.7737
 88,-0.457001\H,0,2.365314,-2.373955,0.37819\H,0,-0.052432,-1.93136,0.4
 95259\H,0,3.949181,-0.530275,-0.108412\C,0,-1.308781,0.54528,0.133351\

 Normal termination of Gaussian 16 at Tue Apr  8 23:15:52 2025.
