 Gaussian 16, Revision C.01,

 ----------------------------------------------------------------------
 #t hf aug-cc-pvdz symm=none int=(grid=ultrafine) guess=(read,tcheck) s
 table=(opt,rrhf)
 ----------------------------------------------------------------------
 -----
 title
 -----
 Symbolic Z-matrix:
 Charge =  0 Multiplicity = 1

 SCF Done:  E(RHF) =  -582.297511675     A.U. after   13 cycles
 Normal termination of Gaussian 16 at Wed Apr  9 00:48:02 2025.
 Gaussian 16:  ES64L-G16RevC.01  3-Jul-2019

 ----------------------------------------------------------------------
 #t hf aug-cc-pvdz iop(5/13=1,5/36=2,99/5=2) pseudo=read geom=check gue
 ss=(read,tcheck) scf=(maxcycle=1)
 ----------------------------------------------------------------------
 -----
 title
 -----
 Structure from the checkpoint file:  "BDE49_nonexpt_846_mol1.chk"
 Charge =  0 Multiplicity = 1

                         Standard orientation:
 ---------------------------------------------------------------------
 Center     Atomic      Atomic             Coordinates (Angstroms)
 Number     Number       Type             X           Y           Z
 ---------------------------------------------------------------------
      1          5           0        1.756523    0.129023    0.017258
      2          8           0        2.917847   -0.478369   -0.387205
      3          8           0        1.784519    1.475764    0.214478
      4          6           0       -1.450357   -0.103450   -0.563916
      5          6           0       -2.211751    1.067072    0.036249
      6          6           0       -2.875662   -0.275104   -0.063591
      7          1           0       -2.536800    1.852406   -0.636068
      8          1           0       -1.916966    1.421333    1.017572
      9          1           0       -3.034928   -0.835811    0.850754
     10          1           0       -3.655914   -0.406793   -0.804438
     11          1           0        2.658142    1.850500    0.040323
     12          1           0        2.831236   -1.426814   -0.512083
     13         14           0       -0.000398   -0.857085    0.342600
     14          1           0       -0.329078   -0.856164    1.794517
     15          1           0        0.166274   -2.285942   -0.057849
     16          1           0       -1.351310   -0.068905   -1.646053
 ---------------------------------------------------------------------

 SCF Done:  E(RHF) =  -582.632882060     A.U. after    2 cycles

 The electronic state is 1-A.
 Alpha  occ. eigenvalues --  -69.50887 -20.56534 -20.55685 -11.23713 -11.23623
 Alpha  occ. eigenvalues --  -11.22440  -7.64031  -6.18126  -3.93491  -3.93477
 Alpha  occ. eigenvalues --   -3.93429  -1.48466  -1.44032  -1.13363  -0.83178
 Alpha  occ. eigenvalues --   -0.82167  -0.77711  -0.74292  -0.70818  -0.66296
 Alpha  occ. eigenvalues --   -0.62316  -0.59465  -0.57002  -0.55936  -0.52024
 Alpha  occ. eigenvalues --   -0.49347  -0.48688  -0.46288  -0.45231  -0.41555
 Alpha  occ. eigenvalues --   -0.39792
 Alpha virt. eigenvalues --    0.03294   0.03927   0.03961   0.04327   0.05617
 Alpha virt. eigenvalues --    0.05902   0.06509   0.06917   0.07414   0.08579
 Alpha virt. eigenvalues --    0.09511   0.09892   0.10419   0.10523   0.11991

 Mulliken charges:
               1
     1  B    1.609222
     2  O   -1.390873
     3  O   -1.271350
     4  C   -0.045649
     5  C    0.221892
     6  C    0.251700
     7  H   -0.098892
     8  H   -0.136372
     9  H   -0.124019
    10  H   -0.096410
    11  H    0.539778
    12  H    0.536418
    13  Si   0.543412
    14  H   -0.126007
    15  H   -0.163726
    16  H   -0.249124
 Sum of Mulliken charges =  -0.00000

 Dipole moment (field-independent basis, Debye):
    X=              0.4341    Y=             -0.5003    Z=             -0.8007  Tot=              1.0391

 Test job not archived.
 1\1\GINC-SE049\SP\RHF\Aug-CC-pVDZ\C3H9B1O2Si1\OHZDE\09-Apr-2025\0\\#t
 hf aug-cc-pvdz iop(5/13=1,5/36=2,99/5=2) pseudo=read geom=check guess=
 (read,tcheck) scf=(maxcycle=1)\\title\\0,1\B,0,1.756523,0.129023,0.017
 258\O,0,2.917847,-0.47837,-0.387205\O,0,1.784519,1.475764,0.214478\C,0
 ,-1.450357,-0.10345,-0.563916\C,0,-2.211751,1.067072,0.036249\C,0,-2.8
 75662,-0.275104,-0.063591\H,0,-2.5368,1.852406,-0.636068\H,0,-1.916966
 ,1.421333,1.017572\H,0,-3.034928,-0.835811,0.850754\H,0,-3.655914,-0.4
 06793,-0.804438\H,0,2.658142,1.8505,0.040323\H,0,2.831236,-1.426815,-0

 Normal termination of Gaussian 16 at Wed Apr  9 00:48:09 2025.
