 Gaussian 16, Revision C.01,

 ----------------------------------------------------------------------
 #t hf aug-cc-pvdz symm=none int=(grid=ultrafine) guess=(read,tcheck) s
 table=(opt,rrhf)
 ----------------------------------------------------------------------
 -----
 title
 -----
 Symbolic Z-matrix:
 Charge =  0 Multiplicity = 1

 SCF Done:  E(RHF) =  -777.043176182     A.U. after   14 cycles
 Normal termination of Gaussian 16 at Wed Apr  9 00:53:01 2025.
 Gaussian 16:  ES64L-G16RevC.01  3-Jul-2019

 ----------------------------------------------------------------------
 #t hf aug-cc-pvdz iop(5/13=1,5/36=2,99/5=2) pseudo=read geom=check gue
 ss=(read,tcheck) scf=(maxcycle=1)
 ----------------------------------------------------------------------
 -----
 title
 -----
 Structure from the checkpoint file:  "BDE49_nonexpt_972_mol1.chk"
 Charge =  0 Multiplicity = 1

                         Standard orientation:
 ---------------------------------------------------------------------
 Center     Atomic      Atomic             Coordinates (Angstroms)
 Number     Number       Type             X           Y           Z
 ---------------------------------------------------------------------
      1         16           0       -0.482727   -0.034612    0.110142
      2          9           0        2.040104    0.083257    0.016616
      3          8           0       -0.397228    0.974506   -1.146253
      4          8           0       -0.493386    0.742334    1.305883
      5          8           0       -1.437365   -1.037438   -0.225515
      6          7           0        1.002059   -0.877790    0.045525
      7          1           0        1.053962   -1.320053   -0.875570
      8          1           0       -0.081851    1.833849   -0.827844
 ---------------------------------------------------------------------

 SCF Done:  E(RHF) =  -777.473494480     A.U. after    2 cycles

 The electronic state is 1-A.
 Alpha  occ. eigenvalues --  -94.29285 -26.53058 -20.65518 -20.59063 -20.59046
 Alpha  occ. eigenvalues --  -15.66987  -8.53781  -6.51917  -6.51744  -6.51639
 Alpha  occ. eigenvalues --   -1.66687  -1.63459  -1.52693  -1.50512  -1.22847
 Alpha  occ. eigenvalues --   -0.94976  -0.85103  -0.78565  -0.77063  -0.74546
 Alpha  occ. eigenvalues --   -0.70859  -0.67020  -0.65807  -0.61045  -0.57547
 Alpha  occ. eigenvalues --   -0.54438  -0.53726  -0.53511  -0.51292
 Alpha virt. eigenvalues --    0.02981   0.04359   0.09056   0.09791   0.11329
 Alpha virt. eigenvalues --    0.12676   0.13678   0.14523   0.16085   0.17465
 Alpha virt. eigenvalues --    0.17793   0.19992   0.21771   0.23593   0.24283

 Mulliken charges:
               1
     1  S    3.736889
     2  F   -0.579620
     3  O   -1.234119
     4  O   -1.336210
     5  O   -1.361154
     6  N    0.251161
     7  H    0.166787
     8  H    0.356267
 Sum of Mulliken charges =  -0.00000

 Dipole moment (field-independent basis, Debye):
    X=              1.6190    Y=              1.2581    Z=             -2.4351  Tot=              3.1833

 Test job not archived.
 1\1\GINC-SE105\SP\RHF\Aug-CC-pVDZ\F1H2N1O3S1\OHZDE\09-Apr-2025\0\\#t h
 f aug-cc-pvdz iop(5/13=1,5/36=2,99/5=2) pseudo=read geom=check guess=(
 read,tcheck) scf=(maxcycle=1)\\title\\0,1\S,0,-0.482727,-0.034612,0.11
 0142\F,0,2.040104,0.083258,0.016616\O,0,-0.397228,0.974506,-1.146253\O
 ,0,-0.493386,0.742334,1.305883\O,0,-1.437365,-1.037438,-0.225515\N,0,1
 .002059,-0.87779,0.045525\H,0,1.053962,-1.320053,-0.87557\H,0,-0.08185
 1,1.833849,-0.827844\\Version=ES64L-G16RevC.01\State=1-A\HF=-777.47349
 45\RMSD=8.615e-03\Dipole=0.6369679,0.4949614,-0.9580352\Quadrupole=-2.

 Normal termination of Gaussian 16 at Wed Apr  9 00:53:03 2025.
