 Gaussian 16, Revision C.01,

 ----------------------------------------------------------------------
 #t hf aug-cc-pvdz symm=none int=(grid=ultrafine) guess=(read,tcheck) s
 table=(opt,rrhf)
 ----------------------------------------------------------------------
 -----
 title
 -----
 Symbolic Z-matrix:
 Charge =  0 Multiplicity = 1

 SCF Done:  E(RHF) =  -972.347768885     A.U. after   17 cycles
 Normal termination of Gaussian 16 at Wed Apr  9 00:49:03 2025.
 Gaussian 16:  ES64L-G16RevC.01  3-Jul-2019

 ----------------------------------------------------------------------
 #t hf aug-cc-pvdz iop(5/13=1,5/36=2,99/5=2) pseudo=read geom=check gue
 ss=(read,tcheck) scf=(maxcycle=1)
 ----------------------------------------------------------------------
 -----
 title
 -----
 Structure from the checkpoint file:  "BDE49_nonexpt_857_mol1.chk"
 Charge =  0 Multiplicity = 1

                         Standard orientation:
 ---------------------------------------------------------------------
 Center     Atomic      Atomic             Coordinates (Angstroms)
 Number     Number       Type             X           Y           Z
 ---------------------------------------------------------------------
      1         14           0        0.063794   -0.140628    0.480032
      2          7           0        1.131376   -1.229558   -0.562389
      3          5           0       -1.909000   -0.248421    0.007210
      4          7           0        0.727838    1.540000   -0.018207
      5          9           0        0.513672   -0.309513    1.993186
      6          8           0       -0.110778    2.330356   -0.476420
      7          8           0       -2.531195    0.803205   -0.552755
      8          8           0        0.847631   -1.022112   -1.749462
      9          8           0       -2.512758   -1.421423    0.290299
     10          8           0        1.951617   -2.022044   -0.148830
     11          8           0        1.905682    1.795766    0.140927
     12          1           0       -3.444584   -1.449639    0.035544
     13          1           0       -1.942664    1.563087   -0.696626
 ---------------------------------------------------------------------

 SCF Done:  E(RHF) =  -973.021191274     A.U. after    2 cycles

 The electronic state is 1-A.
 Alpha  occ. eigenvalues --  -69.70867 -26.52866 -20.64005 -20.63539 -20.63023
 Alpha  occ. eigenvalues --  -20.62544 -20.61282 -20.60513 -15.79967 -15.79538
 Alpha  occ. eigenvalues --   -7.71503  -6.37082  -4.12388  -4.12281  -4.12087
 Alpha  occ. eigenvalues --   -1.69947  -1.69388  -1.64149  -1.54145  -1.53854
 Alpha  occ. eigenvalues --   -1.53226  -1.49574  -1.06709  -1.01436  -0.87571
 Alpha  occ. eigenvalues --   -0.84166  -0.82909  -0.79128  -0.78564  -0.78134
 Alpha  occ. eigenvalues --   -0.77367  -0.76503  -0.75603  -0.71310  -0.70088
 Alpha  occ. eigenvalues --   -0.67823  -0.62188  -0.61635  -0.56414  -0.54092
 Alpha  occ. eigenvalues --   -0.53467  -0.52719  -0.50160  -0.49594  -0.48578
 Alpha  occ. eigenvalues --   -0.47828
 Alpha virt. eigenvalues --    0.00508   0.01306   0.02593   0.03894   0.04641
 Alpha virt. eigenvalues --    0.05296   0.06641   0.07449   0.07739   0.08413
 Alpha virt. eigenvalues --    0.09420   0.09726   0.11125   0.12809   0.14663

 Mulliken charges:
               1
     1  Si   1.626131
     2  N    1.999135
     3  B    1.500551
     4  N    1.979127
     5  F   -0.910568
     6  O   -1.234181
     7  O   -1.369724
     8  O   -1.242872
     9  O   -1.140239
    10  O   -1.219500
    11  O   -1.243109
    12  H    0.552060
    13  H    0.703188
 Sum of Mulliken charges =  -0.00000

 Dipole moment (field-independent basis, Debye):
    X=             -4.2893    Y=             -0.3462    Z=              1.3274  Tot=              4.5033

 Test job not archived.
 1\1\GINC-SE083\SP\RHF\Aug-CC-pVDZ\B1F1H2N2O6Si1\OHZDE\09-Apr-2025\0\\#
 t hf aug-cc-pvdz iop(5/13=1,5/36=2,99/5=2) pseudo=read geom=check gues
 s=(read,tcheck) scf=(maxcycle=1)\\title\\0,1\Si,0,0.063794,-0.140628,0
 .480032\N,0,1.131376,-1.229558,-0.562389\B,0,-1.909,-0.248422,0.00721\
 N,0,0.727837,1.54,-0.018207\F,0,0.513672,-0.309513,1.993186\O,0,-0.110
 779,2.330356,-0.47642\O,0,-2.531195,0.803204,-0.552755\O,0,0.847631,-1
 .022112,-1.749462\O,0,-2.512758,-1.421424,0.290299\O,0,1.951618,-2.022
 043,-0.14883\O,0,1.905681,1.795767,0.140927\H,0,-3.444584,-1.44964,0.0

 Normal termination of Gaussian 16 at Wed Apr  9 00:49:13 2025.
