 Gaussian 16, Revision C.01,

 ----------------------------------------------------------------------
 #t hf aug-cc-pvdz symm=none int=(grid=ultrafine) guess=(read,tcheck) s
 table=(opt,rrhf)
 ----------------------------------------------------------------------
 -----
 title
 -----
 Symbolic Z-matrix:
 Charge =  0 Multiplicity = 1

 SCF Done:  E(RHF) =  -1030.25614553     A.U. after   14 cycles
 Normal termination of Gaussian 16 at Tue Apr  8 23:21:05 2025.
 Gaussian 16:  ES64L-G16RevC.01  3-Jul-2019

 ----------------------------------------------------------------------
 #t hf aug-cc-pvdz iop(5/13=1,5/36=2,99/5=2) pseudo=read geom=check gue
 ss=(read,tcheck) scf=(maxcycle=1)
 ----------------------------------------------------------------------
 -----
 title
 -----
 Structure from the checkpoint file:  "BDE49_nonexpt_115_mol1.chk"
 Charge =  0 Multiplicity = 1

                         Standard orientation:
 ---------------------------------------------------------------------
 Center     Atomic      Atomic             Coordinates (Angstroms)
 Number     Number       Type             X           Y           Z
 ---------------------------------------------------------------------
      1          5           0        0.471406   -0.684456    1.237082
      2          5           0       -0.471401    0.684434    1.237097
      3         16           0       -1.958322    0.914787    0.256349
      4          6           0       -2.087190   -0.554923   -0.612707
      5          7           0       -2.214897   -1.532524   -1.217789
      6         16           0        1.958319   -0.914794    0.256318
      7          6           0        2.087191    0.554936   -0.612701
      8          7           0        2.214901    1.532552   -1.217758
      9          1           0       -0.264534    1.640207    1.913884
     10          1           0        0.264524   -1.640255    1.913829
 ---------------------------------------------------------------------

 SCF Done:  E(RHF) =  -1030.59225873     A.U. after    2 cycles

 The electronic state is 1-A.
 Alpha  occ. eigenvalues --  -94.03258 -94.03255 -15.54489 -15.54489 -11.32310
 Alpha  occ. eigenvalues --  -11.32310  -8.31428  -8.31427  -7.66550  -7.66533
 Alpha  occ. eigenvalues --   -6.29260  -6.29260  -6.29004  -6.29004  -6.28874
 Alpha  occ. eigenvalues --   -6.28874  -1.26263  -1.26194  -1.11980  -1.11379
 Alpha  occ. eigenvalues --   -0.81819  -0.77239  -0.69632  -0.64404  -0.62437
 Alpha  occ. eigenvalues --   -0.59614  -0.59082  -0.58826  -0.57052  -0.56840
 Alpha  occ. eigenvalues --   -0.51955  -0.49996  -0.47360  -0.44508  -0.44506
 Alpha virt. eigenvalues --    0.01677   0.02202   0.02943   0.03133   0.05354
 Alpha virt. eigenvalues --    0.05444   0.06057   0.06864   0.07206   0.09052
 Alpha virt. eigenvalues --    0.09658   0.10304   0.11398   0.11411   0.12219

 Mulliken charges:
               1
     1  B    0.325741
     2  B    0.325733
     3  S    0.329131
     4  C   -1.695255
     5  N    0.776156
     6  S    0.329132
     7  C   -1.695256
     8  N    0.776155
     9  H    0.264232
    10  H    0.264230
 Sum of Mulliken charges =  -0.00000

 Dipole moment (field-independent basis, Debye):
    X=              0.0000    Y=             -0.0001    Z=              4.9697  Tot=              4.9697

 Test job not archived.
 1\1\GINC-SE252\SP\RHF\Aug-CC-pVDZ\C2H2B2N2S2\OHZDE\08-Apr-2025\0\\#t h
 f aug-cc-pvdz iop(5/13=1,5/36=2,99/5=2) pseudo=read geom=check guess=(
 read,tcheck) scf=(maxcycle=1)\\title\\0,1\B,0,0.471406,-0.684456,1.237
 082\B,0,-0.471401,0.684434,1.237097\S,0,-1.958322,0.914787,0.256349\C,
 0,-2.08719,-0.554923,-0.612707\N,0,-2.214897,-1.532524,-1.217789\S,0,1
 .958319,-0.914794,0.256318\C,0,2.087191,0.554936,-0.612701\N,0,2.21490
 1,1.532552,-1.217758\H,0,-0.264534,1.640207,1.913884\H,0,0.264524,-1.6
 40255,1.913829\\Version=ES64L-G16RevC.01\State=1-A\HF=-1030.5922587\RM

 Normal termination of Gaussian 16 at Tue Apr  8 23:21:09 2025.
