 Gaussian 16, Revision C.01,

 ----------------------------------------------------------------------
 #t hf aug-cc-pvdz symm=none int=(grid=ultrafine) guess=(read,tcheck) s
 table=(opt,rrhf)
 ----------------------------------------------------------------------
 -----
 title
 -----
 Symbolic Z-matrix:
 Charge =  0 Multiplicity = 1

 SCF Done:  E(RHF) =  -315.494727667     A.U. after   14 cycles
 Normal termination of Gaussian 16 at Wed Apr  9 00:44:20 2025.
 Gaussian 16:  ES64L-G16RevC.01  3-Jul-2019

 ----------------------------------------------------------------------
 #t hf aug-cc-pvdz iop(5/13=1,5/36=2,99/5=2) pseudo=read geom=check gue
 ss=(read,tcheck) scf=(maxcycle=1)
 ----------------------------------------------------------------------
 -----
 title
 -----
 Structure from the checkpoint file:  "BDE49_nonexpt_73_mol1.chk"
 Charge =  0 Multiplicity = 1

                         Standard orientation:
 ---------------------------------------------------------------------
 Center     Atomic      Atomic             Coordinates (Angstroms)
 Number     Number       Type             X           Y           Z
 ---------------------------------------------------------------------
      1          5           0        0.407731    0.710992    1.157568
      2          5           0       -0.407632   -0.709179    1.158675
      3          6           0       -1.703609   -1.052427    0.300396
      4          7           0       -2.361803   -0.276984   -0.475978
      5          6           0        1.704266    1.052582    0.299465
      6          7           0        2.362114    0.276050   -0.476117
      7          6           0       -1.959823    1.083558   -0.702606
      8          1           0       -2.771173    1.751462   -0.397243
      9          1           0       -1.804373    1.234610   -1.775250
     10          1           0       -1.038046    1.396436   -0.170537
     11          6           0        1.959075   -1.084304   -0.701996
     12          1           0        1.804143   -1.235997   -1.774626
     13          1           0        1.036703   -1.395988   -0.170259
     14          1           0        2.769651   -1.752702   -0.395660
     15          1           0       -2.123380   -2.060390    0.378223
     16          1           0        2.124659    2.060347    0.376494
     17          1           0       -0.075522   -1.572836    1.921831
     18          1           0        0.075210    1.576081    1.918921
 ---------------------------------------------------------------------

 SCF Done:  E(RHF) =  -315.820124262     A.U. after    2 cycles

 The electronic state is 1-A.
 Alpha  occ. eigenvalues --  -15.52200 -15.52192 -11.27303 -11.27302 -11.26713
 Alpha  occ. eigenvalues --  -11.26709  -7.59348  -7.59258  -1.23645  -1.23429
 Alpha  occ. eigenvalues --   -0.98825  -0.98400  -0.85014  -0.80546  -0.73236
 Alpha  occ. eigenvalues --   -0.70180  -0.67291  -0.66924  -0.61700  -0.61392
 Alpha  occ. eigenvalues --   -0.60175  -0.57100  -0.54358  -0.52477  -0.46945
 Alpha  occ. eigenvalues --   -0.45440  -0.44402  -0.42857  -0.41452
 Alpha virt. eigenvalues --    0.02520   0.02527   0.03048   0.03305   0.04435
 Alpha virt. eigenvalues --    0.04563   0.05218   0.05486   0.05848   0.06671
 Alpha virt. eigenvalues --    0.07017   0.07972   0.08490   0.09246   0.10579

 Mulliken charges:
               1
     1  B    0.431080
     2  B    0.430268
     3  C   -0.847657
     4  N    0.658736
     5  C   -0.847698
     6  N    0.658797
     7  C   -0.315909
     8  H    0.137959
     9  H    0.145138
    10  H   -0.083196
    11  C   -0.315886
    12  H    0.145205
    13  H   -0.083339
    14  H    0.138017
    15  H   -0.192797
    16  H   -0.193122
    17  H    0.067514
    18  H    0.066891
 Sum of Mulliken charges =  -0.00000

 Dipole moment (field-independent basis, Debye):
    X=             -0.0004    Y=              0.0013    Z=              1.2343  Tot=              1.2343

 Test job not archived.
 1\1\GINC-SE049\SP\RHF\Aug-CC-pVDZ\C4H10B2N2\OHZDE\09-Apr-2025\0\\#t hf
  aug-cc-pvdz iop(5/13=1,5/36=2,99/5=2) pseudo=read geom=check guess=(r
 ead,tcheck) scf=(maxcycle=1)\\title\\0,1\B,0,-0.407731,-0.710992,1.157
 568\B,0,0.407632,0.709179,1.158675\C,0,1.703609,1.052427,0.300396\N,0,
 2.361803,0.276984,-0.475978\C,0,-1.704266,-1.052582,0.299465\N,0,-2.36
 2114,-0.27605,-0.476117\C,0,1.959823,-1.083558,-0.702606\H,0,2.771173,
 -1.751462,-0.397243\H,0,1.804373,-1.23461,-1.77525\H,0,1.038046,-1.396
 436,-0.170537\C,0,-1.959075,1.084304,-0.701996\H,0,-1.804143,1.235997,

 Normal termination of Gaussian 16 at Wed Apr  9 00:44:28 2025.
