 Gaussian 16, Revision C.01,

 ----------------------------------------------------------------------
 #t hf aug-cc-pvdz symm=none int=(grid=ultrafine) guess=(read,tcheck) s
 table=(opt,rrhf)
 ----------------------------------------------------------------------
 -----
 title
 -----
 Symbolic Z-matrix:
 Charge =  0 Multiplicity = 1

 SCF Done:  E(RHF) =  -1297.20220657     A.U. after   13 cycles
 Normal termination of Gaussian 16 at Wed Apr  9 00:49:21 2025.
 Gaussian 16:  ES64L-G16RevC.01  3-Jul-2019

 ----------------------------------------------------------------------
 #t hf aug-cc-pvdz iop(5/13=1,5/36=2,99/5=2) pseudo=read geom=check gue
 ss=(read,tcheck) scf=(maxcycle=1)
 ----------------------------------------------------------------------
 -----
 title
 -----
 Structure from the checkpoint file:  "BDE49_nonexpt_877_mol1.chk"
 Charge =  0 Multiplicity = 1

                         Standard orientation:
 ---------------------------------------------------------------------
 Center     Atomic      Atomic             Coordinates (Angstroms)
 Number     Number       Type             X           Y           Z
 ---------------------------------------------------------------------
      1          6           0       -2.148442   -0.251392   -0.506622
      2         16           0       -0.592069   -1.216961   -0.260525
      3          5           0        0.729030   -0.003647   -0.057492
      4         16           0        0.417674    1.790526   -0.163494
      5         16           0        2.429858   -0.586083    0.246964
      6          6           0       -2.828699    0.158842    0.795871
      7          1           0       -2.785918   -0.921581   -1.086293
      8          1           0       -1.922994    0.608393   -1.138890
      9          1           0       -3.057642   -0.713931    1.411014
     10          1           0       -3.767450    0.677884    0.577344
     11          1           0       -2.198916    0.830976    1.381358
     12          1           0        1.687250    2.199317    0.005224
     13          1           0        2.175942   -1.907249    0.235092
 ---------------------------------------------------------------------

 SCF Done:  E(RHF) =  -1297.49532279     A.U. after    2 cycles

 The electronic state is 1-A.
 Alpha  occ. eigenvalues --  -93.96118 -93.95784 -93.94940 -11.28280 -11.24114
 Alpha  occ. eigenvalues --   -8.24419  -8.24072  -8.23264  -7.67714  -6.22259
 Alpha  occ. eigenvalues --   -6.22116  -6.21944  -6.21914  -6.21772  -6.21596
 Alpha  occ. eigenvalues --   -6.21077  -6.20908  -6.20775  -1.09967  -1.05235
 Alpha  occ. eigenvalues --   -1.00692  -0.96947  -0.84186  -0.67590  -0.63921
 Alpha  occ. eigenvalues --   -0.60901  -0.59050  -0.56600  -0.53676  -0.52432
 Alpha  occ. eigenvalues --   -0.48468  -0.45929  -0.45749  -0.43715  -0.38207
 Alpha  occ. eigenvalues --   -0.36716
 Alpha virt. eigenvalues --    0.03542   0.04142   0.04331   0.04384   0.05809
 Alpha virt. eigenvalues --    0.06711   0.07135   0.07658   0.07885   0.09392
 Alpha virt. eigenvalues --    0.10130   0.11272   0.12113   0.12305   0.13052

 Mulliken charges:
               1
     1  C   -0.827200
     2  S    0.021694
     3  B    1.163528
     4  S   -0.599416
     5  S   -0.751262
     6  C   -0.392260
     7  H    0.174543
     8  H    0.183646
     9  H    0.179417
    10  H    0.133430
    11  H    0.155167
    12  H    0.281565
    13  H    0.277146
 Sum of Mulliken charges =   0.00000

 Dipole moment (field-independent basis, Debye):
    X=             -1.2935    Y=              0.2240    Z=             -0.0619  Tot=              1.3142

 Test job not archived.
 1\1\GINC-SE009\SP\RHF\Aug-CC-pVDZ\C2H7B1S3\OHZDE\09-Apr-2025\0\\#t hf
 aug-cc-pvdz iop(5/13=1,5/36=2,99/5=2) pseudo=read geom=check guess=(re
 ad,tcheck) scf=(maxcycle=1)\\title\\0,1\C,0,-2.148442,-0.251392,-0.506
 622\S,0,-0.592069,-1.216961,-0.260525\B,0,0.72903,-0.003647,-0.057492\
 S,0,0.417674,1.790526,-0.163494\S,0,2.429858,-0.586083,0.246964\C,0,-2
 .828699,0.158842,0.795871\H,0,-2.785918,-0.921581,-1.086293\H,0,-1.922
 994,0.608393,-1.13889\H,0,-3.057642,-0.713931,1.411014\H,0,-3.76745,0.
 677884,0.577344\H,0,-2.198916,0.830976,1.381358\H,0,1.68725,2.199317,0

 Normal termination of Gaussian 16 at Wed Apr  9 00:49:26 2025.
