 Gaussian 16, Revision C.01,

 ----------------------------------------------------------------------
 #t hf aug-cc-pvdz symm=none int=(grid=ultrafine) guess=(read,tcheck) s
 table=opt
 ----------------------------------------------------------------------
 -----
 title
 -----
 Symbolic Z-matrix:
 Charge =  0 Multiplicity = 2

 SCF Done:  E(UHF) =  -315.877665401     A.U. after   15 cycles

 1\1\GINC-SE340\Stability\UHF\Aug-CC-pVDZ\B1H4Si1\OHZDE\09-Apr-2025\0\\
 #t hf aug-cc-pvdz symm=none int=(grid=ultrafine) guess=(read,tcheck) s
 table=opt\\title\\0,2\Si,0,-0.564786,0.,-0.000004\B,0,1.363004,0.,0.00
 0016\H,0,-1.407905,-1.215421,-0.000016\H,0,-1.407904,1.215422,-0.00001
 6\H,0,1.9539,-1.032595,0.000004\H,0,1.953899,1.032595,0.000004\\Versio
 n=ES64L-G16RevC.01\HF=-315.8776654\S2=0.762528\S2-1=0.\S2A=0.750055\RM
 SD=2.979e-09\Dipole=-0.2788862,-0.0000002,0.0000042\Quadrupole=-0.6607
 209,-0.1710234,0.8317443,0.0000014,0.0000129,0.\PG=Unknown\\@

 Normal termination of Gaussian 16 at Wed Apr  9 00:13:31 2025.
 Gaussian 16:  ES64L-G16RevC.01  3-Jul-2019

 ----------------------------------------------------------------------
 #t hf aug-cc-pvdz iop(5/13=1,5/36=2,99/5=2) pseudo=read geom=check gue
 ss=(read,tcheck) scf=(maxcycle=1)
 ----------------------------------------------------------------------
 -----
 title
 -----
 Structure from the checkpoint file:  "BDE49_nonexpt_2451_mol2.chk"
 Charge =  0 Multiplicity = 2

                         Standard orientation:
 ---------------------------------------------------------------------
 Center     Atomic      Atomic             Coordinates (Angstroms)
 Number     Number       Type             X           Y           Z
 ---------------------------------------------------------------------
      1         14           0        0.564786   -0.000000    0.000004
      2          5           0       -1.363004    0.000000   -0.000016
      3          1           0        1.407905   -1.215421    0.000016
      4          1           0        1.407904    1.215422    0.000016
      5          1           0       -1.953900   -1.032595   -0.000004
      6          1           0       -1.953899    1.032595   -0.000004
 ---------------------------------------------------------------------

 SCF Done:  E(UHF) =  -315.936344456     A.U. after    2 cycles

 The electronic state is 2-A.
 Alpha  occ. eigenvalues --  -69.53547  -7.60251  -6.21016  -3.97013  -3.96098
 Alpha  occ. eigenvalues --   -3.96061  -0.78824  -0.66417  -0.52593  -0.48033
 Alpha  occ. eigenvalues --   -0.45148  -0.31633
 Alpha virt. eigenvalues --    0.03874   0.04334   0.04693   0.04754   0.06584
 Alpha virt. eigenvalues --    0.07438   0.07929   0.10097   0.11089   0.11376
 Alpha virt. eigenvalues --    0.11380   0.14810   0.15385   0.18081   0.18966

  Beta  occ. eigenvalues --  -69.53133  -7.60212  -6.20454  -3.95788  -3.95779
  Beta  occ. eigenvalues --   -3.95146  -0.74790  -0.65136  -0.52377  -0.48245
  Beta  occ. eigenvalues --   -0.44496
  Beta virt. eigenvalues --   -0.00322   0.03951   0.04352   0.04873   0.06813
  Beta virt. eigenvalues --    0.07504   0.07959   0.08750   0.10960   0.11253
  Beta virt. eigenvalues --    0.12635   0.14849   0.15409   0.15798   0.19780

 Mulliken charges and spin densities:
               1          2
     1  Si   0.620432   0.984585
     2  B   -1.051332   0.209991
     3  H   -0.151909  -0.057410
     4  H   -0.151910  -0.057411
     5  H    0.367359  -0.039878
     6  H    0.367360  -0.039878
 Sum of Mulliken charges =  -0.00000   1.00000

 Dipole moment (field-independent basis, Debye):
    X=              0.7119    Y=             -0.0000    Z=             -0.0000  Tot=              0.7119
                          Isotropic Fermi Contact Couplings
        Atom                 a.u.       MegaHertz       Gauss      10(-4) cm-1
     1  Si(29)             0.17234    -153.16529     -54.65318     -51.09044
     2  B(11)             -0.01179     -16.90455      -6.03196      -5.63875
     3  H(1)              -0.01300     -58.12816     -20.74157     -19.38947
     4  H(1)              -0.01300     -58.12818     -20.74158     -19.38947
     5  H(1)              -0.00369     -16.49830      -5.88700      -5.50324
     6  H(1)              -0.00369     -16.49830      -5.88700      -5.50324
 --------------------------------------------------------
       Center         ----  Spin Dipole Couplings  ----

 Normal termination of Gaussian 16 at Wed Apr  9 00:13:33 2025.
