 Gaussian 16, Revision C.01,

 ----------------------------------------------------------------------
 #t hf aug-cc-pvdz symm=none int=(grid=ultrafine) guess=(read,tcheck) s
 table=(opt,rrhf)
 ----------------------------------------------------------------------
 -----
 title
 -----
 Symbolic Z-matrix:
 Charge =  0 Multiplicity = 1

 SCF Done:  E(RHF) =  -353.999520606     A.U. after   14 cycles
 Normal termination of Gaussian 16 at Wed Apr  9 00:38:50 2025.
 Gaussian 16:  ES64L-G16RevC.01  3-Jul-2019

 ----------------------------------------------------------------------
 #t hf aug-cc-pvdz iop(5/13=1,5/36=2,99/5=2) pseudo=read geom=check gue
 ss=(read,tcheck) scf=(maxcycle=1)
 ----------------------------------------------------------------------
 -----
 title
 -----
 Structure from the checkpoint file:  "BDE49_nonexpt_607_mol1.chk"
 Charge =  0 Multiplicity = 1

                         Standard orientation:
 ---------------------------------------------------------------------
 Center     Atomic      Atomic             Coordinates (Angstroms)
 Number     Number       Type             X           Y           Z
 ---------------------------------------------------------------------
      1          7           0        0.470894   -0.061251    0.406071
      2          5           0       -0.773385   -0.765869    0.041447
      3          9           0        0.445039    1.270704   -0.056533
      4          9           0        1.596554   -0.614504   -0.184003
      5          8           0       -1.910187   -0.073148   -0.101199
      6          1           0       -1.782886    0.884257   -0.086228
      7          1           0       -0.739294   -1.946775    0.010917
 ---------------------------------------------------------------------

 SCF Done:  E(RHF) =  -354.332421787     A.U. after    2 cycles

 The electronic state is 1-A.
 Alpha  occ. eigenvalues --  -26.52075 -26.51897 -20.59990 -15.68983  -7.67692
 Alpha  occ. eigenvalues --   -1.67402  -1.59377  -1.50471  -1.12830  -0.83711
 Alpha  occ. eigenvalues --   -0.79213  -0.77687  -0.76337  -0.67222  -0.64796
 Alpha  occ. eigenvalues --   -0.63153  -0.61535  -0.58010  -0.55731  -0.50221
 Alpha virt. eigenvalues --    0.04091   0.04802   0.05016   0.05818   0.08405
 Alpha virt. eigenvalues --    0.09687   0.10832   0.15711   0.17182   0.17629
 Alpha virt. eigenvalues --    0.20160   0.20975   0.22081   0.22319   0.22990

 Mulliken charges:
               1
     1  N    1.305693
     2  B    0.501877
     3  F   -0.678484
     4  F   -0.644430
     5  O   -1.114170
     6  H    0.622082
     7  H    0.007433
 Sum of Mulliken charges =   0.00000

 Dipole moment (field-independent basis, Debye):
    X=             -1.1099    Y=              0.2798    Z=             -0.2883  Tot=              1.1804

 Test job not archived.
 1\1\GINC-SE343\SP\RHF\Aug-CC-pVDZ\B1F2H2N1O1\OHZDE\09-Apr-2025\0\\#t h
 f aug-cc-pvdz iop(5/13=1,5/36=2,99/5=2) pseudo=read geom=check guess=(
 read,tcheck) scf=(maxcycle=1)\\title\\0,1\N,0,0.470894,-0.061251,0.406
 071\B,0,-0.773385,-0.765869,0.041447\F,0,0.445039,1.270704,-0.056533\F
 ,0,1.596554,-0.614504,-0.184003\O,0,-1.910187,-0.073148,-0.101199\H,0,
 -1.782886,0.884257,-0.086228\H,0,-0.739294,-1.946775,0.010917\\Version
 =ES64L-G16RevC.01\State=1-A\HF=-354.3324218\RMSD=1.032e-02\Dipole=-0.4
 366734,0.1100947,-0.1134228\Quadrupole=-1.9132674,1.5956991,0.3175684,

 Normal termination of Gaussian 16 at Wed Apr  9 00:38:52 2025.
