 Gaussian 16, Revision C.01,

 ----------------------------------------------------------------------
 #t hf aug-cc-pvdz symm=none int=(grid=ultrafine) guess=(read,tcheck) s
 table=(opt,rrhf)
 ----------------------------------------------------------------------
 -----
 title
 -----
 Symbolic Z-matrix:
 Charge =  0 Multiplicity = 1

 SCF Done:  E(RHF) =  -678.081934779     A.U. after   15 cycles
 Normal termination of Gaussian 16 at Tue Apr  8 23:38:18 2025.
 Gaussian 16:  ES64L-G16RevC.01  3-Jul-2019

 ----------------------------------------------------------------------
 #t hf aug-cc-pvdz iop(5/13=1,5/36=2,99/5=2) pseudo=read geom=check gue
 ss=(read,tcheck) scf=(maxcycle=1)
 ----------------------------------------------------------------------
 -----
 title
 -----
 Structure from the checkpoint file:  "BDE49_nonexpt_1572_mol1.chk"
 Charge =  0 Multiplicity = 1

                         Standard orientation:
 ---------------------------------------------------------------------
 Center     Atomic      Atomic             Coordinates (Angstroms)
 Number     Number       Type             X           Y           Z
 ---------------------------------------------------------------------
      1          6           0        2.221795   -0.005612   -0.001906
      2          7           0        0.849496   -0.231200   -0.051484
      3          6           0       -0.115976    0.761822    0.016145
      4          7           0       -1.737873   -1.500182    0.172429
      5          8           0        3.032431   -0.896226   -0.039818
      6          1           0        2.466442    1.063019    0.074488
      7          8           0        0.122457    1.941803    0.143905
      8          1           0        0.525440   -1.191401   -0.122698
      9         15           0       -1.884799    0.166590   -0.231833
     10          1           0       -2.317612    0.737156    0.989660
     11          1           0       -2.324922   -2.113975   -0.374705
     12          1           0       -1.732742   -1.775851    1.146005
 ---------------------------------------------------------------------

 SCF Done:  E(RHF) =  -678.458564972     A.U. after    2 cycles

 The electronic state is 1-A.
 Alpha  occ. eigenvalues --  -84.33011 -20.54778 -20.54621 -15.56094 -15.53491
 Alpha  occ. eigenvalues --  -11.38863 -11.38122  -6.79785  -4.32516  -4.32151
 Alpha  occ. eigenvalues --   -4.31419  -1.49852  -1.48622  -1.27107  -1.20207
 Alpha  occ. eigenvalues --   -0.96836  -0.87563  -0.85265  -0.74239  -0.72718
 Alpha  occ. eigenvalues --   -0.70575  -0.64816  -0.64533  -0.63112  -0.59820
 Alpha  occ. eigenvalues --   -0.54940  -0.50722  -0.46771  -0.45107  -0.42866
 Alpha  occ. eigenvalues --   -0.37239
 Alpha virt. eigenvalues --    0.01989   0.04604   0.05220   0.05533   0.06441
 Alpha virt. eigenvalues --    0.07313   0.08200   0.08558   0.09389   0.10356
 Alpha virt. eigenvalues --    0.11522   0.13104   0.14364   0.14579   0.15257

 Mulliken charges:
               1
     1  C    0.657547
     2  N    0.654534
     3  C    0.051057
     4  N   -0.173307
     5  O   -1.039460
     6  H    0.091070
     7  O   -1.167252
     8  H    0.119391
     9  P    0.382694
    10  H    0.359056
    11  H    0.039164
    12  H    0.025505
 Sum of Mulliken charges =   0.00000

 Dipole moment (field-independent basis, Debye):
    X=             -4.2826    Y=             -1.9888    Z=              0.7349  Tot=              4.7787

 Test job not archived.
 1\1\GINC-SE332\SP\RHF\Aug-CC-pVDZ\C2H5N2O2P1\OHZDE\08-Apr-2025\0\\#t h
 f aug-cc-pvdz iop(5/13=1,5/36=2,99/5=2) pseudo=read geom=check guess=(
 read,tcheck) scf=(maxcycle=1)\\title\\0,1\C,0,2.221795,-0.005612,-0.00
 1906\N,0,0.849496,-0.2312,-0.051484\C,0,-0.115976,0.761822,0.016145\N,
 0,-1.737873,-1.500182,0.172429\O,0,3.032431,-0.896226,-0.039818\H,0,2.
 466442,1.063019,0.074488\O,0,0.122457,1.941803,0.143905\H,0,0.52544,-1
 .191401,-0.122698\P,0,-1.884799,0.16659,-0.231833\H,0,-2.317612,0.7371
 56,0.98966\H,0,-2.324922,-2.113975,-0.374705\H,0,-1.732742,-1.775851,1

 Normal termination of Gaussian 16 at Tue Apr  8 23:38:22 2025.
