 Gaussian 16, Revision C.01,

 ----------------------------------------------------------------------
 #t hf aug-cc-pvdz symm=none int=(grid=ultrafine) guess=(read,tcheck) s
 table=opt
 ----------------------------------------------------------------------
 -----
 title
 -----
 Symbolic Z-matrix:
 Charge =  0 Multiplicity = 2

 SCF Done:  E(UHF) =  -543.802946486     A.U. after   16 cycles
 Normal termination of Gaussian 16 at Wed Apr  9 00:14:06 2025.
 Gaussian 16:  ES64L-G16RevC.01  3-Jul-2019

 ----------------------------------------------------------------------
 #t hf aug-cc-pvdz iop(5/13=1,5/36=2,99/5=2) pseudo=read geom=check gue
 ss=(read,tcheck) scf=(maxcycle=1)
 ----------------------------------------------------------------------
 -----
 title
 -----
 Structure from the checkpoint file:  "BDE49_nonexpt_2454_mol2.chk"
 Charge =  0 Multiplicity = 2

                         Standard orientation:
 ---------------------------------------------------------------------
 Center     Atomic      Atomic             Coordinates (Angstroms)
 Number     Number       Type             X           Y           Z
 ---------------------------------------------------------------------
      1         14           0        1.633797   -1.154249   -0.069855
      2          5           0       -0.102632   -0.132888    0.012499
      3          1           0        2.864702   -0.520279    0.465503
      4          1           0        1.584600   -2.582477    0.318546
      5          8           0       -1.221110   -0.905967    0.007584
      6          8           0       -0.237852    1.224170    0.006619
      7          6           0       -2.528291   -0.321633    0.005119
      8          1           0       -3.244901   -1.138363   -0.076722
      9          1           0       -2.649786    0.361919   -0.838763
     10          1           0       -2.708024    0.230927    0.930950
     11          6           0        0.866468    2.123665   -0.001910
     12          1           0        0.471684    3.124829   -0.176317
     13          1           0        1.575119    1.879339   -0.799250
     14          1           0        1.389253    2.110219    0.958640
 ---------------------------------------------------------------------

 SCF Done:  E(UHF) =  -544.091420816     A.U. after    2 cycles

 The electronic state is 2-A.
 Alpha  occ. eigenvalues --  -69.51684 -20.55416 -20.54661 -11.29873 -11.28618
 Alpha  occ. eigenvalues --   -7.64275  -6.19077  -3.95110  -3.94165  -3.94108
 Alpha  occ. eigenvalues --   -1.48492  -1.44519  -0.95590  -0.94304  -0.76286
 Alpha  occ. eigenvalues --   -0.71615  -0.68375  -0.65436  -0.63874  -0.62412
 Alpha  occ. eigenvalues --   -0.60088  -0.52419  -0.49736  -0.49574  -0.48300
 Alpha  occ. eigenvalues --   -0.44866  -0.43000  -0.31111
 Alpha virt. eigenvalues --    0.03439   0.04067   0.04354   0.04810   0.06166
 Alpha virt. eigenvalues --    0.06681   0.07066   0.07601   0.08328   0.09518
 Alpha virt. eigenvalues --    0.09653   0.10469   0.10749   0.11420   0.11706

  Beta  occ. eigenvalues --  -69.51155 -20.55385 -20.54576 -11.29872 -11.28624
  Beta  occ. eigenvalues --   -7.64321  -6.18317  -3.93775  -3.93743  -3.92921
  Beta  occ. eigenvalues --   -1.48376  -1.44363  -0.95578  -0.94262  -0.74392
  Beta  occ. eigenvalues --   -0.69507  -0.68232  -0.65205  -0.63008  -0.62246
  Beta  occ. eigenvalues --   -0.60064  -0.52359  -0.49547  -0.49350  -0.48017
  Beta  occ. eigenvalues --   -0.44418  -0.42248
  Beta virt. eigenvalues --    0.02223   0.03490   0.04120   0.04446   0.05725
  Beta virt. eigenvalues --    0.06204   0.06734   0.07267   0.07748   0.09604
  Beta virt. eigenvalues --    0.10033   0.10087   0.10708   0.11019   0.11579

 Mulliken charges and spin densities:
               1          2
     1  Si   0.296839   1.075040
     2  B    1.110197  -0.036455
     3  H   -0.125509  -0.060997
     4  H   -0.144611  -0.045714
     5  O   -1.239243   0.051853
     6  O   -1.365001   0.013777
     7  C    0.444460   0.004339
     8  H   -0.043229   0.000346
     9  H    0.133895   0.001083
    10  H    0.137290  -0.001693
    11  C    0.531191   0.009342
    12  H   -0.004400   0.000539
    13  H    0.138782  -0.006646
    14  H    0.129338  -0.004814
 Sum of Mulliken charges =  -0.00000   1.00000

 Dipole moment (field-independent basis, Debye):
    X=             -0.3668    Y=              1.8529    Z=              0.1760  Tot=              1.8970
                          Isotropic Fermi Contact Couplings
        Atom                 a.u.       MegaHertz       Gauss      10(-4) cm-1
     1  Si(29)             0.38474    -341.92969    -122.00902    -114.05547
     2  B(11)             -0.00785     -11.25743      -4.01693      -3.75507
     3  H(1)              -0.00898     -40.14894     -14.32614     -13.39225
     4  H(1)              -0.00842     -37.64778     -13.43366     -12.55795
     5  O(17)              0.00802      -4.86422      -1.73568      -1.62253
     6  O(17)              0.00283      -1.71319      -0.61131      -0.57146
     7  C(13)             -0.00100      -1.12635      -0.40191      -0.37571
     8  H(1)               0.00003       0.13105       0.04676       0.04371

 1\1\GINC-SE363\SP\UHF\Aug-CC-pVDZ\C2H8B1O2Si1(2)\OHZDE\09-Apr-2025\0\\
 #t hf aug-cc-pvdz iop(5/13=1,5/36=2,99/5=2) pseudo=read geom=check gue
 ss=(read,tcheck) scf=(maxcycle=1)\\title\\0,2\Si,0,1.633797,-1.154249,
 -0.069855\B,0,-0.102632,-0.132888,0.012499\H,0,2.864702,-0.520278,0.46
 5503\H,0,1.584601,-2.582477,0.318546\O,0,-1.22111,-0.905967,0.007584\O
 ,0,-0.237853,1.22417,0.006619\C,0,-2.528291,-0.321634,0.005119\H,0,-3.
 244901,-1.138364,-0.076722\H,0,-2.649786,0.361918,-0.838763\H,0,-2.708
 024,0.230926,0.93095\C,0,0.866467,2.123665,-0.00191\H,0,0.471683,3.124

 Normal termination of Gaussian 16 at Wed Apr  9 00:14:11 2025.
