 Gaussian 16, Revision C.01,

 ----------------------------------------------------------------------
 #t hf aug-cc-pvdz symm=none int=(grid=ultrafine) guess=(read,tcheck) s
 table=(opt,rrhf)
 ----------------------------------------------------------------------
 -----
 title
 -----
 Symbolic Z-matrix:
 Charge =  0 Multiplicity = 1

 SCF Done:  E(RHF) =  -498.010336985     A.U. after   16 cycles
 Normal termination of Gaussian 16 at Wed Apr  9 00:00:29 2025.
 Gaussian 16:  ES64L-G16RevC.01  3-Jul-2019

 ----------------------------------------------------------------------
 #t hf aug-cc-pvdz iop(5/13=1,5/36=2,99/5=2) pseudo=read geom=check gue
 ss=(read,tcheck) scf=(maxcycle=1)
 ----------------------------------------------------------------------
 -----
 title
 -----
 Structure from the checkpoint file:  "BDE49_nonexpt_2107_mol1.chk"
 Charge =  0 Multiplicity = 1

                         Standard orientation:
 ---------------------------------------------------------------------
 Center     Atomic      Atomic             Coordinates (Angstroms)
 Number     Number       Type             X           Y           Z
 ---------------------------------------------------------------------
      1         14           0       -0.404995    0.047699    0.429049
      2          7           0        1.183842   -0.898177    0.174507
      3          8           0        2.087207   -0.264894   -0.340223
      4          6           0       -1.724651   -0.988143   -0.402160
      5          1           0       -1.671655   -2.024959   -0.060748
      6          1           0       -1.608939   -0.979992   -1.489416
      7          6           0       -0.276029    1.797920   -0.209863
      8          1           0       -0.163092    1.813711   -1.296959
      9          1           0        0.590100    2.303619    0.223757
     10          1           0       -1.172515    2.368401    0.050086
     11          1           0       -2.720815   -0.603611   -0.164924
     12          1           0       -0.563626    0.002768    1.903904
 ---------------------------------------------------------------------

 SCF Done:  E(RHF) =  -498.254569878     A.U. after    2 cycles

 The electronic state is 1-A.
 Alpha  occ. eigenvalues --  -69.55259 -20.61347 -15.60291 -11.23367 -11.23067
 Alpha  occ. eigenvalues --   -6.22236  -3.97597  -3.97519  -3.97510  -1.56652
 Alpha  occ. eigenvalues --   -1.00266  -0.95584  -0.94994  -0.74280  -0.66604
 Alpha  occ. eigenvalues --   -0.63497  -0.60027  -0.58176  -0.57229  -0.56851
 Alpha  occ. eigenvalues --   -0.56587  -0.47920  -0.47156  -0.38138
 Alpha virt. eigenvalues --    0.03011   0.04236   0.04437   0.04877   0.06043
 Alpha virt. eigenvalues --    0.06544   0.07047   0.07306   0.08744   0.09471
 Alpha virt. eigenvalues --    0.09976   0.12937   0.14727   0.15146   0.15457

 Mulliken charges:
               1
     1  Si   1.641890
     2  N    0.584390
     3  O   -0.925861
     4  C   -0.605277
     5  H   -0.004467
     6  H    0.094516
     7  C   -0.668654
     8  H    0.126066
     9  H    0.023424
    10  H   -0.001235
    11  H    0.012086
    12  H   -0.276877
 Sum of Mulliken charges =  -0.00000

 Dipole moment (field-independent basis, Debye):
    X=             -2.8338    Y=              1.5085    Z=             -0.1937  Tot=              3.2161

 Test job not archived.
 1\1\GINC-SE252\SP\RHF\Aug-CC-pVDZ\C2H7N1O1Si1\OHZDE\09-Apr-2025\0\\#t
 hf aug-cc-pvdz iop(5/13=1,5/36=2,99/5=2) pseudo=read geom=check guess=
 (read,tcheck) scf=(maxcycle=1)\\title\\0,1\Si,0,-0.404995,0.047699,0.4
 29049\N,0,1.183842,-0.898177,0.174507\O,0,2.087207,-0.264894,-0.340223
 \C,0,-1.724651,-0.988143,-0.40216\H,0,-1.671655,-2.024959,-0.060748\H,
 0,-1.608939,-0.979992,-1.489416\C,0,-0.276029,1.79792,-0.209863\H,0,-0
 .163092,1.813711,-1.296959\H,0,0.5901,2.303619,0.223757\H,0,-1.172515,
 2.368401,0.050086\H,0,-2.720815,-0.603611,-0.164924\H,0,-0.563626,0.00

 Normal termination of Gaussian 16 at Wed Apr  9 00:00:33 2025.
