 Gaussian 16, Revision C.01,

 ----------------------------------------------------------------------
 #t hf aug-cc-pvdz symm=none int=(grid=ultrafine) guess=(read,tcheck) s
 table=(opt,rrhf)
 ----------------------------------------------------------------------
 -----
 title
 -----
 Symbolic Z-matrix:
 Charge =  0 Multiplicity = 1

 SCF Done:  E(RHF) =  -996.088787022     A.U. after   13 cycles
 Normal termination of Gaussian 16 at Tue Apr  8 23:47:28 2025.
 Gaussian 16:  ES64L-G16RevC.01  3-Jul-2019

 ----------------------------------------------------------------------
 #t hf aug-cc-pvdz iop(5/13=1,5/36=2,99/5=2) pseudo=read geom=check gue
 ss=(read,tcheck) scf=(maxcycle=1)
 ----------------------------------------------------------------------
 -----
 title
 -----
 Structure from the checkpoint file:  "BDE49_nonexpt_1784_mol1.chk"
 Charge =  0 Multiplicity = 1

                         Standard orientation:
 ---------------------------------------------------------------------
 Center     Atomic      Atomic             Coordinates (Angstroms)
 Number     Number       Type             X           Y           Z
 ---------------------------------------------------------------------
      1         14           0        1.140829   -0.932997   -0.000004
      2          6           0       -0.742781   -0.663641    0.000001
      3         17           0        2.477966    0.699255   -0.000006
      4          7           0       -1.516193    0.446115    0.000003
      5          6           0       -0.996226    1.804306    0.000006
      6          8           0       -1.187731   -1.815313    0.000001
      7          1           0        0.090424    1.796841    0.000004
      8          1           0       -1.342727    2.344465    0.887375
      9          1           0       -1.342731    2.344470   -0.887358
     10          6           0       -2.969645    0.303395    0.000007
     11          1           0       -3.395764    0.778422    0.889264
     12          1           0       -3.213749   -0.756218   -0.000003
     13          1           0       -3.395769    0.778439   -0.889238
     14          1           0        1.435195   -1.688226   -1.225499
     15          1           0        1.435202   -1.688228    1.225489
 ---------------------------------------------------------------------

 SCF Done:  E(RHF) =  -996.452701812     A.U. after    2 cycles

 The electronic state is 1-A.
 Alpha  occ. eigenvalues -- -105.56183 -69.59211 -20.52570 -15.54564 -11.35750
 Alpha  occ. eigenvalues --  -11.28639 -11.27551 -10.61159  -7.78036  -7.77763
 Alpha  occ. eigenvalues --   -7.77737  -6.25775  -4.01221  -4.01041  -4.01014
 Alpha  occ. eigenvalues --   -1.46721  -1.26749  -1.05543  -0.99799  -0.97580
 Alpha  occ. eigenvalues --   -0.81257  -0.76211  -0.68404  -0.68305  -0.66773
 Alpha  occ. eigenvalues --   -0.58881  -0.58088  -0.57165  -0.56912  -0.56201
 Alpha  occ. eigenvalues --   -0.53094  -0.52550  -0.47930  -0.45816  -0.40994
 Alpha  occ. eigenvalues --   -0.40814
 Alpha virt. eigenvalues --    0.03122   0.04264   0.04492   0.04758   0.05853
 Alpha virt. eigenvalues --    0.06111   0.06237   0.06648   0.07223   0.09413
 Alpha virt. eigenvalues --    0.09625   0.11388   0.12339   0.12800   0.13582

 Mulliken charges:
               1
     1  Si   1.118959
     2  C    0.040761
     3  Cl  -0.598650
     4  N    0.724451
     5  C   -0.272956
     6  O   -1.193169
     7  H   -0.070561
     8  H    0.198429
     9  H    0.198426
    10  C   -0.310442
    11  H    0.190592
    12  H    0.010259
    13  H    0.190591
    14  H   -0.113345
    15  H   -0.113345
 Sum of Mulliken charges =  -0.00000

 Dipole moment (field-independent basis, Debye):
    X=             -1.4642    Y=              2.4367    Z=              0.0000  Tot=              2.8428

 Test job not archived.
 1\1\GINC-SE128\SP\RHF\Aug-CC-pVDZ\C3H8Cl1N1O1Si1\OHZDE\08-Apr-2025\0\\
 #t hf aug-cc-pvdz iop(5/13=1,5/36=2,99/5=2) pseudo=read geom=check gue
 ss=(read,tcheck) scf=(maxcycle=1)\\title\\0,1\Si,0,1.140829,-0.932997,
 -0.000004\C,0,-0.742781,-0.663641,0.000001\Cl,0,2.477966,0.699255,-0.0
 00006\N,0,-1.516193,0.446115,0.000003\C,0,-0.996226,1.804306,0.000006\
 O,0,-1.187731,-1.815313,0.000001\H,0,0.090424,1.796841,0.000004\H,0,-1
 .342727,2.344465,0.887375\H,0,-1.342731,2.34447,-0.887358\C,0,-2.96964
 5,0.303395,0.000007\H,0,-3.395764,0.778422,0.889264\H,0,-3.213749,-0.7

 Normal termination of Gaussian 16 at Tue Apr  8 23:47:34 2025.
