 Gaussian 16, Revision C.01,

 ----------------------------------------------------------------------
 #t hf aug-cc-pvdz symm=none int=(grid=ultrafine) guess=(read,tcheck) s
 table=(opt,rrhf)
 ----------------------------------------------------------------------
 -----
 title
 -----
 Symbolic Z-matrix:
 Charge =  0 Multiplicity = 1

 SCF Done:  E(RHF) =  -356.233145495     A.U. after   13 cycles
 Normal termination of Gaussian 16 at Wed Apr  9 00:32:49 2025.
 Gaussian 16:  ES64L-G16RevC.01  3-Jul-2019

 ----------------------------------------------------------------------
 #t hf aug-cc-pvdz iop(5/13=1,5/36=2,99/5=2) pseudo=read geom=check gue
 ss=(read,tcheck) scf=(maxcycle=1)
 ----------------------------------------------------------------------
 -----
 title
 -----
 Structure from the checkpoint file:  "BDE49_nonexpt_405_mol1.chk"
 Charge =  0 Multiplicity = 1

                         Standard orientation:
 ---------------------------------------------------------------------
 Center     Atomic      Atomic             Coordinates (Angstroms)
 Number     Number       Type             X           Y           Z
 ---------------------------------------------------------------------
      1          9           0        1.229621   -1.338507   -0.000110
      2          9           0        1.669713    0.880002   -0.000192
      3          5           0        0.772701   -0.096429    0.000311
      4          6           0       -0.767866    0.232553    0.000106
      5          6           0       -1.763593   -0.898471    0.000037
      6          7           0       -1.191323    1.440762    0.000022
      7          1           0       -1.624424   -1.538761   -0.877192
      8          1           0       -2.777614   -0.498509   -0.000093
      9          1           0       -1.624623   -1.538696    0.877344
     10          1           0       -0.402840    2.094827    0.000095
 ---------------------------------------------------------------------

 SCF Done:  E(RHF) =  -356.574010538     A.U. after    2 cycles

 The electronic state is 1-A.
 Alpha  occ. eigenvalues --  -26.49627 -26.49481 -15.52267 -11.29237 -11.24572
 Alpha  occ. eigenvalues --   -7.73690  -1.64741  -1.60771  -1.23209  -1.00755
 Alpha  occ. eigenvalues --   -0.84746  -0.79714  -0.76521  -0.75944  -0.70996
 Alpha  occ. eigenvalues --   -0.65021  -0.64869  -0.64329  -0.60087  -0.59774
 Alpha  occ. eigenvalues --   -0.55880  -0.47297  -0.46297
 Alpha virt. eigenvalues --    0.03540   0.04225   0.04463   0.05131   0.05432
 Alpha virt. eigenvalues --    0.06396   0.07217   0.08086   0.08495   0.13724
 Alpha virt. eigenvalues --    0.15042   0.15365   0.16446   0.16906   0.17079

 Mulliken charges:
               1
     1  F   -0.707297
     2  F   -0.691609
     3  B    1.450265
     4  C   -0.713617
     5  C   -0.571758
     6  N    0.501538
     7  H    0.194904
     8  H    0.170230
     9  H    0.194897
    10  H    0.172446
 Sum of Mulliken charges =  -0.00000

 Dipole moment (field-independent basis, Debye):
    X=              0.3655    Y=             -1.3241    Z=              0.0017  Tot=              1.3736

 Test job not archived.
 1\1\GINC-SE458\SP\RHF\Aug-CC-pVDZ\C2H4B1F2N1\OHZDE\09-Apr-2025\0\\#t h
 f aug-cc-pvdz iop(5/13=1,5/36=2,99/5=2) pseudo=read geom=check guess=(
 read,tcheck) scf=(maxcycle=1)\\title\\0,1\F,0,1.229622,-1.338506,-0.00
 011\F,0,1.669712,0.880003,-0.000192\B,0,0.772701,-0.096428,0.000311\C,
 0,-0.767866,0.232553,0.000106\C,0,-1.763593,-0.898472,0.000037\N,0,-1.
 191324,1.440761,0.000022\H,0,-1.624423,-1.538762,-0.877192\H,0,-2.7776
 14,-0.498511,-0.000093\H,0,-1.624622,-1.538697,0.877344\H,0,-0.402841,
 2.094827,0.000095\\Version=ES64L-G16RevC.01\State=1-A\HF=-356.5740105\

 Normal termination of Gaussian 16 at Wed Apr  9 00:32:54 2025.
