 Gaussian 16, Revision C.01,

 ----------------------------------------------------------------------
 #t hf aug-cc-pvdz symm=none int=(grid=ultrafine) guess=(read,tcheck) s
 table=(opt,rrhf)
 ----------------------------------------------------------------------
 -----
 title
 -----
 Symbolic Z-matrix:
 Charge =  0 Multiplicity = 1

 SCF Done:  E(RHF) =  -585.087994248     A.U. after   16 cycles
 Normal termination of Gaussian 16 at Tue Apr  8 22:44:47 2025.
 Gaussian 16:  ES64L-G16RevC.01  3-Jul-2019

 ----------------------------------------------------------------------
 #t hf aug-cc-pvdz iop(5/13=1,5/36=2,99/5=2) pseudo=read geom=check gue
 ss=(read,tcheck) scf=(maxcycle=1)
 ----------------------------------------------------------------------
 -----
 title
 -----
 Structure from the checkpoint file:  "BDE49_expt_1532_mol1.chk"
 Charge =  0 Multiplicity = 1

                         Standard orientation:
 ---------------------------------------------------------------------
 Center     Atomic      Atomic             Coordinates (Angstroms)
 Number     Number       Type             X           Y           Z
 ---------------------------------------------------------------------
      1          6           0       -0.128723    1.806853   -0.539538
      2          6           0        0.005611    0.520633    0.218692
      3          7           0        1.210244   -0.308146   -0.304032
      4          7           0       -1.214389   -0.432865    0.047307
      5          8           0       -2.128673   -0.040302   -0.646760
      6          8           0       -1.137105   -1.477362    0.657377
      7          8           0        2.143397   -0.456578    0.446501
      8          8           0        1.093472   -0.699351   -1.450239
      9          9           0        0.163996    0.694901    1.534577
     10          1           0       -0.244854    1.605992   -1.601998
     11          1           0        0.769253    2.403087   -0.367128
     12          1           0       -1.001406    2.347717   -0.174952
 ---------------------------------------------------------------------

 SCF Done:  E(RHF) =  -585.641580036     A.U. after    2 cycles

 The electronic state is 1-A.
 Alpha  occ. eigenvalues --  -26.55377 -20.64160 -20.63850 -20.63582 -20.63284
 Alpha  occ. eigenvalues --  -15.83491 -15.83441 -11.50605 -11.30496  -1.73234
 Alpha  occ. eigenvalues --   -1.71490  -1.68816  -1.56269  -1.56103  -1.20414
 Alpha  occ. eigenvalues --   -1.05028  -1.04350  -0.89211  -0.86737  -0.85104
 Alpha  occ. eigenvalues --   -0.80359  -0.78878  -0.78743  -0.77168  -0.73867
 Alpha  occ. eigenvalues --   -0.71029  -0.65987  -0.64012  -0.62504  -0.54392
 Alpha  occ. eigenvalues --   -0.53531  -0.52956  -0.51694  -0.49137  -0.48648
 Alpha virt. eigenvalues --    0.01865   0.02440   0.03022   0.04871   0.05230
 Alpha virt. eigenvalues --    0.07065   0.10616   0.11053   0.11658   0.13138
 Alpha virt. eigenvalues --    0.13202   0.14330   0.15829   0.16126   0.17068

 Mulliken charges:
               1
     1  C   -0.169706
     2  C    0.363090
     3  N    2.791826
     4  N    2.823901
     5  O   -1.358523
     6  O   -1.445031
     7  O   -1.326863
     8  O   -1.496834
     9  F   -0.936179
    10  H    0.292783
    11  H    0.209689
    12  H    0.251846
 Sum of Mulliken charges =  -0.00000

 Dipole moment (field-independent basis, Debye):
    X=             -0.1361    Y=              4.0346    Z=             -0.2114  Tot=              4.0424

 Test job not archived.
 1\1\GINC-SE366\SP\RHF\Aug-CC-pVDZ\C2H3F1N2O4\OHZDE\08-Apr-2025\0\\#t h
 f aug-cc-pvdz iop(5/13=1,5/36=2,99/5=2) pseudo=read geom=check guess=(
 read,tcheck) scf=(maxcycle=1)\\title\\0,1\C,0,-0.128722,1.806853,-0.53
 9538\C,0,0.005611,0.520633,0.218692\N,0,1.210244,-0.308146,-0.304032\N
 ,0,-1.214389,-0.432865,0.047307\O,0,-2.128673,-0.040301,-0.64676\O,0,-
 1.137105,-1.477362,0.657377\O,0,2.143397,-0.456579,0.446501\O,0,1.0934
 72,-0.699351,-1.450239\F,0,0.163996,0.694901,1.534577\H,0,-0.244853,1.
 605992,-1.601998\H,0,0.769254,2.403087,-0.367128\H,0,-1.001405,2.34771

 Normal termination of Gaussian 16 at Tue Apr  8 22:44:52 2025.
