 Gaussian 16, Revision C.01,

 ----------------------------------------------------------------------
 #t hf aug-cc-pvdz symm=none int=(grid=ultrafine) guess=(read,tcheck) s
 table=(opt,rrhf)
 ----------------------------------------------------------------------
 -----
 title
 -----
 Symbolic Z-matrix:
 Charge =  0 Multiplicity = 1

 SCF Done:  E(RHF) =  -3032.42800482     A.U. after   14 cycles
 Normal termination of Gaussian 16 at Wed Apr  9 00:50:24 2025.
 Gaussian 16:  ES64L-G16RevC.01  3-Jul-2019

 ----------------------------------------------------------------------
 #t hf aug-cc-pvdz iop(5/13=1,5/36=2,99/5=2) pseudo=read geom=check gue
 ss=(read,tcheck) scf=(maxcycle=1)
 ----------------------------------------------------------------------
 -----
 title
 -----
 Structure from the checkpoint file:  "BDE49_nonexpt_915_mol1.chk"
 Charge =  0 Multiplicity = 1

                         Standard orientation:
 ---------------------------------------------------------------------
 Center     Atomic      Atomic             Coordinates (Angstroms)
 Number     Number       Type             X           Y           Z
 ---------------------------------------------------------------------
      1         16           0        1.028690   -1.098632   -0.710722
      2          5           0        2.345730    0.046342   -0.119451
      3         16           0        3.874976   -0.763857    0.437705
      4         16           0        2.310697    1.845896   -0.081728
      5         16           0       -0.586668    0.075455   -1.314235
      6          6           0       -1.763654   -0.021784    0.105967
      7         17           0       -2.308776   -1.696806    0.429490
      8         17           0       -3.152745    0.965833   -0.464541
      9         17           0       -1.110361    0.673200    1.620922
     10          1           0        1.056028    1.976780   -0.557078
     11          1           0        3.476111   -2.037436    0.262415
 ---------------------------------------------------------------------

 SCF Done:  E(RHF) =  -3032.95319696     A.U. after    2 cycles

 The electronic state is 1-A.
 Alpha  occ. eigenvalues -- -105.61300-105.60855-105.60702 -94.02902 -94.00282
 Alpha  occ. eigenvalues --  -93.97329 -93.96945 -11.48509 -10.66100 -10.65665
 Alpha  occ. eigenvalues --  -10.65517  -8.30750  -8.28404  -8.25612  -8.25279
 Alpha  occ. eigenvalues --   -7.83047  -7.82617  -7.82611  -7.82599  -7.82468
 Alpha  occ. eigenvalues --   -7.82176  -7.82171  -7.82023  -7.82020  -7.69797
 Alpha  occ. eigenvalues --   -6.28510  -6.28320  -6.28055  -6.26207  -6.25953
 Alpha  occ. eigenvalues --   -6.25808  -6.23443  -6.23308  -6.23126  -6.23107
 Alpha  occ. eigenvalues --   -6.22980  -6.22804  -1.23887  -1.12281  -1.08495
 Alpha  occ. eigenvalues --   -1.07967  -1.06410  -1.02324  -0.96136  -0.81314
 Alpha  occ. eigenvalues --   -0.69011  -0.66182  -0.65659  -0.65032  -0.60727
 Alpha  occ. eigenvalues --   -0.55625  -0.54919  -0.52800  -0.52082  -0.50106
 Alpha  occ. eigenvalues --   -0.48867  -0.48191  -0.47559  -0.47095  -0.46805
 Alpha  occ. eigenvalues --   -0.46485  -0.41279  -0.39799  -0.39033
 Alpha virt. eigenvalues --    0.03810   0.04482   0.05237   0.05370   0.06093
 Alpha virt. eigenvalues --    0.07064   0.07922   0.08163   0.08720   0.09001
 Alpha virt. eigenvalues --    0.09237   0.09764   0.10282   0.10782   0.11614

 Mulliken charges:
               1
     1  S   -0.365737
     2  B    1.265350
     3  S   -0.706166
     4  S   -0.589679
     5  S    0.183940
     6  C   -0.901748
     7  Cl   0.161472
     8  Cl   0.229501
     9  Cl   0.121771
    10  H    0.335925
    11  H    0.265371
 Sum of Mulliken charges =  -0.00000

 Dipole moment (field-independent basis, Debye):
    X=             -0.3409    Y=             -0.4937    Z=             -0.3782  Tot=              0.7092

 Test job not archived.
 1\1\GINC-SE455\SP\RHF\Aug-CC-pVDZ\C1H2B1Cl3S4\OHZDE\09-Apr-2025\0\\#t
 hf aug-cc-pvdz iop(5/13=1,5/36=2,99/5=2) pseudo=read geom=check guess=
 (read,tcheck) scf=(maxcycle=1)\\title\\0,1\S,0,1.02869,-1.098632,-0.71
 0722\B,0,2.34573,0.046342,-0.119451\S,0,3.874976,-0.763857,0.437705\S,
 0,2.310697,1.845896,-0.081728\S,0,-0.586668,0.075455,-1.314235\C,0,-1.
 763654,-0.021784,0.105967\Cl,0,-2.308776,-1.696806,0.42949\Cl,0,-3.152
 745,0.965833,-0.464541\Cl,0,-1.110361,0.6732,1.620922\H,0,1.056028,1.9
 7678,-0.557078\H,0,3.476111,-2.037436,0.262415\\Version=ES64L-G16RevC.

 Normal termination of Gaussian 16 at Wed Apr  9 00:50:32 2025.
