 Gaussian 16, Revision C.01,

 ----------------------------------------------------------------------
 #t hf aug-cc-pvdz symm=none int=(grid=ultrafine) guess=(read,tcheck) s
 table=(opt,rrhf)
 ----------------------------------------------------------------------
 -----
 title
 -----
 Symbolic Z-matrix:
 Charge =  0 Multiplicity = 1

 SCF Done:  E(RHF) =  -748.015837886     A.U. after   15 cycles
 Normal termination of Gaussian 16 at Wed Apr  9 00:47:02 2025.
 Gaussian 16:  ES64L-G16RevC.01  3-Jul-2019

 ----------------------------------------------------------------------
 #t hf aug-cc-pvdz iop(5/13=1,5/36=2,99/5=2) pseudo=read geom=check gue
 ss=(read,tcheck) scf=(maxcycle=1)
 ----------------------------------------------------------------------
 -----
 title
 -----
 Structure from the checkpoint file:  "BDE49_nonexpt_797_mol1.chk"
 Charge =  0 Multiplicity = 1

                         Standard orientation:
 ---------------------------------------------------------------------
 Center     Atomic      Atomic             Coordinates (Angstroms)
 Number     Number       Type             X           Y           Z
 ---------------------------------------------------------------------
      1          6           0        0.577717   -1.564744   -1.552670
      2         14           0        0.125464   -0.625708    0.000005
      3          1           0        0.435640   -0.954760   -2.448048
      4          1           0       -0.064728   -2.445875   -1.644344
      5          1           0        1.618412   -1.894860   -1.518124
      6          6           0        0.577713   -1.564709    1.552701
      7          1           0        0.435641   -0.954702    2.448065
      8          1           0        1.618407   -1.894831    1.518162
      9          1           0       -0.064737   -2.445834    1.644398
     10          5           0       -1.701474    0.270596   -0.000009
     11          7           0        1.366194    0.828164   -0.000015
     12          8           0        0.938912    1.994472   -0.000035
     13          8           0        2.558835    0.559719    0.000039
     14          8           0       -2.790207   -0.549460   -0.000007
     15          8           0       -1.847795    1.616140   -0.000020
     16          1           0       -3.619247   -0.052634   -0.000014
     17          1           0       -0.982412    2.063039   -0.000015
 ---------------------------------------------------------------------

 SCF Done:  E(RHF) =  -748.502393643     A.U. after    2 cycles

 The electronic state is 1-A.
 Alpha  occ. eigenvalues --  -69.57049 -20.59508 -20.58829 -20.57407 -20.56195
 Alpha  occ. eigenvalues --  -15.75091 -11.24245 -11.24241  -7.65655  -6.24067
 Alpha  occ. eigenvalues --   -3.99453  -3.99269  -3.99231  -1.65248  -1.49573
 Alpha  occ. eigenvalues --   -1.48896  -1.45020  -1.01789  -0.96317  -0.96153
 Alpha  occ. eigenvalues --   -0.81410  -0.78780  -0.74321  -0.73491  -0.71877
 Alpha  occ. eigenvalues --   -0.65854  -0.61731  -0.59515  -0.58871  -0.58638
 Alpha  occ. eigenvalues --   -0.57783  -0.57594  -0.57298  -0.50110  -0.48952
 Alpha  occ. eigenvalues --   -0.48409  -0.46428  -0.44868  -0.43708
 Alpha virt. eigenvalues --    0.02851   0.03569   0.03590   0.04629   0.05368
 Alpha virt. eigenvalues --    0.05607   0.05926   0.06977   0.07289   0.08088
 Alpha virt. eigenvalues --    0.09251   0.09573   0.10078   0.10407   0.11032

 Mulliken charges:
               1
     1  C   -0.620173
     2  Si   1.629982
     3  H   -0.049621
     4  H    0.018406
     5  H    0.056785
     6  C   -0.620185
     7  H   -0.049621
     8  H    0.056794
     9  H    0.018407
    10  B    1.659441
    11  N    1.838941
    12  O   -1.241480
    13  O   -1.274713
    14  O   -1.239416
    15  O   -1.498422
    16  H    0.569655
    17  H    0.745218
 Sum of Mulliken charges =  -0.00000

 Dipole moment (field-independent basis, Debye):
    X=             -2.1242    Y=             -3.0302    Z=              0.0000  Tot=              3.7006

 Test job not archived.
 1\1\GINC-SE049\SP\RHF\Aug-CC-pVDZ\C2H8B1N1O4Si1\OHZDE\09-Apr-2025\0\\#
 t hf aug-cc-pvdz iop(5/13=1,5/36=2,99/5=2) pseudo=read geom=check gues
 s=(read,tcheck) scf=(maxcycle=1)\\title\\0,1\C,0,0.577718,-1.564744,-1
 .55267\Si,0,0.125464,-0.625708,0.000005\H,0,0.43564,-0.95476,-2.448048
 \H,0,-0.064727,-2.445875,-1.644344\H,0,1.618413,-1.894859,-1.518124\C,
 0,0.577714,-1.564709,1.552701\H,0,0.435641,-0.954702,2.448065\H,0,1.61
 8408,-1.89483,1.518162\H,0,-0.064736,-2.445834,1.644398\B,0,-1.701474,
 0.270596,-0.000009\N,0,1.366194,0.828164,-0.000015\O,0,0.938912,1.9944

 Normal termination of Gaussian 16 at Wed Apr  9 00:47:11 2025.
