 Gaussian 16, Revision C.01,

 ----------------------------------------------------------------------
 #t hf aug-cc-pvdz symm=none int=(grid=ultrafine) guess=(read,tcheck) s
 table=(opt,rrhf)
 ----------------------------------------------------------------------
 -----
 title
 -----
 Symbolic Z-matrix:
 Charge =  0 Multiplicity = 1

 SCF Done:  E(RHF) =  -229.745671818     A.U. after   15 cycles
 Normal termination of Gaussian 16 at Tue Apr  8 23:19:46 2025.
 Gaussian 16:  ES64L-G16RevC.01  3-Jul-2019

 ----------------------------------------------------------------------
 #t hf aug-cc-pvdz iop(5/13=1,5/36=2,99/5=2) pseudo=read geom=check gue
 ss=(read,tcheck) scf=(maxcycle=1)
 ----------------------------------------------------------------------
 -----
 title
 -----
 Structure from the checkpoint file:  "BDE49_nonexpt_1102_mol1.chk"
 Charge =  0 Multiplicity = 1

                         Standard orientation:
 ---------------------------------------------------------------------
 Center     Atomic      Atomic             Coordinates (Angstroms)
 Number     Number       Type             X           Y           Z
 ---------------------------------------------------------------------
      1          9           0       -1.249907   -0.238091    0.000005
      2          7           0        1.106730   -0.195801    0.000003
      3          8           0        0.126581    0.618739   -0.000008
      4          1           0        1.244712   -0.718243    0.863676
      5          1           0        1.244694   -0.718246   -0.863672
 ---------------------------------------------------------------------

 SCF Done:  E(RHF) =  -229.968350170     A.U. after    2 cycles

 The electronic state is 1-A.
 Alpha  occ. eigenvalues --  -26.42662 -20.73922 -15.62800  -1.63255  -1.43769
 Alpha  occ. eigenvalues --   -1.12099  -0.83798  -0.78053  -0.68672  -0.60810
 Alpha  occ. eigenvalues --   -0.55561  -0.52316  -0.47126
 Alpha virt. eigenvalues --    0.02506   0.05402   0.07517   0.11555   0.14104
 Alpha virt. eigenvalues --    0.16458   0.18889   0.19800   0.22711   0.23209
 Alpha virt. eigenvalues --    0.26586   0.26725   0.32557   0.34141   0.34385

 Mulliken charges:
               1
     1  F   -0.406410
     2  N    0.683416
     3  O   -0.523296
     4  H    0.123146
     5  H    0.123145
 Sum of Mulliken charges =  -0.00000

 Dipole moment (field-independent basis, Debye):
    X=              3.2567    Y=             -1.4016    Z=              0.0000  Tot=              3.5455

 Test job not archived.
 1\1\GINC-SE090\SP\RHF\Aug-CC-pVDZ\F1H2N1O1\OHZDE\08-Apr-2025\0\\#t hf
 aug-cc-pvdz iop(5/13=1,5/36=2,99/5=2) pseudo=read geom=check guess=(re
 ad,tcheck) scf=(maxcycle=1)\\title\\0,1\F,0,-1.249907,-0.238091,0.0000
 05\N,0,1.10673,-0.195801,0.000003\O,0,0.126581,0.618739,-0.000008\H,0,
 1.244712,-0.718243,0.863676\H,0,1.244694,-0.718246,-0.863672\\Version=
 ES64L-G16RevC.01\State=1-A\HF=-229.9683502\RMSD=1.039e-02\Dipole=1.281
 2864,-0.5514498,0.0000023\Quadrupole=-1.351633,0.2261509,1.1254822,-2.
 2013102,0.0000441,-0.0000045\PG=C01 [X(F1H2N1O1)]\\@

 Normal termination of Gaussian 16 at Tue Apr  8 23:19:47 2025.
