 Gaussian 16, Revision C.01,

 ----------------------------------------------------------------------
 #t hf aug-cc-pvdz symm=none int=(grid=ultrafine) guess=(read,tcheck) s
 table=(opt,rrhf)
 ----------------------------------------------------------------------
 -----
 title
 -----
 Symbolic Z-matrix:
 Charge =  0 Multiplicity = 1

 SCF Done:  E(RHF) =  -746.509736464     A.U. after   15 cycles
 Normal termination of Gaussian 16 at Tue Apr  8 23:17:49 2025.
 Gaussian 16:  ES64L-G16RevC.01  3-Jul-2019

 ----------------------------------------------------------------------
 #t hf aug-cc-pvdz iop(5/13=1,5/36=2,99/5=2) pseudo=read geom=check gue
 ss=(read,tcheck) scf=(maxcycle=1)
 ----------------------------------------------------------------------
 -----
 title
 -----
 Structure from the checkpoint file:  "BDE49_nonexpt_1046_mol1.chk"
 Charge =  0 Multiplicity = 1

                         Standard orientation:
 ---------------------------------------------------------------------
 Center     Atomic      Atomic             Coordinates (Angstroms)
 Number     Number       Type             X           Y           Z
 ---------------------------------------------------------------------
      1         17           0       -1.671340    0.315250    0.000000
      2          8           0        0.000000    0.756543    0.000000
      3          6           0        0.839469   -0.308139    0.000000
      4          8           0        0.610772   -1.461392    0.000000
      5          9           0        2.054421    0.236486    0.000000
 ---------------------------------------------------------------------

 SCF Done:  E(RHF) =  -746.848967630     A.U. after    2 cycles

 The electronic state is 1-A'.
 Alpha  occ. eigenvalues -- -105.67120 -26.53957 -20.69829 -20.59805 -11.51900
 Alpha  occ. eigenvalues --  -10.71266  -7.88269  -7.87646  -7.87631  -1.70228
 Alpha  occ. eigenvalues --   -1.57673  -1.53396  -1.09251  -0.89412  -0.81329
 Alpha  occ. eigenvalues --   -0.76945  -0.76640  -0.67138  -0.66047  -0.63591
 Alpha  occ. eigenvalues --   -0.56138  -0.52819  -0.51927  -0.49373
 Alpha virt. eigenvalues --    0.02988   0.07280   0.08863   0.09351   0.10220
 Alpha virt. eigenvalues --    0.13776   0.13921   0.14395   0.16483   0.20202
 Alpha virt. eigenvalues --    0.22122   0.23804   0.24909   0.27553   0.28061

 Mulliken charges:
               1
     1  Cl   0.423517
     2  O   -1.016035
     3  C    1.970779
     4  O   -0.806918
     5  F   -0.571343
 Sum of Mulliken charges =  -0.00000

 Dipole moment (field-independent basis, Debye):
    X=             -0.9213    Y=              1.0995    Z=              0.0000  Tot=              1.4345

 Test job not archived.
 1\1\GINC-SE166\SP\RHF\Aug-CC-pVDZ\C1Cl1F1O2\OHZDE\08-Apr-2025\0\\#t hf
  aug-cc-pvdz iop(5/13=1,5/36=2,99/5=2) pseudo=read geom=check guess=(r
 ead,tcheck) scf=(maxcycle=1)\\title\\0,1\Cl,0,-1.67134,0.31525,0.\O,0,
 0.,0.756543,0.\C,0,0.839469,-0.308139,0.\O,0,0.610772,-1.461392,0.\F,0
 ,2.054421,0.236486,0.\\Version=ES64L-G16RevC.01\State=1-A'\HF=-746.848
 9676\RMSD=6.148e-03\Dipole=-0.3624565,0.4325889,0.\Quadrupole=1.822799
 8,-2.8252389,1.0024391,0.4876159,0.,0.\PG=CS [SG(C1Cl1F1O2)]\\@

 Normal termination of Gaussian 16 at Tue Apr  8 23:17:51 2025.
