 Gaussian 16, Revision C.01,

 ----------------------------------------------------------------------
 #t hf aug-cc-pvdz symm=none int=(grid=ultrafine) guess=(read,tcheck) s
 table=(opt,rrhf)
 ----------------------------------------------------------------------
 -----
 title
 -----
 Symbolic Z-matrix:
 Charge =  0 Multiplicity = 1

 SCF Done:  E(RHF) =  -1433.67916149     A.U. after   14 cycles
 Normal termination of Gaussian 16 at Tue Apr  8 23:58:23 2025.
 Gaussian 16:  ES64L-G16RevC.01  3-Jul-2019

 ----------------------------------------------------------------------
 #t hf aug-cc-pvdz iop(5/13=1,5/36=2,99/5=2) pseudo=read geom=check gue
 ss=(read,tcheck) scf=(maxcycle=1)
 ----------------------------------------------------------------------
 -----
 title
 -----
 Structure from the checkpoint file:  "BDE49_nonexpt_205_mol1.chk"
 Charge =  0 Multiplicity = 1

                         Standard orientation:
 ---------------------------------------------------------------------
 Center     Atomic      Atomic             Coordinates (Angstroms)
 Number     Number       Type             X           Y           Z
 ---------------------------------------------------------------------
      1         17           0        1.794343   -1.524336    0.000002
      2         17           0        1.794341    1.524337    0.000002
      3          5           0        0.909167    0.000000    0.000002
      4          7           0       -0.489284   -0.000001    0.000002
      5          6           0       -1.684095   -0.000004   -0.000001
      6         16           0       -3.251494    0.000001   -0.000005
 ---------------------------------------------------------------------

 SCF Done:  E(RHF) =  -1433.99696895     A.U. after    2 cycles

 The electronic state is 1-A.
 Alpha  occ. eigenvalues -- -105.59099-105.59099 -93.98010 -15.56467 -11.42511
 Alpha  occ. eigenvalues --  -10.64130 -10.64091  -8.26294  -7.81019  -7.80993
 Alpha  occ. eigenvalues --   -7.80705  -7.80703  -7.80669  -7.80660  -7.76878
 Alpha  occ. eigenvalues --   -6.24177  -6.23753  -6.23717  -1.32040  -1.12859
 Alpha  occ. eigenvalues --   -1.10449  -1.07484  -0.93353  -0.67100  -0.66450
 Alpha  occ. eigenvalues --   -0.64456  -0.64153  -0.57298  -0.53646  -0.51676
 Alpha  occ. eigenvalues --   -0.49225  -0.47958  -0.41574  -0.40891
 Alpha virt. eigenvalues --    0.02158   0.03988   0.05466   0.05591   0.05722
 Alpha virt. eigenvalues --    0.06938   0.08145   0.10611   0.11864   0.12299
 Alpha virt. eigenvalues --    0.13606   0.13871   0.14643   0.15328   0.15510

 Mulliken charges:
               1
     1  Cl  -0.290170
     2  Cl  -0.290170
     3  B    0.333321
     4  N    0.810533
     5  C   -0.975202
     6  S    0.411687
 Sum of Mulliken charges =   0.00000

 Dipole moment (field-independent basis, Debye):
    X=             -0.4647    Y=             -0.0000    Z=             -0.0000  Tot=              0.4647

 Test job not archived.
 1\1\GINC-SE423\SP\RHF\Aug-CC-pVDZ\C1B1Cl2N1S1\OHZDE\08-Apr-2025\0\\#t
 hf aug-cc-pvdz iop(5/13=1,5/36=2,99/5=2) pseudo=read geom=check guess=
 (read,tcheck) scf=(maxcycle=1)\\title\\0,1\Cl,0,-1.794343,1.524336,0.0
 00002\Cl,0,-1.794341,-1.524337,0.000002\B,0,-0.909167,0.,0.000002\N,0,
 0.489284,0.000001,0.000002\C,0,1.684095,0.000004,-0.000001\S,0,3.25149
 4,0.,-0.000005\\Version=ES64L-G16RevC.01\State=1-A\HF=-1433.996969\RMS
 D=1.241e-02\Dipole=0.1828443,0.0000007,-0.0000004\Quadrupole=0.0042166
 ,-0.7191451,0.7149286,-0.000002,-0.0000021,0.\PG=C01 [X(C1B1Cl2N1S1)]\

 Normal termination of Gaussian 16 at Tue Apr  8 23:58:26 2025.
