 Gaussian 16, Revision C.01,

 ----------------------------------------------------------------------
 #t hf aug-cc-pvdz symm=none int=(grid=ultrafine) guess=(read,tcheck) s
 table=(opt,rrhf)
 ----------------------------------------------------------------------
 -----
 title
 -----
 Symbolic Z-matrix:
 Charge =  0 Multiplicity = 1

 SCF Done:  E(RHF) =  -693.706804592     A.U. after   13 cycles
 Normal termination of Gaussian 16 at Tue Apr  8 23:50:54 2025.
 Gaussian 16:  ES64L-G16RevC.01  3-Jul-2019

 ----------------------------------------------------------------------
 #t hf aug-cc-pvdz iop(5/13=1,5/36=2,99/5=2) pseudo=read geom=check gue
 ss=(read,tcheck) scf=(maxcycle=1)
 ----------------------------------------------------------------------
 -----
 title
 -----
 Structure from the checkpoint file:  "BDE49_nonexpt_1878_mol1.chk"
 Charge =  0 Multiplicity = 1

                         Standard orientation:
 ---------------------------------------------------------------------
 Center     Atomic      Atomic             Coordinates (Angstroms)
 Number     Number       Type             X           Y           Z
 ---------------------------------------------------------------------
      1          6           0       -1.113584    0.748182    0.671937
      2         14           0        0.424004    1.135510   -0.377011
      3          6           0       -2.010820   -0.250754    0.032185
      4          8           0       -3.141985   -0.162385   -0.297244
      5          9           0       -1.318347   -1.420983   -0.205553
      6          6           0        1.790623   -0.117846    0.198480
      7          1           0        0.904697    2.496182   -0.044282
      8          1           0        0.131257    1.057701   -1.826384
      9          8           0        1.765643   -0.426407    1.373102
     10          6           0        2.838255   -0.646784   -0.752808
     11          1           0        3.349352    0.182534   -1.254020
     12          1           0        2.351554   -1.238170   -1.536128
     13          1           0        3.560425   -1.264066   -0.216360
     14          1           0       -1.686060    1.645008    0.905329
     15          1           0       -0.698270    0.326067    1.594355
 ---------------------------------------------------------------------

 SCF Done:  E(RHF) =  -694.133985113     A.U. after    2 cycles

 The electronic state is 1-A.
 Alpha  occ. eigenvalues --  -69.56570 -26.49197 -20.57329 -20.56173 -11.44088
 Alpha  occ. eigenvalues --  -11.34626 -11.26882 -11.25874  -6.23642  -3.98995
 Alpha  occ. eigenvalues --   -3.98977  -3.98971  -1.62970  -1.51201  -1.48798
 Alpha  occ. eigenvalues --   -1.05579  -1.02929  -0.84498  -0.81622  -0.74078
 Alpha  occ. eigenvalues --   -0.72254  -0.71817  -0.69357  -0.65062  -0.63654
 Alpha  occ. eigenvalues --   -0.62135  -0.61353  -0.59000  -0.55730  -0.55293
 Alpha  occ. eigenvalues --   -0.52815  -0.50589  -0.49693  -0.47279  -0.40022
 Alpha virt. eigenvalues --    0.02659   0.03515   0.04287   0.04704   0.05918
 Alpha virt. eigenvalues --    0.06406   0.06860   0.07850   0.08462   0.08717
 Alpha virt. eigenvalues --    0.09577   0.11140   0.11905   0.12735   0.12995

 Mulliken charges:
               1
     1  C   -0.747321
     2  Si   1.089853
     3  C    1.739814
     4  O   -1.077565
     5  F   -0.746707
     6  C    0.809001
     7  H   -0.173489
     8  H   -0.064711
     9  O   -1.185267
    10  C   -0.569860
    11  H    0.235487
    12  H    0.235899
    13  H    0.146430
    14  H    0.030929
    15  H    0.277507
 Sum of Mulliken charges =  -0.00000

 Dipole moment (field-independent basis, Debye):
    X=              2.7314    Y=              2.1048    Z=             -1.1992  Tot=              3.6509

 Test job not archived.
 1\1\GINC-SE344\SP\RHF\Aug-CC-pVDZ\C4H7F1O2Si1\OHZDE\08-Apr-2025\0\\#t
 hf aug-cc-pvdz iop(5/13=1,5/36=2,99/5=2) pseudo=read geom=check guess=
 (read,tcheck) scf=(maxcycle=1)\\title\\0,1\C,0,-1.113584,0.748182,0.67
 1937\Si,0,0.424004,1.13551,-0.377011\C,0,-2.01082,-0.250754,0.032185\O
 ,0,-3.141985,-0.162385,-0.297244\F,0,-1.318347,-1.420983,-0.205553\C,0
 ,1.790623,-0.117846,0.19848\H,0,0.904697,2.496182,-0.044282\H,0,0.1312
 57,1.057701,-1.826384\O,0,1.765643,-0.426407,1.373102\C,0,2.838255,-0.
 646784,-0.752808\H,0,3.349352,0.182534,-1.25402\H,0,2.351554,-1.23817,

 Normal termination of Gaussian 16 at Tue Apr  8 23:51:00 2025.
