 Gaussian 16, Revision C.01,

 ----------------------------------------------------------------------
 #t hf aug-cc-pvdz symm=none int=(grid=ultrafine) guess=(read,tcheck) s
 table=opt
 ----------------------------------------------------------------------
 -----
 title
 -----
 Symbolic Z-matrix:
 Charge =  0 Multiplicity = 2

 SCF Done:  E(UHF) =  -485.835584621     A.U. after   15 cycles
 Normal termination of Gaussian 16 at Tue Apr  8 23:45:59 2025.
 Gaussian 16:  ES64L-G16RevC.01  3-Jul-2019

 ----------------------------------------------------------------------
 #t hf aug-cc-pvdz iop(5/13=1,5/36=2,99/5=2) pseudo=read geom=check gue
 ss=(read,tcheck) scf=(maxcycle=1)
 ----------------------------------------------------------------------
 -----
 title
 -----
 Structure from the checkpoint file:  "BDE49_nonexpt_1743_mol2.chk"
 Charge =  0 Multiplicity = 2

                         Standard orientation:
 ---------------------------------------------------------------------
 Center     Atomic      Atomic             Coordinates (Angstroms)
 Number     Number       Type             X           Y           Z
 ---------------------------------------------------------------------
      1         14           0       -2.003699   -0.517992    0.241428
      2          6           0       -0.251444   -0.887459   -0.381579
      3          6           0        0.846677    0.039918    0.180919
      4          1           0       -0.255767   -0.835961   -1.477351
      5          1           0       -0.017612   -1.929055   -0.130726
      6          6           0       -2.606893    1.202726   -0.255127
      7          1           0       -1.965323    1.982486    0.170996
      8          1           0       -3.624506    1.375358    0.104269
      9          1           0       -2.608439    1.322616   -1.341840
     10          6           0        2.254031   -0.308318   -0.325267
     11          1           0        0.839741   -0.005014    1.276764
     12          1           0        0.623203    1.081104   -0.081488
     13          6           0        3.341198    0.614090    0.233723
     14          1           0        2.261600   -0.264203   -1.420939
     15          1           0        2.481771   -1.347788   -0.060764
     16          1           0        3.157565    1.656681   -0.044311
     17          1           0        4.329975    0.339713   -0.144006
     18          1           0        3.378161    0.565417    1.326479
     19          1           0       -2.049997   -0.655202    1.726910
 ---------------------------------------------------------------------

 SCF Done:  E(UHF) =  -486.088123295     A.U. after    2 cycles

 The electronic state is 2-A.
 Alpha  occ. eigenvalues --  -69.52107 -11.23277 -11.22739 -11.22284 -11.21907
 Alpha  occ. eigenvalues --  -11.21825  -6.19216  -3.95152  -3.94261  -3.94249
 Alpha  occ. eigenvalues --   -1.07537  -0.98648  -0.94818  -0.86574  -0.79694
 Alpha  occ. eigenvalues --   -0.68213  -0.64800  -0.59429  -0.58338  -0.56543
 Alpha  occ. eigenvalues --   -0.56451  -0.54778  -0.50966  -0.50507  -0.48276
 Alpha  occ. eigenvalues --   -0.47243  -0.45715  -0.42865  -0.31252
 Alpha virt. eigenvalues --    0.03490   0.03613   0.03788   0.03895   0.05232
 Alpha virt. eigenvalues --    0.05788   0.06015   0.06728   0.07548   0.08107
 Alpha virt. eigenvalues --    0.08558   0.09066   0.09586   0.10785   0.11013

  Beta  occ. eigenvalues --  -69.51565 -11.23185 -11.22715 -11.22280 -11.21854
  Beta  occ. eigenvalues --  -11.21773  -6.18395  -3.93895  -3.93883  -3.93036
  Beta  occ. eigenvalues --   -1.07330  -0.98275  -0.94312  -0.86265  -0.79553
  Beta  occ. eigenvalues --   -0.65019  -0.64368  -0.59067  -0.58210  -0.56279
  Beta  occ. eigenvalues --   -0.55516  -0.54553  -0.50862  -0.50025  -0.48050
  Beta  occ. eigenvalues --   -0.47196  -0.44921  -0.42078
  Beta virt. eigenvalues --    0.02927   0.03542   0.03777   0.03905   0.05232
  Beta virt. eigenvalues --    0.05444   0.06042   0.06389   0.07332   0.07775
  Beta virt. eigenvalues --    0.08272   0.08765   0.09208   0.10115   0.10806

 Mulliken charges and spin densities:
               1          2
     1  Si   1.079910   1.014755
     2  C   -0.605927  -0.021488
     3  C   -0.268681   0.004750
     4  H    0.149762  -0.004056
     5  H    0.067767   0.001613
     6  C   -0.649687  -0.006391
     7  H    0.057863   0.011746
     8  H   -0.008287  -0.014126
     9  H    0.091515  -0.004792
    10  C   -0.275421   0.000807
    11  H    0.091907  -0.008531
    12  H    0.087573  -0.003578
    13  C   -0.379926   0.000775
    14  H    0.120805   0.000211
    15  H    0.120749  -0.000251
    16  H    0.162894   0.000258
    17  H    0.114827   0.000119
    18  H    0.165563   0.000016
    19  H   -0.123205   0.028165
 Sum of Mulliken charges =   0.00000   1.00000

 Dipole moment (field-independent basis, Debye):
    X=              0.6135    Y=              0.5019    Z=             -0.4124  Tot=              0.8935
                          Isotropic Fermi Contact Couplings
        Atom                 a.u.       MegaHertz       Gauss      10(-4) cm-1
     1  Si(29)             0.55548    -493.67129    -176.15419    -164.67102
     2  C(13)              0.01547      17.38588       6.20371       5.79931
     3  C(13)              0.02202      24.75218       8.83219       8.25644
     4  H(1)               0.00009       0.40257       0.14365       0.13428
     5  H(1)               0.00037       1.63677       0.58404       0.54597
     6  C(13)              0.01334      14.99120       5.34923       5.00053
     7  H(1)               0.00957      42.79496      15.27030      14.27486
     8  H(1)               0.00033       1.48961       0.53153       0.49688

 Normal termination of Gaussian 16 at Tue Apr  8 23:46:07 2025.
