 Gaussian 16, Revision C.01,

 ----------------------------------------------------------------------
 #t hf aug-cc-pvdz symm=none int=(grid=ultrafine) guess=(read,tcheck) s
 table=(opt,rrhf)
 ----------------------------------------------------------------------
 -----
 title
 -----
 Symbolic Z-matrix:
 Charge =  0 Multiplicity = 1

 SCF Done:  E(RHF) =  -905.695990270     A.U. after   15 cycles
 Normal termination of Gaussian 16 at Wed Apr  9 00:10:42 2025.
 Gaussian 16:  ES64L-G16RevC.01  3-Jul-2019

 ----------------------------------------------------------------------
 #t hf aug-cc-pvdz iop(5/13=1,5/36=2,99/5=2) pseudo=read geom=check gue
 ss=(read,tcheck) scf=(maxcycle=1)
 ----------------------------------------------------------------------
 -----
 title
 -----
 Structure from the checkpoint file:  "BDE49_nonexpt_2352_mol1.chk"
 Charge =  0 Multiplicity = 1

                         Standard orientation:
 ---------------------------------------------------------------------
 Center     Atomic      Atomic             Coordinates (Angstroms)
 Number     Number       Type             X           Y           Z
 ---------------------------------------------------------------------
      1         14           0        0.485480   -1.134664   -0.620562
      2         14           0       -1.628552   -0.772305    0.351566
      3          6           0        1.704680    0.183097    0.063122
      4          8           0        2.545818    0.803924   -0.482311
      5          1           0        0.486500   -1.029889   -2.092071
      6          1           0        1.037779   -2.442746   -0.199909
      7          9           0        1.502713    0.343810    1.429781
      8          6           0       -2.032164    1.086877   -0.003378
      9          1           0       -1.633671   -1.016206    1.813668
     10          1           0       -2.685508   -1.612314   -0.266483
     11          8           0       -1.269329    1.764132   -0.655589
     12          1           0       -2.973528    1.540139    0.387442
 ---------------------------------------------------------------------

 SCF Done:  E(RHF) =  -906.068289036     A.U. after    2 cycles

 The electronic state is 1-A.
 Alpha  occ. eigenvalues --  -69.56976 -69.56314 -26.48378 -20.58078 -20.57915
 Alpha  occ. eigenvalues --  -11.42003 -11.35318  -6.24135  -6.23548  -3.99504
 Alpha  occ. eigenvalues --   -3.99446  -3.99439  -3.98880  -3.98862  -3.98856
 Alpha  occ. eigenvalues --   -1.61801  -1.51184  -1.49959  -0.89271  -0.87530
 Alpha  occ. eigenvalues --   -0.79480  -0.74739  -0.70973  -0.68556  -0.67876
 Alpha  occ. eigenvalues --   -0.67311  -0.61385  -0.57473  -0.56082  -0.54431
 Alpha  occ. eigenvalues --   -0.52205  -0.50954  -0.47185  -0.44303  -0.40898
 Alpha virt. eigenvalues --    0.02723   0.03247   0.04265   0.04963   0.05835
 Alpha virt. eigenvalues --    0.06387   0.06844   0.07410   0.07555   0.08532
 Alpha virt. eigenvalues --    0.09176   0.10045   0.10187   0.10825   0.12385

 Mulliken charges:
               1
     1  Si   0.676412
     2  Si   0.816054
     3  C    1.189144
     4  O   -0.995313
     5  H   -0.083079
     6  H   -0.142406
     7  F   -0.668690
     8  C    0.350615
     9  H   -0.118950
    10  H   -0.175605
    11  O   -0.854629
    12  H    0.006446
 Sum of Mulliken charges =  -0.00000

 Dipole moment (field-independent basis, Debye):
    X=             -3.7140    Y=             -3.3365    Z=              0.4998  Tot=              5.0176

 Test job not archived.
 1\1\GINC-SE250\SP\RHF\Aug-CC-pVDZ\C2H5F1O2Si2\OHZDE\09-Apr-2025\0\\#t
 hf aug-cc-pvdz iop(5/13=1,5/36=2,99/5=2) pseudo=read geom=check guess=
 (read,tcheck) scf=(maxcycle=1)\\title\\0,1\Si,0,0.48548,-1.134664,-0.6
 20562\Si,0,-1.628552,-0.772305,0.351566\C,0,1.70468,0.183097,0.063122\
 O,0,2.545818,0.803924,-0.482311\H,0,0.4865,-1.029889,-2.092071\H,0,1.0
 37779,-2.442746,-0.199909\F,0,1.502713,0.34381,1.429781\C,0,-2.032164,
 1.086877,-0.003378\H,0,-1.633671,-1.016206,1.813668\H,0,-2.685508,-1.6
 12314,-0.266483\O,0,-1.269329,1.764132,-0.655589\H,0,-2.973528,1.54013

 Normal termination of Gaussian 16 at Wed Apr  9 00:10:47 2025.
