 Gaussian 16, Revision C.01,

 ----------------------------------------------------------------------
 #t hf aug-cc-pvdz symm=none int=(grid=ultrafine) guess=(read,tcheck) s
 table=(opt,rrhf)
 ----------------------------------------------------------------------
 -----
 title
 -----
 Symbolic Z-matrix:
 Charge =  0 Multiplicity = 1

 SCF Done:  E(RHF) =  -1796.84374251     A.U. after   14 cycles
 Normal termination of Gaussian 16 at Wed Apr  9 00:01:27 2025.
 Gaussian 16:  ES64L-G16RevC.01  3-Jul-2019

 ----------------------------------------------------------------------
 #t hf aug-cc-pvdz iop(5/13=1,5/36=2,99/5=2) pseudo=read geom=check gue
 ss=(read,tcheck) scf=(maxcycle=1)
 ----------------------------------------------------------------------
 -----
 title
 -----
 Structure from the checkpoint file:  "BDE49_nonexpt_2146_mol1.chk"
 Charge =  0 Multiplicity = 1

                         Standard orientation:
 ---------------------------------------------------------------------
 Center     Atomic      Atomic             Coordinates (Angstroms)
 Number     Number       Type             X           Y           Z
 ---------------------------------------------------------------------
      1         14           0       -0.061289    0.000000   -0.026840
      2          7           0        0.940621    0.000000   -1.629317
      3         17           0       -1.222339    1.682517   -0.127165
      4         17           0        1.104107   -0.000002    1.654092
      5         17           0       -1.222341   -1.682516   -0.127167
      6          8           0        2.132931    0.000000   -1.501866
 ---------------------------------------------------------------------

 SCF Done:  E(RHF) =  -1797.22134210     A.U. after    2 cycles

 The electronic state is 1-A.
 Alpha  occ. eigenvalues -- -105.60506-105.60506-105.60482 -69.70977 -20.65991
 Alpha  occ. eigenvalues --  -15.65689 -10.65520 -10.65520 -10.65482  -7.82412
 Alpha  occ. eigenvalues --   -7.82410  -7.82373  -7.82066  -7.82066  -7.82061
 Alpha  occ. eigenvalues --   -7.82059  -7.82025  -7.82024  -6.36597  -4.11945
 Alpha  occ. eigenvalues --   -4.11940  -4.11816  -1.62701  -1.13943  -1.08609
 Alpha  occ. eigenvalues --   -1.08587  -1.00819  -0.78919  -0.71313  -0.69377
 Alpha  occ. eigenvalues --   -0.64634  -0.60704  -0.60233  -0.54348  -0.53258
 Alpha  occ. eigenvalues --   -0.53243  -0.50791  -0.50760  -0.49341  -0.41766
 Alpha virt. eigenvalues --    0.02757   0.04757   0.06141   0.06142   0.06262
 Alpha virt. eigenvalues --    0.09432   0.11291   0.11852   0.13020   0.13359
 Alpha virt. eigenvalues --    0.13496   0.14359   0.15791   0.15956   0.17280

 Mulliken charges:
               1
     1  Si   1.666058
     2  N    0.546474
     3  Cl  -0.458793
     4  Cl  -0.456421
     5  Cl  -0.458793
     6  O   -0.838524
 Sum of Mulliken charges =  -0.00000

 Dipole moment (field-independent basis, Debye):
    X=             -0.4911    Y=              0.0000    Z=              1.1700  Tot=              1.2689

 Test job not archived.
 1\1\GINC-SE339\SP\RHF\Aug-CC-pVDZ\Cl3N1O1Si1\OHZDE\09-Apr-2025\0\\#t h
 f aug-cc-pvdz iop(5/13=1,5/36=2,99/5=2) pseudo=read geom=check guess=(
 read,tcheck) scf=(maxcycle=1)\\title\\0,1\Si,0,-0.061289,0.,-0.02684\N
 ,0,0.940621,0.,-1.629317\Cl,0,-1.222339,1.682517,-0.127165\Cl,0,1.1041
 07,-0.000002,1.654092\Cl,0,-1.222341,-1.682516,-0.127167\O,0,2.132931,
 0.,-1.501866\\Version=ES64L-G16RevC.01\State=1-A\HF=-1797.2213421\RMSD
 =7.278e-03\Dipole=-0.1932051,0.0000011,0.4603229\Quadrupole=-0.0183397
 ,1.7135224,-1.6951826,-0.0000026,1.21989,-0.0000002\PG=C01 [X(Cl3N1O1S

 Normal termination of Gaussian 16 at Wed Apr  9 00:01:30 2025.
