 Gaussian 16, Revision C.01,

 ----------------------------------------------------------------------
 #t hf aug-cc-pvdz symm=none int=(grid=ultrafine) guess=(read,tcheck) s
 table=opt
 ----------------------------------------------------------------------
 -----
 title
 -----
 Symbolic Z-matrix:
 Charge =  0 Multiplicity = 2

 SCF Done:  E(UHF) =  -445.507573563     A.U. after   18 cycles
 Normal termination of Gaussian 16 at Wed Apr  9 00:34:35 2025.
 Gaussian 16:  ES64L-G16RevC.01  3-Jul-2019

 ----------------------------------------------------------------------
 #t hf aug-cc-pvdz iop(5/13=1,5/36=2,99/5=2) pseudo=read geom=check gue
 ss=(read,tcheck) scf=(maxcycle=1)
 ----------------------------------------------------------------------
 -----
 title
 -----
 Structure from the checkpoint file:  "BDE49_nonexpt_426_mol2.chk"
 Charge =  0 Multiplicity = 2

                         Standard orientation:
 ---------------------------------------------------------------------
 Center     Atomic      Atomic             Coordinates (Angstroms)
 Number     Number       Type             X           Y           Z
 ---------------------------------------------------------------------
      1          9           0        2.902132   -0.214969    0.350978
      2          5           0        2.185319    0.779682   -0.125771
      3          8           0        0.843467    0.789508   -0.286419
      4          6           0       -0.011757   -0.324981   -0.156283
      5          8           0        0.392859   -1.455748   -0.222227
      6          7           0       -1.296450    0.072217    0.011513
      7          6           0       -1.745708    1.455971    0.101256
      8          1           0       -2.178830    1.650725    1.088592
      9          1           0       -2.514867    1.644963   -0.654639
     10          1           0       -0.915098    2.133443   -0.062628
     11          6           0       -2.324640   -0.952799    0.146140
     12          1           0       -3.083248   -0.830325   -0.633543
     13          1           0       -2.813313   -0.875391    1.123026
     14          1           0       -1.863256   -1.931848    0.051130
 ---------------------------------------------------------------------

 SCF Done:  E(UHF) =  -445.939268016     A.U. after    2 cycles

 The electronic state is 2-A.
 Alpha  occ. eigenvalues --  -26.47815 -20.60151 -20.52899 -15.54732 -11.43200
 Alpha  occ. eigenvalues --  -11.28636 -11.27954  -7.72364  -1.61533  -1.54934
 Alpha  occ. eigenvalues --   -1.46464  -1.27425  -1.00023  -0.99434  -0.84926
 Alpha  occ. eigenvalues --   -0.77551  -0.76275  -0.71803  -0.70441  -0.68301
 Alpha  occ. eigenvalues --   -0.66762  -0.64449  -0.61107  -0.59394  -0.58489
 Alpha  occ. eigenvalues --   -0.58130  -0.55801  -0.51499  -0.47191  -0.41937
 Alpha  occ. eigenvalues --   -0.37978
 Alpha virt. eigenvalues --    0.03003   0.04288   0.04411   0.05081   0.05260
 Alpha virt. eigenvalues --    0.06122   0.06695   0.06974   0.07828   0.09451
 Alpha virt. eigenvalues --    0.12226   0.12737   0.12917   0.13275   0.14252

  Beta  occ. eigenvalues --  -26.47448 -20.59971 -20.52881 -15.54721 -11.43079
  Beta  occ. eigenvalues --  -11.28638 -11.27949  -7.70136  -1.60481  -1.54522
  Beta  occ. eigenvalues --   -1.46212  -1.27338  -0.99948  -0.99125  -0.83474
  Beta  occ. eigenvalues --   -0.76364  -0.75874  -0.70784  -0.70372  -0.66652
  Beta  occ. eigenvalues --   -0.66442  -0.64014  -0.61149  -0.59227  -0.58322
  Beta  occ. eigenvalues --   -0.58126  -0.55711  -0.51521  -0.46044  -0.41996
  Beta virt. eigenvalues --    0.02898   0.03811   0.04420   0.04533   0.05412
  Beta virt. eigenvalues --    0.06162   0.06738   0.06967   0.07202   0.09320
  Beta virt. eigenvalues --    0.10127   0.12901   0.13061   0.13939   0.14324

 Mulliken charges and spin densities:
               1          2
     1  F   -0.474426   0.027141
     2  B    0.520108   1.070284
     3  O   -1.071314  -0.176873
     4  C    1.041247   0.089568
     5  O   -1.040347  -0.002699
     6  N    0.757549  -0.004698
     7  C   -0.321793  -0.002783
     8  H    0.177818  -0.000872
     9  H    0.163193   0.000129
    10  H    0.070544  -0.004329
    11  C   -0.237753   0.004142
    12  H    0.197906  -0.000225
    13  H    0.205635  -0.000181
    14  H    0.011633   0.001395
 Sum of Mulliken charges =  -0.00000   1.00000

 Dipole moment (field-independent basis, Debye):
    X=             -3.5127    Y=              2.2048    Z=              0.3745  Tot=              4.1642
                          Isotropic Fermi Contact Couplings
        Atom                 a.u.       MegaHertz       Gauss      10(-4) cm-1
     1  F(19)              0.09691     407.75604     145.49749     136.01277
     2  B(11)              0.46760     670.70643     239.32473     223.72358
     3  O(17)              0.16475     -99.87173     -35.63672     -33.31362
     4  C(13)              0.02887      32.46058      11.58274      10.82768
     5  O(17)              0.00248      -1.50612      -0.53742      -0.50239
     6  N(14)              0.00577       1.86488       0.66543       0.62206
     7  C(13)             -0.00031      -0.35169      -0.12549      -0.11731
     8  H(1)              -0.00001      -0.05130      -0.01831      -0.01711

 Normal termination of Gaussian 16 at Wed Apr  9 00:34:40 2025.
