 Gaussian 16, Revision C.01,

 ----------------------------------------------------------------------
 #t hf aug-cc-pvdz symm=none int=(grid=ultrafine) guess=(read,tcheck) s
 table=(opt,rrhf)
 ----------------------------------------------------------------------
 -----
 title
 -----
 Symbolic Z-matrix:
 Charge =  0 Multiplicity = 1

 SCF Done:  E(RHF) =  -232.187387924     A.U. after   12 cycles

 1\1\GINC-SE097\Stability\RHF\Aug-CC-pVDZ\C4H10O1\OHZDE\08-Apr-2025\0\\
 #t hf aug-cc-pvdz symm=none int=(grid=ultrafine) guess=(read,tcheck) s
 table=(opt,rrhf)\\title\\0,1\C,0,2.067206,-0.031219,0.111428\C,0,0.735
 431,-0.685641,-0.263126\C,0,-0.479674,0.029914,0.323502\O,0,-0.472752,
 1.357859,-0.216584\H,0,-1.200825,1.844847,0.180651\H,0,0.719218,-1.727
 715,0.074785\H,0,0.62124,-0.702484,-1.353095\H,0,2.224708,-0.049024,1.
 19478\H,0,2.085388,1.010218,-0.213365\H,0,2.907156,-0.552702,-0.355083
 \C,0,-1.793863,-0.679478,0.000315\H,0,-0.359724,0.080261,1.417769\H,0,

 Normal termination of Gaussian 16 at Tue Apr  8 22:47:44 2025.
 Gaussian 16:  ES64L-G16RevC.01  3-Jul-2019

 ----------------------------------------------------------------------
 #t hf aug-cc-pvdz iop(5/13=1,5/36=2,99/5=2) pseudo=read geom=check gue
 ss=(read,tcheck) scf=(maxcycle=1)
 ----------------------------------------------------------------------
 -----
 title
 -----
 Structure from the checkpoint file:  "BDE49_expt_162_mol1.chk"
 Charge =  0 Multiplicity = 1

                         Standard orientation:
 ---------------------------------------------------------------------
 Center     Atomic      Atomic             Coordinates (Angstroms)
 Number     Number       Type             X           Y           Z
 ---------------------------------------------------------------------
      1          6           0        2.067206   -0.031219    0.111428
      2          6           0        0.735431   -0.685641   -0.263126
      3          6           0       -0.479674    0.029914    0.323502
      4          8           0       -0.472752    1.357859   -0.216584
      5          1           0       -1.200825    1.844847    0.180651
      6          1           0        0.719218   -1.727715    0.074785
      7          1           0        0.621240   -0.702484   -1.353095
      8          1           0        2.224708   -0.049024    1.194780
      9          1           0        2.085388    1.010218   -0.213365
     10          1           0        2.907156   -0.552702   -0.355083
     11          6           0       -1.793863   -0.679478    0.000315
     12          1           0       -0.359724    0.080261    1.417769
     13          1           0       -1.935601   -0.736792   -1.082274
     14          1           0       -2.645063   -0.137309    0.425333
     15          1           0       -1.809082   -1.693634    0.410462
 ---------------------------------------------------------------------

 SCF Done:  E(RHF) =  -232.440917763     A.U. after    2 cycles

 The electronic state is 1-A.
 Alpha  occ. eigenvalues --  -20.54203 -11.28470 -11.22737 -11.22445 -11.21533
 Alpha  occ. eigenvalues --   -1.44153  -1.06289  -0.98476  -0.86951  -0.78860
 Alpha  occ. eigenvalues --   -0.70145  -0.62819  -0.60384  -0.58559  -0.56655
 Alpha  occ. eigenvalues --   -0.54118  -0.51211  -0.50096  -0.48577  -0.46359
 Alpha  occ. eigenvalues --   -0.43309
 Alpha virt. eigenvalues --    0.03464   0.04086   0.04136   0.04553   0.06408
 Alpha virt. eigenvalues --    0.06438   0.06963   0.07078   0.09473   0.10103
 Alpha virt. eigenvalues --    0.11883   0.12952   0.14528   0.15987   0.16350

 Mulliken charges:
               1
     1  C   -0.378905
     2  C   -0.299927
     3  C    0.592988
     4  O   -1.297148
     5  H    0.286872
     6  H    0.147306
     7  H    0.146152
     8  H    0.152159
     9  H    0.209834
    10  H    0.125800
    11  C   -0.319982
    12  H    0.133901
    13  H    0.222924
    14  H    0.095456
    15  H    0.182570
 Sum of Mulliken charges =  -0.00000

 Dipole moment (field-independent basis, Debye):
    X=             -1.0743    Y=             -0.6343    Z=              1.0342  Tot=              1.6205

 Test job not archived.
 1\1\GINC-SE097\SP\RHF\Aug-CC-pVDZ\C4H10O1\OHZDE\08-Apr-2025\0\\#t hf a
 ug-cc-pvdz iop(5/13=1,5/36=2,99/5=2) pseudo=read geom=check guess=(rea
 d,tcheck) scf=(maxcycle=1)\\title\\0,1\C,0,2.067206,-0.031219,0.111428
 \C,0,0.735431,-0.685641,-0.263126\C,0,-0.479674,0.029914,0.323502\O,0,
 -0.472752,1.357859,-0.216584\H,0,-1.200825,1.844847,0.180651\H,0,0.719
 218,-1.727715,0.074785\H,0,0.62124,-0.702484,-1.353095\H,0,2.224708,-0
 .049024,1.19478\H,0,2.085388,1.010218,-0.213365\H,0,2.907156,-0.552702
 ,-0.355083\C,0,-1.793863,-0.679478,0.000315\H,0,-0.359724,0.080261,1.4

 Normal termination of Gaussian 16 at Tue Apr  8 22:47:48 2025.
