 Gaussian 16, Revision C.01,

 ----------------------------------------------------------------------
 #t hf aug-cc-pvdz symm=none int=(grid=ultrafine) guess=(read,tcheck) s
 table=opt
 ----------------------------------------------------------------------
 -----
 title
 -----
 Symbolic Z-matrix:
 Charge =  0 Multiplicity = 2

 SCF Done:  E(UHF) =  -280.866663773     A.U. after   16 cycles
 Normal termination of Gaussian 16 at Wed Apr  9 00:32:46 2025.
 Gaussian 16:  ES64L-G16RevC.01  3-Jul-2019

 ----------------------------------------------------------------------
 #t hf aug-cc-pvdz iop(5/13=1,5/36=2,99/5=2) pseudo=read geom=check gue
 ss=(read,tcheck) scf=(maxcycle=1)
 ----------------------------------------------------------------------
 -----
 title
 -----
 Structure from the checkpoint file:  "BDE49_nonexpt_372_mol2.chk"
 Charge =  0 Multiplicity = 2

                         Standard orientation:
 ---------------------------------------------------------------------
 Center     Atomic      Atomic             Coordinates (Angstroms)
 Number     Number       Type             X           Y           Z
 ---------------------------------------------------------------------
      1          9           0        1.922434   -1.219940   -0.178395
      2          5           0        2.072994   -0.003415    0.313878
      3          6           0        1.030874    1.146422    0.111700
      4          6           0       -0.340738    0.743045   -0.470362
      5          1           0        0.914296    1.692239    1.056217
      6          6           0       -1.187482   -0.104390    0.486912
      7          1           0       -0.192321    0.190167   -1.404773
      8          1           0       -0.898436    1.649423   -0.734948
      9          6           0       -2.557058   -0.472356   -0.090246
     10          1           0       -1.322063    0.442776    1.428062
     11          1           0       -0.641909   -1.020807    0.738406
     12          1           0       -3.142218    0.422927   -0.322640
     13          1           0       -3.137290   -1.074659    0.613830
     14          1           0       -2.453905   -1.049411   -1.014327
     15          1           0        1.533394    1.867553   -0.551693
 ---------------------------------------------------------------------

 SCF Done:  E(UHF) =  -281.154005973     A.U. after    2 cycles

 The electronic state is 2-A.
 Alpha  occ. eigenvalues --  -26.47567 -11.23587 -11.23031 -11.22655 -11.22453
 Alpha  occ. eigenvalues --   -7.67333  -1.60680  -1.08138  -0.99535  -0.88256
 Alpha  occ. eigenvalues --   -0.80465  -0.76873  -0.69493  -0.65904  -0.63983
 Alpha  occ. eigenvalues --   -0.60153  -0.59527  -0.57468  -0.54001  -0.51360
 Alpha  occ. eigenvalues --   -0.49384  -0.47627  -0.47231  -0.34321
 Alpha virt. eigenvalues --    0.03426   0.03607   0.03882   0.04147   0.05835
 Alpha virt. eigenvalues --    0.06175   0.06359   0.06817   0.07896   0.09116
 Alpha virt. eigenvalues --    0.09322   0.09944   0.12205   0.13066   0.13609

  Beta  occ. eigenvalues --  -26.47241 -11.23494 -11.23039 -11.22450 -11.22368
  Beta  occ. eigenvalues --   -7.65462  -1.59771  -1.07843  -0.99010  -0.87651
  Beta  occ. eigenvalues --   -0.80071  -0.75668  -0.67029  -0.65817  -0.63225
  Beta  occ. eigenvalues --   -0.59678  -0.59177  -0.56678  -0.53015  -0.50308
  Beta  occ. eigenvalues --   -0.48774  -0.47546  -0.46835
  Beta virt. eigenvalues --    0.03018   0.03587   0.03838   0.04012   0.05949
  Beta virt. eigenvalues --    0.06096   0.06394   0.06891   0.07950   0.09003
  Beta virt. eigenvalues --    0.09461   0.09612   0.10450   0.13085   0.13768

 Mulliken charges and spin densities:
               1          2
     1  F   -0.536366  -0.047407
     2  B    0.599288   1.022529
     3  C   -0.146800   0.039980
     4  C   -0.378958   0.005126
     5  H    0.134656  -0.005827
     6  C   -0.277018   0.006282
     7  H    0.089522  -0.002390
     8  H    0.128019  -0.000151
     9  C   -0.424341   0.001627
    10  H    0.120489  -0.002952
    11  H    0.071548   0.000185
    12  H    0.162934   0.000190
    13  H    0.117094   0.000203
    14  H    0.172240   0.000078
    15  H    0.167693  -0.017473
 Sum of Mulliken charges =  -0.00000   1.00000

 Dipole moment (field-independent basis, Debye):
    X=             -0.9207    Y=              1.0866    Z=             -0.0961  Tot=              1.4275
                          Isotropic Fermi Contact Couplings
        Atom                 a.u.       MegaHertz       Gauss      10(-4) cm-1
     1  F(19)              0.07556     317.90741     113.43727     106.04250
     2  B(11)              0.31733     455.16572     162.41445     151.82694
     3  C(13)              0.06988      78.56195      28.03286      26.20545
     4  C(13)              0.01796      20.18560       7.20272       6.73319
     5  H(1)              -0.00069      -3.07913      -1.09871      -1.02709
     6  C(13)             -0.00149      -1.67417      -0.59739      -0.55844
     7  H(1)              -0.00059      -2.63955      -0.94186      -0.88046
     8  H(1)               0.00156       6.95217       2.48071       2.31899

 Normal termination of Gaussian 16 at Wed Apr  9 00:32:56 2025.
