 Gaussian 16, Revision C.01,

 ----------------------------------------------------------------------
 #t hf aug-cc-pvdz symm=none int=(grid=ultrafine) guess=(read,tcheck) s
 table=opt
 ----------------------------------------------------------------------
 -----
 title
 -----
 Symbolic Z-matrix:
 Charge =  0 Multiplicity = 2

 SCF Done:  E(UHF) =  -788.660208098     A.U. after   15 cycles
 Normal termination of Gaussian 16 at Tue Apr  8 23:45:13 2025.
 Gaussian 16:  ES64L-G16RevC.01  3-Jul-2019

 ----------------------------------------------------------------------
 #t hf aug-cc-pvdz iop(5/13=1,5/36=2,99/5=2) pseudo=read geom=check gue
 ss=(read,tcheck) scf=(maxcycle=1)
 ----------------------------------------------------------------------
 -----
 title
 -----
 Structure from the checkpoint file:  "BDE49_nonexpt_1756_mol2.chk"
 Charge =  0 Multiplicity = 2

                         Standard orientation:
 ---------------------------------------------------------------------
 Center     Atomic      Atomic             Coordinates (Angstroms)
 Number     Number       Type             X           Y           Z
 ---------------------------------------------------------------------
      1          6           0       -1.813674   -0.623523    0.043751
      2         14           0       -0.456184    0.661933   -0.132203
      3          1           0       -1.761951   -1.366744   -0.754420
      4          1           0       -2.791317   -0.134602    0.001258
      5          1           0       -1.722665   -1.138607    1.005511
      6         17           0        1.415167   -0.267948    0.022083
      7          1           0       -0.513293    1.669150    0.960579
 ---------------------------------------------------------------------

 SCF Done:  E(UHF) =  -788.812218535     A.U. after    2 cycles

 The electronic state is 2-A.
 Alpha  occ. eigenvalues -- -105.55472 -69.58396 -11.24080 -10.60457  -7.77378
 Alpha  occ. eigenvalues --   -7.77081  -7.77006  -6.25118  -4.00927  -4.00194
 Alpha  occ. eigenvalues --   -4.00023  -1.05258  -0.97104  -0.71375  -0.59159
 Alpha  occ. eigenvalues --   -0.58882  -0.52592  -0.51690  -0.48886  -0.45188
 Alpha  occ. eigenvalues --   -0.34591
 Alpha virt. eigenvalues --    0.03361   0.04594   0.04948   0.05181   0.07684
 Alpha virt. eigenvalues --    0.07849   0.08306   0.11881   0.13883   0.14440
 Alpha virt. eigenvalues --    0.15361   0.15629   0.16427   0.17160   0.18631

  Beta  occ. eigenvalues -- -105.55388 -69.57826 -11.23938 -10.60365  -7.77235
  Beta  occ. eigenvalues --   -7.76959  -7.76847  -6.24227  -3.99824  -3.99664
  Beta  occ. eigenvalues --   -3.98818  -1.04420  -0.96389  -0.67413  -0.58823
  Beta  occ. eigenvalues --   -0.57843  -0.51400  -0.50783  -0.47199  -0.44531
  Beta virt. eigenvalues --    0.02023   0.03923   0.04746   0.05240   0.05724
  Beta virt. eigenvalues --    0.07860   0.08096   0.08988   0.12748   0.14425
  Beta virt. eigenvalues --    0.15012   0.15890   0.16184   0.17501   0.17961

 Mulliken charges and spin densities:
               1          2
     1  C   -0.677551   0.049055
     2  Si   1.216327   0.847458
     3  H    0.094023  -0.001123
     4  H    0.048230  -0.001659
     5  H    0.083872   0.008377
     6  Cl  -0.580255   0.030095
     7  H   -0.184645   0.067796
 Sum of Mulliken charges =   0.00000   1.00000

 Dipole moment (field-independent basis, Debye):
    X=             -2.2449    Y=              0.1617    Z=              0.0239  Tot=              2.2508
                          Isotropic Fermi Contact Couplings
        Atom                 a.u.       MegaHertz       Gauss      10(-4) cm-1
     1  C(13)              0.02848      32.01770      11.42471      10.67995
     2  Si(29)             0.71544    -635.83138    -226.88045    -212.09052
     3  H(1)              -0.00010      -0.45401      -0.16200      -0.15144
     4  H(1)              -0.00094      -4.22301      -1.50687      -1.40864
     5  H(1)               0.00856      38.25190      13.64923      12.75946
     6  Cl(35)             0.05286      23.17863       8.27071       7.73156
     7  H(1)               0.01502      67.12203      23.95081      22.38950
 --------------------------------------------------------

 Normal termination of Gaussian 16 at Tue Apr  8 23:45:15 2025.
