 Gaussian 16, Revision C.01,

 ----------------------------------------------------------------------
 #t hf aug-cc-pvdz symm=none int=(grid=ultrafine) guess=(read,tcheck) s
 table=(opt,rrhf)
 ----------------------------------------------------------------------
 -----
 title
 -----
 Symbolic Z-matrix:
 Charge =  0 Multiplicity = 1

 SCF Done:  E(RHF) =  -701.001739144     A.U. after   15 cycles
 Normal termination of Gaussian 16 at Wed Apr  9 00:20:36 2025.
 Gaussian 16:  ES64L-G16RevC.01  3-Jul-2019

 ----------------------------------------------------------------------
 #t hf aug-cc-pvdz iop(5/13=1,5/36=2,99/5=2) pseudo=read geom=check gue
 ss=(read,tcheck) scf=(maxcycle=1)
 ----------------------------------------------------------------------
 -----
 title
 -----
 Structure from the checkpoint file:  "BDE49_nonexpt_2621_mol1.chk"
 Charge =  0 Multiplicity = 1

                         Standard orientation:
 ---------------------------------------------------------------------
 Center     Atomic      Atomic             Coordinates (Angstroms)
 Number     Number       Type             X           Y           Z
 ---------------------------------------------------------------------
      1          9           0       -1.733707    0.591362    0.000681
      2          7           0        0.867453    0.129966   -0.000128
      3         16           0       -0.743955   -0.708688   -0.000420
      4          8           0        1.763550   -0.689204    0.000622
      5          8           0        0.915758    1.327577   -0.000436
 ---------------------------------------------------------------------

 SCF Done:  E(RHF) =  -701.337546443     A.U. after    2 cycles

 The electronic state is 1-A.
 Alpha  occ. eigenvalues --  -94.13337 -26.53484 -20.64229 -20.63343 -15.84302
 Alpha  occ. eigenvalues --   -8.40267  -6.37961  -6.37721  -6.37317  -1.72452
 Alpha  occ. eigenvalues --   -1.64148  -1.56921  -1.13715  -0.93229  -0.83302
 Alpha  occ. eigenvalues --   -0.79503  -0.79184  -0.71343  -0.70424  -0.65754
 Alpha  occ. eigenvalues --   -0.53716  -0.50275  -0.49708  -0.45497
 Alpha virt. eigenvalues --    0.02784   0.03441   0.05407   0.08880   0.09870
 Alpha virt. eigenvalues --    0.10160   0.13891   0.14629   0.17495   0.18439
 Alpha virt. eigenvalues --    0.20199   0.21828   0.25375   0.26918   0.27618

 Mulliken charges:
               1
     1  F   -0.573227
     2  N    1.653907
     3  S    1.057209
     4  O   -1.087749
     5  O   -1.050140
 Sum of Mulliken charges =  -0.00000

 Dipole moment (field-independent basis, Debye):
    X=             -1.8229    Y=             -1.4623    Z=             -0.0012  Tot=              2.3370

 Test job not archived.
 1\1\GINC-SE362\SP\RHF\Aug-CC-pVDZ\F1N1O2S1\OHZDE\09-Apr-2025\0\\#t hf
 aug-cc-pvdz iop(5/13=1,5/36=2,99/5=2) pseudo=read geom=check guess=(re
 ad,tcheck) scf=(maxcycle=1)\\title\\0,1\F,0,1.733707,0.591363,-0.00068
 1\N,0,-0.867453,0.129966,0.000128\S,0,0.743955,-0.708688,0.00042\O,0,-
 1.76355,-0.689205,-0.000622\O,0,-0.915759,1.327577,0.000436\\Version=E
 S64L-G16RevC.01\State=1-A\HF=-701.3375464\RMSD=1.455e-02\Dipole=0.7171
 914,-0.5753127,0.000491\Quadrupole=-1.0534861,0.2788267,0.7746594,-1.4
 512566,-0.0001845,-0.0018191\PG=C01 [X(F1N1O2S1)]\\@

 Normal termination of Gaussian 16 at Wed Apr  9 00:20:37 2025.
