 Gaussian 16, Revision C.01,

 ----------------------------------------------------------------------
 #t hf aug-cc-pvdz symm=none int=(grid=ultrafine) guess=(read,tcheck) s
 table=(opt,rrhf)
 ----------------------------------------------------------------------
 -----
 title
 -----
 Symbolic Z-matrix:
 Charge =  0 Multiplicity = 1

 SCF Done:  E(RHF) =  -458.384253055     A.U. after   12 cycles
 Normal termination of Gaussian 16 at Tue Apr  8 23:27:00 2025.
 Gaussian 16:  ES64L-G16RevC.01  3-Jul-2019

 ----------------------------------------------------------------------
 #t hf aug-cc-pvdz iop(5/13=1,5/36=2,99/5=2) pseudo=read geom=check gue
 ss=(read,tcheck) scf=(maxcycle=1)
 ----------------------------------------------------------------------
 -----
 title
 -----
 Structure from the checkpoint file:  "BDE49_nonexpt_1299_mol1.chk"
 Charge =  0 Multiplicity = 1

                         Standard orientation:
 ---------------------------------------------------------------------
 Center     Atomic      Atomic             Coordinates (Angstroms)
 Number     Number       Type             X           Y           Z
 ---------------------------------------------------------------------
      1         15           0       -1.466495   -0.095779   -0.013659
      2          6           0        0.283554    0.035347    0.555636
      3          6           0        1.377878    0.752187   -0.196542
      4          6           0        1.368097   -0.754303   -0.145983
      5          1           0        0.356610    0.057049    1.638962
      6          1           0        1.104603   -1.290822   -1.050476
      7          1           0        2.108309   -1.255811    0.466087
      8          1           0        2.129437    1.277387    0.382343
      9          1           0        1.119149    1.232230   -1.132899
     10          1           0       -1.191874   -0.067525   -1.406820
     11          1           0       -1.805987    1.284781    0.029028
 ---------------------------------------------------------------------

 SCF Done:  E(RHF) =  -458.559282642     A.U. after    2 cycles

 The electronic state is 1-A.
 Alpha  occ. eigenvalues --  -84.26942 -11.24822 -11.24409 -11.24229  -6.74008
 Alpha  occ. eigenvalues --   -4.26536  -4.26336  -4.25718  -1.14813  -0.89490
 Alpha  occ. eigenvalues --   -0.83158  -0.77500  -0.67341  -0.62457  -0.53044
 Alpha  occ. eigenvalues --   -0.50947  -0.47230  -0.45960  -0.42251  -0.33414
 Alpha virt. eigenvalues --    0.03829   0.04262   0.04526   0.04848   0.06645
 Alpha virt. eigenvalues --    0.06981   0.08140   0.09626   0.10733   0.11935
 Alpha virt. eigenvalues --    0.13215   0.13830   0.14302   0.15578   0.16268

 Mulliken charges:
               1
     1  P   -0.395326
     2  C   -0.105576
     3  C    0.144596
     4  C    0.178082
     5  H   -0.144393
     6  H   -0.107215
     7  H   -0.109649
     8  H   -0.110105
     9  H   -0.097470
    10  H    0.286153
    11  H    0.460902
 Sum of Mulliken charges =  -0.00000

 Dipole moment (field-independent basis, Debye):
    X=              0.9709    Y=              0.3642    Z=              0.0404  Tot=              1.0378

 Test job not archived.
 1\1\GINC-SE049\SP\RHF\Aug-CC-pVDZ\C3H7P1\OHZDE\08-Apr-2025\0\\#t hf au
 g-cc-pvdz iop(5/13=1,5/36=2,99/5=2) pseudo=read geom=check guess=(read
 ,tcheck) scf=(maxcycle=1)\\title\\0,1\P,0,-1.466495,-0.095778,-0.01365
 9\C,0,0.283554,0.035347,0.555636\C,0,1.377878,0.752187,-0.196542\C,0,1
 .368097,-0.754303,-0.145983\H,0,0.35661,0.057049,1.638962\H,0,1.104603
 ,-1.290822,-1.050476\H,0,2.108309,-1.255811,0.466087\H,0,2.129437,1.27
 7387,0.382343\H,0,1.119149,1.23223,-1.132899\H,0,-1.191874,-0.067525,-
 1.40682\H,0,-1.805987,1.284782,0.029028\\Version=ES64L-G16RevC.01\Stat

 Normal termination of Gaussian 16 at Tue Apr  8 23:27:03 2025.
