 Gaussian 16, Revision C.01,

 ----------------------------------------------------------------------
 #t hf aug-cc-pvdz symm=none int=(grid=ultrafine) guess=(read,tcheck) s
 table=(opt,rrhf)
 ----------------------------------------------------------------------
 -----
 title
 -----
 Symbolic Z-matrix:
 Charge =  0 Multiplicity = 1

 SCF Done:  E(RHF) =  -1454.63864934     A.U. after   14 cycles
 Normal termination of Gaussian 16 at Tue Apr  8 23:58:25 2025.
 Gaussian 16:  ES64L-G16RevC.01  3-Jul-2019

 ----------------------------------------------------------------------
 #t hf aug-cc-pvdz iop(5/13=1,5/36=2,99/5=2) pseudo=read geom=check gue
 ss=(read,tcheck) scf=(maxcycle=1)
 ----------------------------------------------------------------------
 -----
 title
 -----
 Structure from the checkpoint file:  "BDE49_nonexpt_206_mol1.chk"
 Charge =  0 Multiplicity = 1

                         Standard orientation:
 ---------------------------------------------------------------------
 Center     Atomic      Atomic             Coordinates (Angstroms)
 Number     Number       Type             X           Y           Z
 ---------------------------------------------------------------------
      1         17           0        1.435944   -1.522240   -0.152258
      2         17           0        1.435804    1.522323   -0.152185
      3          5           0        0.612110   -0.000003    0.080461
      4          6           0       -0.902766   -0.000085    0.562414
      5          8           0       -1.169252   -0.000099    1.738232
      6         16           0       -2.229521   -0.000010   -0.671726
      7          1           0       -1.437317    0.000065   -1.759506
 ---------------------------------------------------------------------

 SCF Done:  E(RHF) =  -1454.97815915     A.U. after    2 cycles

 The electronic state is 1-A.
 Alpha  occ. eigenvalues -- -105.60623-105.60623 -93.99551 -20.58011 -11.39036
 Alpha  occ. eigenvalues --  -10.65644 -10.65617  -8.27706  -7.82540  -7.82520
 Alpha  occ. eigenvalues --   -7.82236  -7.82232  -7.82188  -7.82176  -7.75269
 Alpha  occ. eigenvalues --   -6.25517  -6.25386  -6.25161  -1.51429  -1.14252
 Alpha  occ. eigenvalues --   -1.08952  -1.07662  -0.85910  -0.73209  -0.67199
 Alpha  occ. eigenvalues --   -0.65113  -0.63143  -0.56741  -0.56611  -0.53792
 Alpha  occ. eigenvalues --   -0.53004  -0.50497  -0.49257  -0.41938  -0.41388
 Alpha virt. eigenvalues --    0.03325   0.04588   0.05170   0.05257   0.05575
 Alpha virt. eigenvalues --    0.07385   0.08237   0.09366   0.10963   0.12544
 Alpha virt. eigenvalues --    0.12668   0.13481   0.14325   0.14927   0.16081

 Mulliken charges:
               1
     1  Cl  -0.279819
     2  Cl  -0.279815
     3  B    0.779287
     4  C    0.502902
     5  O   -1.064027
     6  S    0.021412
     7  H    0.320059
 Sum of Mulliken charges =  -0.00000

 Dipole moment (field-independent basis, Debye):
    X=              0.9965    Y=              0.0001    Z=             -2.5000  Tot=              2.6913

 Test job not archived.
 1\1\GINC-SE455\SP\RHF\Aug-CC-pVDZ\C1H1B1Cl2O1S1\OHZDE\08-Apr-2025\0\\#
 t hf aug-cc-pvdz iop(5/13=1,5/36=2,99/5=2) pseudo=read geom=check gues
 s=(read,tcheck) scf=(maxcycle=1)\\title\\0,1\Cl,0,1.435944,-1.52224,-0
 .152258\Cl,0,1.435803,1.522323,-0.152185\B,0,0.61211,-0.000003,0.08046
 1\C,0,-0.902766,-0.000085,0.562414\O,0,-1.169252,-0.000099,1.738232\S,
 0,-2.229521,-0.00001,-0.671726\H,0,-1.437317,0.000065,-1.759506\\Versi
 on=ES64L-G16RevC.01\State=1-A\HF=-1454.9781592\RMSD=5.799e-03\Dipole=0
 .3920728,0.0000394,-0.9835704\Quadrupole=-0.8617577,0.5887134,0.273044

 Normal termination of Gaussian 16 at Tue Apr  8 23:58:28 2025.
