 Gaussian 16, Revision C.01,

 ----------------------------------------------------------------------
 #t hf aug-cc-pvdz symm=none int=(grid=ultrafine) guess=(read,tcheck) s
 table=(opt,rrhf)
 ----------------------------------------------------------------------
 -----
 title
 -----
 Symbolic Z-matrix:
 Charge =  0 Multiplicity = 1

 SCF Done:  E(RHF) =  -325.991128411     A.U. after   14 cycles
 Normal termination of Gaussian 16 at Wed Apr  9 00:40:21 2025.
 Gaussian 16:  ES64L-G16RevC.01  3-Jul-2019

 ----------------------------------------------------------------------
 #t hf aug-cc-pvdz iop(5/13=1,5/36=2,99/5=2) pseudo=read geom=check gue
 ss=(read,tcheck) scf=(maxcycle=1)
 ----------------------------------------------------------------------
 -----
 title
 -----
 Structure from the checkpoint file:  "BDE49_nonexpt_659_mol1.chk"
 Charge =  0 Multiplicity = 1

                         Standard orientation:
 ---------------------------------------------------------------------
 Center     Atomic      Atomic             Coordinates (Angstroms)
 Number     Number       Type             X           Y           Z
 ---------------------------------------------------------------------
      1          8           0        0.607410   -0.827335   -0.017044
      2          5           0       -0.516088    0.001683   -0.000581
      3          8           0       -0.439282    1.357811    0.014061
      4          8           0       -1.699538   -0.665684    0.004637
      5          8           0        1.804177   -0.003409   -0.074409
      6          1           0        2.361289   -0.483586    0.552031
      7          1           0        0.482110    1.643144    0.015290
      8          1           0       -2.445098   -0.059043    0.017631
 ---------------------------------------------------------------------

 SCF Done:  E(RHF) =  -326.310046484     A.U. after    2 cycles

 The electronic state is 1-A.
 Alpha  occ. eigenvalues --  -20.64084 -20.61862 -20.56484 -20.56192  -7.67849
 Alpha  occ. eigenvalues --   -1.60333  -1.48704  -1.45348  -1.30061  -0.78182
 Alpha  occ. eigenvalues --   -0.75321  -0.74361  -0.68600  -0.63088  -0.58774
 Alpha  occ. eigenvalues --   -0.57076  -0.56421  -0.52500  -0.50362  -0.47002
 Alpha virt. eigenvalues --    0.03525   0.04677   0.05554   0.05812   0.07419
 Alpha virt. eigenvalues --    0.09733   0.10031   0.15146   0.18086   0.18863
 Alpha virt. eigenvalues --    0.20193   0.20471   0.21423   0.22570   0.23571

 Mulliken charges:
               1
     1  O   -0.638240
     2  B    1.883846
     3  O   -1.029778
     4  O   -1.070921
     5  O   -0.630628
     6  H    0.509056
     7  H    0.577809
     8  H    0.398856
 Sum of Mulliken charges =  -0.00000

 Dipole moment (field-independent basis, Debye):
    X=              1.1432    Y=              1.0525    Z=              1.1097  Tot=              1.9095

 Test job not archived.
 1\1\GINC-SE250\SP\RHF\Aug-CC-pVDZ\B1H3O4\OHZDE\09-Apr-2025\0\\#t hf au
 g-cc-pvdz iop(5/13=1,5/36=2,99/5=2) pseudo=read geom=check guess=(read
 ,tcheck) scf=(maxcycle=1)\\title\\0,1\O,0,0.60741,-0.827335,-0.017044\
 B,0,-0.516088,0.001683,-0.000581\O,0,-0.439282,1.357811,0.014061\O,0,-
 1.699538,-0.665684,0.004637\O,0,1.804177,-0.003409,-0.074409\H,0,2.361
 289,-0.483586,0.552031\H,0,0.48211,1.643144,0.01529\H,0,-2.445098,-0.0
 59044,0.017631\\Version=ES64L-G16RevC.01\State=1-A\HF=-326.3100465\RMS
 D=9.278e-03\Dipole=0.4497639,0.414086,0.4365991\Quadrupole=4.6190107,-

 Normal termination of Gaussian 16 at Wed Apr  9 00:40:23 2025.
