 Gaussian 16, Revision C.01,

 ----------------------------------------------------------------------
 #t hf aug-cc-pvdz symm=none int=(grid=ultrafine) guess=(read,tcheck) s
 table=(opt,rrhf)
 ----------------------------------------------------------------------
 -----
 title
 -----
 Symbolic Z-matrix:
 Charge =  0 Multiplicity = 1

 SCF Done:  E(RHF) =  -650.918082951     A.U. after   13 cycles
 Normal termination of Gaussian 16 at Tue Apr  8 22:34:25 2025.
 Gaussian 16:  ES64L-G16RevC.01  3-Jul-2019

 ----------------------------------------------------------------------
 #t hf aug-cc-pvdz iop(5/13=1,5/36=2,99/5=2) pseudo=read geom=check gue
 ss=(read,tcheck) scf=(maxcycle=1)
 ----------------------------------------------------------------------
 -----
 title
 -----
 Structure from the checkpoint file:  "BDE49_expt_1079_mol1.chk"
 Charge =  0 Multiplicity = 1

                         Standard orientation:
 ---------------------------------------------------------------------
 Center     Atomic      Atomic             Coordinates (Angstroms)
 Number     Number       Type             X           Y           Z
 ---------------------------------------------------------------------
      1          6           0        0.958591   -0.748212    0.000030
      2          6           0       -0.066560    0.355950    0.000053
      3          8           0        0.104622    1.522097   -0.000003
      4         17           0       -1.783912   -0.320351   -0.000035
      5          6           0        2.393399   -0.223297    0.000008
      6          1           0        0.751714   -1.377861   -0.870958
      7          1           0        0.751742   -1.377868    0.871019
      8          1           0        2.589302    0.389181   -0.881731
      9          1           0        3.094851   -1.060076   -0.000008
     10          1           0        2.589331    0.389173    0.881746
 ---------------------------------------------------------------------

 SCF Done:  E(RHF) =  -651.190649402     A.U. after    2 cycles

 The electronic state is 1-A.
 Alpha  occ. eigenvalues -- -105.57145 -20.58933 -11.42225 -11.28305 -11.25234
 Alpha  occ. eigenvalues --  -10.61985  -7.78899  -7.78545  -7.78531  -1.53932
 Alpha  occ. eigenvalues --   -1.11113  -1.05457  -0.91766  -0.77436  -0.69510
 Alpha  occ. eigenvalues --   -0.67157  -0.66452  -0.58280  -0.57537  -0.55172
 Alpha  occ. eigenvalues --   -0.52636  -0.47050  -0.47031  -0.44797
 Alpha virt. eigenvalues --    0.03102   0.04315   0.04397   0.05334   0.07353
 Alpha virt. eigenvalues --    0.09147   0.10598   0.11537   0.11600   0.12474
 Alpha virt. eigenvalues --    0.13231   0.14917   0.15491   0.16414   0.16592

 Mulliken charges:
               1
     1  C   -0.371650
     2  C    0.768785
     3  O   -1.045702
     4  Cl  -0.152246
     5  C   -0.231727
     6  H    0.272050
     7  H    0.272051
     8  H    0.168388
     9  H    0.151661
    10  H    0.168390
 Sum of Mulliken charges =   0.00000

 Dipole moment (field-independent basis, Debye):
    X=              2.4177    Y=             -2.1166    Z=              0.0001  Tot=              3.2133

 Test job not archived.
 1\1\GINC-SE080\SP\RHF\Aug-CC-pVDZ\C3H5Cl1O1\OHZDE\08-Apr-2025\0\\#t hf
  aug-cc-pvdz iop(5/13=1,5/36=2,99/5=2) pseudo=read geom=check guess=(r
 ead,tcheck) scf=(maxcycle=1)\\title\\0,1\C,0,-0.958591,-0.748212,-0.00
 003\C,0,0.06656,0.35595,-0.000053\O,0,-0.104622,1.522097,0.000003\Cl,0
 ,1.783912,-0.320351,0.000035\C,0,-2.393399,-0.223297,-0.000008\H,0,-0.
 751714,-1.377861,0.870958\H,0,-0.751742,-1.377868,-0.871019\H,0,-2.589
 302,0.389181,0.881731\H,0,-3.094851,-1.060076,0.000008\H,0,-2.589331,0
 .389173,-0.881746\\Version=ES64L-G16RevC.01\State=1-A\HF=-651.1906494\

 Normal termination of Gaussian 16 at Tue Apr  8 22:34:28 2025.
