 Gaussian 16, Revision C.01,

 ----------------------------------------------------------------------
 #t hf aug-cc-pvdz symm=none int=(grid=ultrafine) guess=(read,tcheck) s
 table=(opt,rrhf)
 ----------------------------------------------------------------------
 -----
 title
 -----
 Symbolic Z-matrix:
 Charge =  0 Multiplicity = 1

 SCF Done:  E(RHF) =  -701.897378408     A.U. after   15 cycles
 Normal termination of Gaussian 16 at Tue Apr  8 23:39:16 2025.
 Gaussian 16:  ES64L-G16RevC.01  3-Jul-2019

 ----------------------------------------------------------------------
 #t hf aug-cc-pvdz iop(5/13=1,5/36=2,99/5=2) pseudo=read geom=check gue
 ss=(read,tcheck) scf=(maxcycle=1)
 ----------------------------------------------------------------------
 -----
 title
 -----
 Structure from the checkpoint file:  "BDE49_nonexpt_1563_mol1.chk"
 Charge =  0 Multiplicity = 1

                         Standard orientation:
 ---------------------------------------------------------------------
 Center     Atomic      Atomic             Coordinates (Angstroms)
 Number     Number       Type             X           Y           Z
 ---------------------------------------------------------------------
      1          6           0       -2.854081    0.395617   -0.227722
      2          6           0       -1.977377    1.305168    0.362474
      3          6           0       -0.659007    0.938342    0.621051
      4          6           0       -2.410712   -0.883324   -0.556793
      5          6           0       -1.092959   -1.251625   -0.294194
      6          6           0       -0.200581   -0.345695    0.293349
      7          1           0       -3.880996    0.682134   -0.425804
      8          1           0       -2.321564    2.300229    0.622425
      9          1           0        0.022403    1.649022    1.072714
     10          1           0       -3.090822   -1.594897   -1.011568
     11          1           0       -0.753084   -2.251336   -0.543323
     12          7           0        2.354999   -0.073595   -0.680671
     13          8           0        2.360322    1.367053   -0.590275
     14          1           0        1.822109    1.626574   -1.346788
     15         15           0        1.525835   -0.894147    0.597519
     16          1           0        1.783726   -0.021873    1.691952
     17          1           0        3.331440   -0.349806   -0.724479
 ---------------------------------------------------------------------

 SCF Done:  E(RHF) =  -702.309992314     A.U. after    2 cycles

 The electronic state is 1-A.
 Alpha  occ. eigenvalues --  -84.29511 -20.58481 -15.55075 -11.25292 -11.25257
 Alpha  occ. eigenvalues --  -11.25179 -11.24912 -11.24857 -11.24817  -6.76312
 Alpha  occ. eigenvalues --   -4.29301  -4.28922  -4.28388  -1.47755  -1.16182
 Alpha  occ. eigenvalues --   -1.11686  -1.02726  -1.02335  -0.87240  -0.84120
 Alpha  occ. eigenvalues --   -0.79978  -0.71295  -0.69931  -0.67825  -0.64934
 Alpha  occ. eigenvalues --   -0.64384  -0.60797  -0.60567  -0.56339  -0.51780
 Alpha  occ. eigenvalues --   -0.51267  -0.50863  -0.46771  -0.43547  -0.36111
 Alpha  occ. eigenvalues --   -0.35179  -0.34189
 Alpha virt. eigenvalues --    0.03395   0.03819   0.04044   0.05004   0.05613
 Alpha virt. eigenvalues --    0.06025   0.06668   0.08058   0.08430   0.09125
 Alpha virt. eigenvalues --    0.09360   0.10295   0.12027   0.12730   0.13134

 Mulliken charges:
               1
     1  C    0.085021
     2  C    0.475568
     3  C    0.071774
     4  C    0.401581
     5  C   -0.532244
     6  C    0.498655
     7  H   -0.206594
     8  H   -0.223428
     9  H   -0.288775
    10  H   -0.215847
    11  H   -0.236767
    12  N    0.347076
    13  O   -1.076382
    14  H    0.323267
    15  P    0.200420
    16  H    0.308783
    17  H    0.067893
 Sum of Mulliken charges =  -0.00000

 Dipole moment (field-independent basis, Debye):
    X=             -1.0718    Y=              0.4173    Z=             -0.4216  Tot=              1.2250

 Test job not archived.
 1\1\GINC-SE219\SP\RHF\Aug-CC-pVDZ\C6H8N1O1P1\OHZDE\08-Apr-2025\0\\#t h
 f aug-cc-pvdz iop(5/13=1,5/36=2,99/5=2) pseudo=read geom=check guess=(
 read,tcheck) scf=(maxcycle=1)\\title\\0,1\C,0,2.854081,0.395617,0.2277
 22\C,0,1.977377,1.305168,-0.362474\C,0,0.659007,0.938342,-0.621051\C,0
 ,2.410712,-0.883324,0.556793\C,0,1.092959,-1.251625,0.294194\C,0,0.200
 581,-0.345695,-0.293349\H,0,3.880996,0.682134,0.425804\H,0,2.321564,2.
 300229,-0.622425\H,0,-0.022403,1.649022,-1.072714\H,0,3.090822,-1.5948
 97,1.011568\H,0,0.753084,-2.251336,0.543323\N,0,-2.354999,-0.073595,0.

 Normal termination of Gaussian 16 at Tue Apr  8 23:39:25 2025.
