 Gaussian 16, Revision C.01,

 ----------------------------------------------------------------------
 #t hf aug-cc-pvdz symm=none int=(grid=ultrafine) guess=(read,tcheck) s
 table=(opt,rrhf)
 ----------------------------------------------------------------------
 -----
 title
 -----
 Symbolic Z-matrix:
 Charge =  0 Multiplicity = 1

 SCF Done:  E(RHF) =  -670.593967335     A.U. after   15 cycles
 Normal termination of Gaussian 16 at Wed Apr  9 00:04:32 2025.
 Gaussian 16:  ES64L-G16RevC.01  3-Jul-2019

 ----------------------------------------------------------------------
 #t hf aug-cc-pvdz iop(5/13=1,5/36=2,99/5=2) pseudo=read geom=check gue
 ss=(read,tcheck) scf=(maxcycle=1)
 ----------------------------------------------------------------------
 -----
 title
 -----
 Structure from the checkpoint file:  "BDE49_nonexpt_2192_mol1.chk"
 Charge =  0 Multiplicity = 1

                         Standard orientation:
 ---------------------------------------------------------------------
 Center     Atomic      Atomic             Coordinates (Angstroms)
 Number     Number       Type             X           Y           Z
 ---------------------------------------------------------------------
      1          6           0        2.788719    0.229224    0.049503
      2          6           0        1.795026    1.207232    0.022153
      3          6           0        0.453366    0.843819   -0.027351
      4          6           0        2.434154   -1.115635    0.026149
      5          6           0        1.089926   -1.480713   -0.021516
      6          6           0        0.090590   -0.512195   -0.047092
      7          1           0        3.198080   -1.883601    0.045930
      8          1           0        0.786950   -2.520520   -0.039282
      9          8           0       -1.208675   -0.913819   -0.099688
     10         14           0       -2.698910   -0.187743    0.059449
     11          1           0        3.830422    0.524255    0.087449
     12          1           0        2.060086    2.260644    0.036135
     13          8           0       -0.577198    1.748551   -0.062767
     14          1           0       -0.232068    2.643847    0.006880
     15          1           0       -3.027337    0.693071   -1.078899
     16          1           0       -2.830819    0.541978    1.337679
     17          1           0       -3.624273   -1.339522    0.060386
 ---------------------------------------------------------------------

 SCF Done:  E(RHF) =  -671.010739090     A.U. after    2 cycles

 The electronic state is 1-A.
 Alpha  occ. eigenvalues --  -69.55913 -20.59281 -20.55588 -11.31185 -11.31016
 Alpha  occ. eigenvalues --  -11.25107 -11.24616 -11.24347 -11.24255  -6.22380
 Alpha  occ. eigenvalues --   -3.97895  -3.97736  -3.97714  -1.50918  -1.46879
 Alpha  occ. eigenvalues --   -1.15316  -1.02272  -1.01295  -0.87059  -0.85043
 Alpha  occ. eigenvalues --   -0.77338  -0.74657  -0.68644  -0.67537  -0.63965
 Alpha  occ. eigenvalues --   -0.62414  -0.61588  -0.59551  -0.56678  -0.55868
 Alpha  occ. eigenvalues --   -0.53178  -0.51065  -0.49853  -0.46238  -0.45660
 Alpha  occ. eigenvalues --   -0.34497  -0.31574
 Alpha virt. eigenvalues --    0.02864   0.03744   0.03887   0.04796   0.05167
 Alpha virt. eigenvalues --    0.06077   0.07040   0.07873   0.08583   0.09489
 Alpha virt. eigenvalues --    0.10212   0.11348   0.12009   0.12525   0.12812

 Mulliken charges:
               1
     1  C    0.265021
     2  C    0.234979
     3  C    1.707015
     4  C    0.300813
     5  C    0.402671
     6  C    0.953462
     7  H   -0.214378
     8  H   -0.299150
     9  O   -2.387475
    10  Si   1.422519
    11  H   -0.211856
    12  H   -0.336853
    13  O   -1.802452
    14  H    0.471586
    15  H   -0.153435
    16  H   -0.147594
    17  H   -0.204874
 Sum of Mulliken charges =  -0.00000

 Dipole moment (field-independent basis, Debye):
    X=              1.1677    Y=              1.8774    Z=              0.2143  Tot=              2.2213

 Test job not archived.
 1\1\GINC-SE082\SP\RHF\Aug-CC-pVDZ\C6H8O2Si1\OHZDE\09-Apr-2025\0\\#t hf
  aug-cc-pvdz iop(5/13=1,5/36=2,99/5=2) pseudo=read geom=check guess=(r
 ead,tcheck) scf=(maxcycle=1)\\title\\0,1\C,0,2.788719,0.229224,0.04950
 3\C,0,1.795026,1.207232,0.022153\C,0,0.453366,0.843819,-0.027351\C,0,2
 .434154,-1.115635,0.026149\C,0,1.089926,-1.480713,-0.021516\C,0,0.0905
 9,-0.512195,-0.047092\H,0,3.19808,-1.883602,0.04593\H,0,0.78695,-2.520
 52,-0.039282\O,0,-1.208675,-0.913819,-0.099688\Si,0,-2.69891,-0.187743
 ,0.059449\H,0,3.830422,0.524254,0.087449\H,0,2.060086,2.260644,0.03613

 Normal termination of Gaussian 16 at Wed Apr  9 00:04:41 2025.
