 Gaussian 16, Revision C.01,

 ----------------------------------------------------------------------
 #t hf aug-cc-pvdz symm=none int=(grid=ultrafine) guess=(read,tcheck) s
 table=(opt,rrhf)
 ----------------------------------------------------------------------
 -----
 title
 -----
 Symbolic Z-matrix:
 Charge =  0 Multiplicity = 1

 SCF Done:  E(RHF) =  -1209.20800113     A.U. after   10 cycles
 Normal termination of Gaussian 16 at Tue Apr  8 23:48:13 2025.
 Gaussian 16:  ES64L-G16RevC.01  3-Jul-2019

 ----------------------------------------------------------------------
 #t hf aug-cc-pvdz iop(5/13=1,5/36=2,99/5=2) pseudo=read geom=check gue
 ss=(read,tcheck) scf=(maxcycle=1)
 ----------------------------------------------------------------------
 -----
 title
 -----
 Structure from the checkpoint file:  "BDE49_nonexpt_1809_mol1.chk"
 Charge =  0 Multiplicity = 1

                         Standard orientation:
 ---------------------------------------------------------------------
 Center     Atomic      Atomic             Coordinates (Angstroms)
 Number     Number       Type             X           Y           Z
 ---------------------------------------------------------------------
      1         14           0       -0.000000   -0.000000    0.769881
      2         17           0        0.000000    1.694006   -0.409727
      3         17           0       -0.000000   -1.694006   -0.409727
      4          1           0       -1.227147    0.000000    1.576186
      5          1           0        1.227147   -0.000000    1.576186
 ---------------------------------------------------------------------

 SCF Done:  E(RHF) =  -1209.39668622     A.U. after    2 cycles

 The electronic state is 1-A1.
 Alpha  occ. eigenvalues -- -105.57538-105.57538 -69.63463 -10.62592 -10.62583
 Alpha  occ. eigenvalues --   -7.79475  -7.79470  -7.79148  -7.79146  -7.79140
 Alpha  occ. eigenvalues --   -7.79140  -6.29704  -4.05153  -4.05038  -4.04912
 Alpha  occ. eigenvalues --   -1.09017  -1.05495  -0.75249  -0.57836  -0.57076
 Alpha  occ. eigenvalues --   -0.56973  -0.49254  -0.49240  -0.47721  -0.46425
 Alpha virt. eigenvalues --    0.04124   0.05096   0.05108   0.05732   0.08815
 Alpha virt. eigenvalues --    0.10154   0.12448   0.12554   0.14411   0.14512
 Alpha virt. eigenvalues --    0.15135   0.16754   0.17651   0.19360   0.21431

 Mulliken charges:
               1
     1  Si   1.325881
     2  Cl  -0.506578
     3  Cl  -0.506578
     4  H   -0.156362
     5  H   -0.156362
 Sum of Mulliken charges =  -0.00000

 Dipole moment (field-independent basis, Debye):
    X=             -0.0000    Y=              0.0000    Z=              1.6126  Tot=              1.6126

 Test job not archived.
 1\1\GINC-SE329\SP\RHF\Aug-CC-pVDZ\Cl2H2Si1\OHZDE\08-Apr-2025\0\\#t hf
 aug-cc-pvdz iop(5/13=1,5/36=2,99/5=2) pseudo=read geom=check guess=(re
 ad,tcheck) scf=(maxcycle=1)\\title\\0,1\Si,0,0.,0.,0.769881\Cl,0,0.,1.
 694006,-0.409727\Cl,0,0.,-1.694006,-0.409727\H,0,-1.227147,0.,1.576186
 \H,0,1.227147,0.,1.576186\\Version=ES64L-G16RevC.01\State=1-A1\HF=-120
 9.3966862\RMSD=3.714e-03\Dipole=0.,0.,0.6344266\Quadrupole=0.3215623,-
 1.7291682,1.4076059,0.,0.,0.\PG=C02V [C2(Si1),SGV(Cl2),SGV'(H2)]\\@

 Normal termination of Gaussian 16 at Tue Apr  8 23:48:15 2025.
