 Gaussian 16, Revision C.01,

 ----------------------------------------------------------------------
 #t hf aug-cc-pvdz symm=none int=(grid=ultrafine) guess=(read,tcheck) s
 table=(opt,rrhf)
 ----------------------------------------------------------------------
 -----
 title
 -----
 Symbolic Z-matrix:
 Charge =  0 Multiplicity = 1

 SCF Done:  E(RHF) =  -1998.53586177     A.U. after   13 cycles
 Normal termination of Gaussian 16 at Tue Apr  8 23:53:33 2025.
 Gaussian 16:  ES64L-G16RevC.01  3-Jul-2019

 ----------------------------------------------------------------------
 #t hf aug-cc-pvdz iop(5/13=1,5/36=2,99/5=2) pseudo=read geom=check gue
 ss=(read,tcheck) scf=(maxcycle=1)
 ----------------------------------------------------------------------
 -----
 title
 -----
 Structure from the checkpoint file:  "BDE49_nonexpt_1929_mol1.chk"
 Charge =  0 Multiplicity = 1

                         Standard orientation:
 ---------------------------------------------------------------------
 Center     Atomic      Atomic             Coordinates (Angstroms)
 Number     Number       Type             X           Y           Z
 ---------------------------------------------------------------------
      1          6           0        0.724863   -0.995179   -0.798180
      2         14           0       -0.548889   -1.210292    0.571242
      3         16           0       -2.589315   -1.034326   -0.166942
      4          1           0       -0.325715   -0.223877    1.645930
      5          1           0       -0.463466   -2.590434    1.100217
      6         16           0       -2.584921    1.009747   -0.687879
      7         16           0        2.445399   -1.098459   -0.124507
      8         16           0        2.785610    0.774461    0.707873
      9          6           0       -3.174467    1.804294    0.847112
     10          1           0       -3.240468    2.870866    0.617694
     11          1           0       -2.469834    1.652824    1.663807
     12          1           0       -4.160938    1.429542    1.116533
     13          6           0        3.389610    1.753431   -0.715718
     14          1           0        3.652735    2.733309   -0.309526
     15          1           0        2.611937    1.875670   -1.468977
     16          1           0        4.274283    1.290128   -1.149727
     17          1           0        0.604253   -0.068333   -1.359202
     18          1           0        0.653271   -1.823654   -1.510144
 ---------------------------------------------------------------------

 SCF Done:  E(RHF) =  -1998.94648020     A.U. after    2 cycles

 The electronic state is 1-A.
 Alpha  occ. eigenvalues --  -93.97886 -93.97880 -93.97499 -93.96286 -69.56068
 Alpha  occ. eigenvalues --  -11.27616 -11.27540 -11.26827  -8.25734  -8.25732
 Alpha  occ. eigenvalues --   -8.25415  -8.24394  -6.23546  -6.23538  -6.23346
 Alpha  occ. eigenvalues --   -6.23333  -6.23221  -6.23114  -6.23108  -6.23016
 Alpha  occ. eigenvalues --   -6.22862  -6.22789  -6.22172  -6.21984  -6.21792
 Alpha  occ. eigenvalues --   -3.98263  -3.98167  -3.98145  -1.11552  -1.09951
 Alpha  occ. eigenvalues --   -1.02853  -0.98329  -0.92146  -0.84818  -0.81509
 Alpha  occ. eigenvalues --   -0.71404  -0.62764  -0.61109  -0.60883  -0.60725
 Alpha  occ. eigenvalues --   -0.59595  -0.54869  -0.54546  -0.52779  -0.50717
 Alpha  occ. eigenvalues --   -0.49737  -0.47676  -0.45187  -0.45047  -0.38386
 Alpha  occ. eigenvalues --   -0.37168  -0.36121  -0.35082
 Alpha virt. eigenvalues --    0.03187   0.03636   0.03936   0.04366   0.05429
 Alpha virt. eigenvalues --    0.05791   0.06015   0.06706   0.07074   0.07522
 Alpha virt. eigenvalues --    0.08728   0.08947   0.09856   0.10578   0.11087

 Mulliken charges:
               1
     1  C   -0.836093
     2  Si   1.678734
     3  S   -0.661113
     4  H   -0.110418
     5  H   -0.232546
     6  S    0.030205
     7  S    0.087209
     8  S    0.127618
     9  C   -0.722832
    10  H    0.200336
    11  H    0.145178
    12  H    0.216516
    13  C   -0.723969
    14  H    0.183053
    15  H    0.171983
    16  H    0.223559
    17  H    0.121726
    18  H    0.100853
 Sum of Mulliken charges =   0.00000

 Dipole moment (field-independent basis, Debye):
    X=              0.1783    Y=              2.1229    Z=             -0.3643  Tot=              2.1613

 Test job not archived.
 1\1\GINC-SE070\SP\RHF\Aug-CC-pVDZ\C3H10S4Si1\OHZDE\08-Apr-2025\0\\#t h
 f aug-cc-pvdz iop(5/13=1,5/36=2,99/5=2) pseudo=read geom=check guess=(
 read,tcheck) scf=(maxcycle=1)\\title\\0,1\C,0,0.724863,-0.995179,-0.79
 818\Si,0,-0.548889,-1.210292,0.571242\S,0,-2.589315,-1.034326,-0.16694
 2\H,0,-0.325715,-0.223877,1.64593\H,0,-0.463466,-2.590434,1.100217\S,0
 ,-2.584921,1.009747,-0.687879\S,0,2.445399,-1.098459,-0.124507\S,0,2.7
 8561,0.774461,0.707873\C,0,-3.174467,1.804294,0.847112\H,0,-3.240468,2
 .870866,0.617694\H,0,-2.469834,1.652824,1.663807\H,0,-4.160938,1.42954

 Normal termination of Gaussian 16 at Tue Apr  8 23:53:43 2025.
