 Gaussian 16, Revision C.01,

 ----------------------------------------------------------------------
 #t hf aug-cc-pvdz symm=none int=(grid=ultrafine) guess=(read,tcheck) s
 table=(opt,rrhf)
 ----------------------------------------------------------------------
 -----
 title
 -----
 Symbolic Z-matrix:
 Charge =  0 Multiplicity = 1

 SCF Done:  E(RHF) =  -1064.44518349     A.U. after   14 cycles
 Normal termination of Gaussian 16 at Wed Apr  9 00:18:03 2025.
 Gaussian 16:  ES64L-G16RevC.01  3-Jul-2019

 ----------------------------------------------------------------------
 #t hf aug-cc-pvdz iop(5/13=1,5/36=2,99/5=2) pseudo=read geom=check gue
 ss=(read,tcheck) scf=(maxcycle=1)
 ----------------------------------------------------------------------
 -----
 title
 -----
 Structure from the checkpoint file:  "BDE49_nonexpt_2565_mol1.chk"
 Charge =  0 Multiplicity = 1

                         Standard orientation:
 ---------------------------------------------------------------------
 Center     Atomic      Atomic             Coordinates (Angstroms)
 Number     Number       Type             X           Y           Z
 ---------------------------------------------------------------------
      1         17           0        2.011695   -0.834410   -0.000066
      2         16           0        0.963353    0.981168    0.000038
      3          6           0       -0.801658    0.556907    0.000030
      4          8           0       -1.511016    1.539386   -0.000005
      5          7           0       -1.163262   -0.734719    0.000032
      6          6           0       -2.562557   -1.145772    0.000012
      7          1           0       -0.436516   -1.434297    0.000054
      8          1           0       -2.791141   -1.735288   -0.891112
      9          1           0       -3.177360   -0.247764   -0.000035
     10          1           0       -2.791187   -1.735225    0.891167
 ---------------------------------------------------------------------

 SCF Done:  E(RHF) =  -1064.79015664     A.U. after    2 cycles

 The electronic state is 1-A.
 Alpha  occ. eigenvalues -- -105.60398 -94.03293 -20.54392 -15.55797 -11.41537
 Alpha  occ. eigenvalues --  -11.29207 -10.65083  -8.31038  -7.82014  -7.81603
 Alpha  occ. eigenvalues --   -7.81542  -6.28822  -6.28550  -6.28268  -1.49821
 Alpha  occ. eigenvalues --   -1.27664  -1.13439  -1.01455  -0.95939  -0.85155
 Alpha  occ. eigenvalues --   -0.73123  -0.69553  -0.67222  -0.61837  -0.58852
 Alpha  occ. eigenvalues --   -0.58496  -0.54166  -0.52825  -0.50254  -0.44850
 Alpha  occ. eigenvalues --   -0.43723  -0.39558
 Alpha virt. eigenvalues --    0.03055   0.03940   0.04925   0.05522   0.06518
 Alpha virt. eigenvalues --    0.07982   0.10383   0.11365   0.11557   0.12493
 Alpha virt. eigenvalues --    0.13189   0.13517   0.14572   0.14870   0.16032

 Mulliken charges:
               1
     1  Cl  -0.320701
     2  S    0.729129
     3  C   -0.171401
     4  O   -1.072105
     5  N    0.697086
     6  C   -0.342819
     7  H    0.136993
     8  H    0.145960
     9  H    0.051889
    10  H    0.145968
 Sum of Mulliken charges =  -0.00000

 Dipole moment (field-independent basis, Debye):
    X=             -0.8126    Y=             -3.1164    Z=              0.0001  Tot=              3.2206

 Test job not archived.
 1\1\GINC-SE096\SP\RHF\Aug-CC-pVDZ\C2H4Cl1N1O1S1\OHZDE\09-Apr-2025\0\\#
 t hf aug-cc-pvdz iop(5/13=1,5/36=2,99/5=2) pseudo=read geom=check gues
 s=(read,tcheck) scf=(maxcycle=1)\\title\\0,1\Cl,0,2.011695,-0.83441,-0
 .000066\S,0,0.963353,0.981168,0.000038\C,0,-0.801658,0.556907,0.00003\
 O,0,-1.511016,1.539386,-0.000005\N,0,-1.163262,-0.734719,0.000032\C,0,
 -2.562557,-1.145772,0.000012\H,0,-0.436516,-1.434297,0.000054\H,0,-2.7
 91141,-1.735288,-0.891112\H,0,-3.17736,-0.247764,-0.000035\H,0,-2.7911
 87,-1.735225,0.891167\\Version=ES64L-G16RevC.01\State=1-A\HF=-1064.790

 Normal termination of Gaussian 16 at Wed Apr  9 00:18:07 2025.
