 Gaussian 16, Revision C.01,

 ----------------------------------------------------------------------
 #t hf aug-cc-pvdz symm=none int=(grid=ultrafine) guess=(read,tcheck) s
 table=opt
 ----------------------------------------------------------------------
 -----
 title
 -----
 Symbolic Z-matrix:
 Charge =  0 Multiplicity = 2

 SCF Done:  E(UHF) =  -951.797199873     A.U. after   20 cycles
 Normal termination of Gaussian 16 at Tue Apr  8 23:00:20 2025.
 Gaussian 16:  ES64L-G16RevC.01  3-Jul-2019

 ----------------------------------------------------------------------
 #t hf aug-cc-pvdz iop(5/13=1,5/36=2,99/5=2) pseudo=read geom=check gue
 ss=(read,tcheck) scf=(maxcycle=1)
 ----------------------------------------------------------------------
 -----
 title
 -----
 Structure from the checkpoint file:  "BDE49_expt_1970_mol2.chk"
 Charge =  0 Multiplicity = 2

                         Standard orientation:
 ---------------------------------------------------------------------
 Center     Atomic      Atomic             Coordinates (Angstroms)
 Number     Number       Type             X           Y           Z
 ---------------------------------------------------------------------
      1         16           0        2.161884    0.272925   -0.000024
      2         16           0        0.590866   -0.939069    0.000012
      3          6           0       -0.980840    0.119028    0.000007
      4          6           0       -2.113006   -0.916960   -0.000001
      5          1           0       -2.075655   -1.555408    0.886454
      6          1           0       -2.075645   -1.555405   -0.886458
      7          1           0       -3.077402   -0.399952   -0.000005
      8          6           0       -1.008981    0.979214    1.264769
      9          1           0       -0.989804    0.363823    2.167342
     10          1           0       -1.925560    1.578145    1.278776
     11          1           0       -0.156928    1.661050    1.293990
     12          6           0       -1.008968    0.979220   -1.264751
     13          1           0       -0.989782    0.363833   -2.167326
     14          1           0       -0.156915    1.661057   -1.293960
     15          1           0       -1.925547    1.578151   -1.278764
 ---------------------------------------------------------------------

 SCF Done:  E(UHF) =  -952.087962925     A.U. after    2 cycles

 The electronic state is 2-A.
 Alpha  occ. eigenvalues --  -93.98782 -93.97492 -11.29466 -11.24582 -11.23872
 Alpha  occ. eigenvalues --  -11.23854  -8.26702  -8.25517  -6.24570  -6.24381
 Alpha  occ. eigenvalues --   -6.24348  -6.24141  -6.23014  -6.22616  -1.15035
 Alpha  occ. eigenvalues --   -1.07333  -0.95740  -0.95259  -0.88871  -0.74839
 Alpha  occ. eigenvalues --   -0.63960  -0.62936  -0.62626  -0.57026  -0.56901
 Alpha  occ. eigenvalues --   -0.53853  -0.51392  -0.51087  -0.49213  -0.48797
 Alpha  occ. eigenvalues --   -0.47383  -0.36954  -0.35797
 Alpha virt. eigenvalues --    0.03374   0.04006   0.04020   0.05086   0.06491
 Alpha virt. eigenvalues --    0.06538   0.06876   0.07434   0.08691   0.09661
 Alpha virt. eigenvalues --    0.10099   0.12494   0.14041   0.14349   0.14691

  Beta  occ. eigenvalues --  -93.98512 -93.96714 -11.29527 -11.24579 -11.23852
  Beta  occ. eigenvalues --  -11.23835  -8.26388  -8.24625  -6.24277  -6.23997
  Beta  occ. eigenvalues --   -6.23357  -6.22587  -6.22133  -6.20914  -1.14043
  Beta  occ. eigenvalues --   -1.04684  -0.95692  -0.95184  -0.83783  -0.73621
  Beta  occ. eigenvalues --   -0.63617  -0.62666  -0.62468  -0.56942  -0.56428
  Beta  occ. eigenvalues --   -0.53801  -0.50934  -0.50407  -0.48161  -0.46379
  Beta  occ. eigenvalues --   -0.39429  -0.35364
  Beta virt. eigenvalues --    0.00940   0.03384   0.04029   0.04050   0.05104
  Beta virt. eigenvalues --    0.06559   0.06575   0.06943   0.07635   0.08784
  Beta virt. eigenvalues --    0.09693   0.10257   0.12578   0.14091   0.14882

 Mulliken charges and spin densities:
               1          2
     1  S   -0.116085   0.879256
     2  S   -0.003083   0.183931
     3  C   -1.506233  -0.055239
     4  C    0.048290  -0.012678
     5  H    0.171874  -0.003235
     6  H    0.171874  -0.003235
     7  H    0.226683  -0.001438
     8  C   -0.072750   0.012886
     9  H    0.181460   0.001678
    10  H    0.211650  -0.002158
    11  H    0.182978  -0.006086
    12  C   -0.072749   0.012886
    13  H    0.181461   0.001677
    14  H    0.182980  -0.006087
    15  H    0.211650  -0.002158
 Sum of Mulliken charges =  -0.00000   1.00000

 Dipole moment (field-independent basis, Debye):
    X=             -2.7118    Y=              0.7403    Z=              0.0000  Tot=              2.8110
                          Isotropic Fermi Contact Couplings
        Atom                 a.u.       MegaHertz       Gauss      10(-4) cm-1
     1  S(33)              0.17982      61.76202      22.03823      20.60159
     2  S(33)              0.10585      36.35507      12.97239      12.12675
     3  C(13)             -0.00966     -10.85996      -3.87510      -3.62249
     4  C(13)             -0.00013      -0.14261      -0.05089      -0.04757
     5  H(1)              -0.00013      -0.58084      -0.20726      -0.19375
     6  H(1)              -0.00013      -0.58079      -0.20724      -0.19373
     7  H(1)              -0.00058      -2.58746      -0.92327      -0.86309
     8  C(13)              0.00238       2.67463       0.95437       0.89216

 Normal termination of Gaussian 16 at Tue Apr  8 23:00:25 2025.
