 Gaussian 16, Revision C.01,

 ----------------------------------------------------------------------
 #t hf aug-cc-pvdz symm=none int=(grid=ultrafine) guess=(read,tcheck) s
 table=(opt,rrhf)
 ----------------------------------------------------------------------
 -----
 title
 -----
 Symbolic Z-matrix:
 Charge =  0 Multiplicity = 1

 SCF Done:  E(RHF) =  -851.803370870     A.U. after   16 cycles
 Normal termination of Gaussian 16 at Tue Apr  8 23:29:38 2025.
 Gaussian 16:  ES64L-G16RevC.01  3-Jul-2019

 ----------------------------------------------------------------------
 #t hf aug-cc-pvdz iop(5/13=1,5/36=2,99/5=2) pseudo=read geom=check gue
 ss=(read,tcheck) scf=(maxcycle=1)
 ----------------------------------------------------------------------
 -----
 title
 -----
 Structure from the checkpoint file:  "BDE49_nonexpt_1324_mol1.chk"
 Charge =  0 Multiplicity = 1

                         Standard orientation:
 ---------------------------------------------------------------------
 Center     Atomic      Atomic             Coordinates (Angstroms)
 Number     Number       Type             X           Y           Z
 ---------------------------------------------------------------------
      1          6           0        1.982307   -1.209804    0.036176
      2          6           0        0.598556   -1.179236    0.023919
      3          6           0        2.726100   -0.014677    0.012822
      4          6           0        2.033431    1.207440   -0.020077
      5          6           0        0.647322    1.231586   -0.033060
      6          6           0       -0.090370    0.041597   -0.012933
      7          1           0        0.117763    2.176279   -0.062946
      8          1           0        2.502843   -2.161562    0.067316
      9          1           0        0.045570   -2.111022    0.040066
     10         15           0       -1.870106    0.132301   -0.016702
     11          8           0       -2.422544    1.494079    0.031005
     12          8           0       -2.411125   -0.816566    1.182852
     13          7           0        4.108895   -0.044446    0.077786
     14          1           0        4.556331   -0.902103   -0.206570
     15          1           0        4.593137    0.782422   -0.236053
     16          1           0        2.590942    2.138342   -0.033899
     17          1           0       -2.598809   -0.293615    1.971231
     18          8           0       -2.253204   -0.787482   -1.275074
     19          1           0       -3.207543   -0.883813   -1.384477
 ---------------------------------------------------------------------

 SCF Done:  E(RHF) =  -852.364129998     A.U. after    2 cycles

 The electronic state is 1-A.
 Alpha  occ. eigenvalues --  -84.41814 -20.58330 -20.58089 -20.49140 -15.52642
 Alpha  occ. eigenvalues --  -11.30716 -11.26579 -11.26225 -11.24495 -11.24220
 Alpha  occ. eigenvalues --  -11.24010  -6.87056  -4.41206  -4.40416  -4.40177
 Alpha  occ. eigenvalues --   -1.52255  -1.46032  -1.37697  -1.24396  -1.14878
 Alpha  occ. eigenvalues --   -1.03188  -1.01669  -0.88054  -0.86115  -0.81648
 Alpha  occ. eigenvalues --   -0.74643  -0.73900  -0.72946  -0.68621  -0.65311
 Alpha  occ. eigenvalues --   -0.63511  -0.63202  -0.61041  -0.60802  -0.57895
 Alpha  occ. eigenvalues --   -0.56764  -0.54526  -0.53689  -0.51300  -0.49704
 Alpha  occ. eigenvalues --   -0.48449  -0.44547  -0.44178  -0.36168  -0.32955
 Alpha virt. eigenvalues --    0.02429   0.03713   0.04028   0.05020   0.05358
 Alpha virt. eigenvalues --    0.05805   0.07494   0.08724   0.08962   0.09108
 Alpha virt. eigenvalues --    0.09643   0.11236   0.11519   0.12141   0.12709

 Mulliken charges:
               1
     1  C    1.065324
     2  C    0.461646
     3  C   -1.590069
     4  C    0.806010
     5  C   -0.346231
     6  C   -0.638403
     7  H   -0.378793
     8  H   -0.308585
     9  H   -0.399398
    10  P    4.265770
    11  O   -1.487050
    12  O   -1.280514
    13  N    0.862929
    14  H    0.002587
    15  H    0.000988
    16  H   -0.303350
    17  H    0.276714
    18  O   -1.367237
    19  H    0.357662
 Sum of Mulliken charges =   0.00000

 Dipole moment (field-independent basis, Debye):
    X=              3.1448    Y=             -2.1177    Z=             -0.0285  Tot=              3.7915

 Test job not archived.
 1\1\GINC-SE398\SP\RHF\Aug-CC-pVDZ\C6H8N1O3P1\OHZDE\08-Apr-2025\0\\#t h
 f aug-cc-pvdz iop(5/13=1,5/36=2,99/5=2) pseudo=read geom=check guess=(
 read,tcheck) scf=(maxcycle=1)\\title\\0,1\C,0,1.982307,-1.209804,0.036
 176\C,0,0.598556,-1.179236,0.023919\C,0,2.7261,-0.014677,0.012822\C,0,
 2.033431,1.20744,-0.020077\C,0,0.647322,1.231586,-0.03306\C,0,-0.09037
 ,0.041597,-0.012933\H,0,0.117763,2.176279,-0.062946\H,0,2.502843,-2.16
 1562,0.067316\H,0,0.04557,-2.111022,0.040066\P,0,-1.870106,0.132301,-0
 .016702\O,0,-2.422544,1.494079,0.031005\O,0,-2.411125,-0.816566,1.1828

 Normal termination of Gaussian 16 at Tue Apr  8 23:29:50 2025.
