 Gaussian 16, Revision C.01,

 ----------------------------------------------------------------------
 #t hf aug-cc-pvdz symm=none int=(grid=ultrafine) guess=(read,tcheck) s
 table=opt
 ----------------------------------------------------------------------
 -----
 title
 -----
 Symbolic Z-matrix:
 Charge =  0 Multiplicity = 2

 SCF Done:  E(UHF) =  -718.850689046     A.U. after   24 cycles
 Normal termination of Gaussian 16 at Tue Apr  8 23:14:27 2025.
 Gaussian 16:  ES64L-G16RevC.01  3-Jul-2019

 ----------------------------------------------------------------------
 #t hf aug-cc-pvdz iop(5/13=1,5/36=2,99/5=2) pseudo=read geom=check gue
 ss=(read,tcheck) scf=(maxcycle=1)
 ----------------------------------------------------------------------
 -----
 title
 -----
 Structure from the checkpoint file:  "BDE49_expt_842_mol2.chk"
 Charge =  0 Multiplicity = 2

                         Standard orientation:
 ---------------------------------------------------------------------
 Center     Atomic      Atomic             Coordinates (Angstroms)
 Number     Number       Type             X           Y           Z
 ---------------------------------------------------------------------
      1          6           0        1.062639   -0.141174    0.917317
      2          6           0       -0.315196    0.508690    0.709990
      3          7           0       -0.333482    1.783102   -0.012028
      4          6           0       -1.289925   -0.481944    0.027343
      5          1           0       -0.749661    0.683247    1.701980
      6          8           0       -1.258007   -1.667403    0.222607
      7          8           0       -2.190390    0.115307   -0.758316
      8          1           0       -1.937155    1.064554   -0.764126
      9          1           0        0.360014    1.767259   -0.757614
     10          1           0       -0.133054    2.569346    0.594760
     11         16           0        2.063826   -0.298704   -0.581401
     12          1           0        0.947269   -1.134963    1.355083
     13          1           0        1.667808    0.451448    1.614315
 ---------------------------------------------------------------------

 SCF Done:  E(UHF) =  -719.228317455     A.U. after    2 cycles

 The electronic state is 2-A.
 Alpha  occ. eigenvalues --  -93.98434 -20.59105 -20.53312 -15.53283 -11.39190
 Alpha  occ. eigenvalues --  -11.31371 -11.29537  -8.26469  -6.25644  -6.23878
 Alpha  occ. eigenvalues --   -6.23574  -1.54140  -1.45476  -1.23439  -1.09995
 Alpha  occ. eigenvalues --   -0.99487  -0.87990  -0.81283  -0.76644  -0.72669
 Alpha  occ. eigenvalues --   -0.68984  -0.64916  -0.64557  -0.61923  -0.59184
 Alpha  occ. eigenvalues --   -0.55750  -0.51268  -0.49604  -0.46766  -0.45246
 Alpha  occ. eigenvalues --   -0.43458  -0.39907
 Alpha virt. eigenvalues --    0.02091   0.03877   0.04439   0.05517   0.06462
 Alpha virt. eigenvalues --    0.06601   0.07902   0.10066   0.10562   0.11928
 Alpha virt. eigenvalues --    0.13300   0.13896   0.14661   0.14954   0.15057

  Beta  occ. eigenvalues --  -93.97535 -20.59106 -20.53303 -15.53281 -11.39193
  Beta  occ. eigenvalues --  -11.31365 -11.29664  -8.25435  -6.23351  -6.23034
  Beta  occ. eigenvalues --   -6.21650  -1.54137  -1.45459  -1.23373  -1.07469
  Beta  occ. eigenvalues --   -0.96563  -0.84472  -0.80784  -0.76273  -0.72566
  Beta  occ. eigenvalues --   -0.68735  -0.64810  -0.63818  -0.60908  -0.58964
  Beta  occ. eigenvalues --   -0.55148  -0.50542  -0.49033  -0.46671  -0.43434
  Beta  occ. eigenvalues --   -0.37747
  Beta virt. eigenvalues --   -0.00526   0.02136   0.03908   0.04577   0.05558
  Beta virt. eigenvalues --    0.06526   0.06694   0.08014   0.10122   0.11241
  Beta virt. eigenvalues --    0.12064   0.13443   0.13995   0.14938   0.15092

 Mulliken charges and spin densities:
               1          2
     1  C   -0.397178  -0.128541
     2  C   -1.523776  -0.022171
     3  N    0.197647  -0.002906
     4  C    2.160462   0.008924
     5  H    0.290061   0.002073
     6  O   -1.232424   0.006155
     7  O   -1.287969   0.000461
     8  H    0.500210   0.000359
     9  H    0.283037  -0.010427
    10  H    0.285522  -0.000731
    11  S    0.249976   1.113572
    12  H    0.247130   0.013348
    13  H    0.227302   0.019884
 Sum of Mulliken charges =  -0.00000   1.00000

 Dipole moment (field-independent basis, Debye):
    X=              1.9963    Y=              4.4965    Z=              2.2605  Tot=              5.4142
                          Isotropic Fermi Contact Couplings
        Atom                 a.u.       MegaHertz       Gauss      10(-4) cm-1
     1  C(13)             -0.02605     -29.28908     -10.45107      -9.76978
     2  C(13)              0.00086       0.97224       0.34692       0.32430
     3  N(14)             -0.00127      -0.41107      -0.14668      -0.13712
     4  C(13)             -0.00054      -0.61239      -0.21852      -0.20427
     5  H(1)              -0.00056      -2.48194      -0.88562      -0.82789
     6  O(17)              0.00070      -0.42433      -0.15141      -0.14154
     7  O(17)             -0.00021       0.12763       0.04554       0.04257
     8  H(1)               0.00001       0.04936       0.01761       0.01647

 Normal termination of Gaussian 16 at Tue Apr  8 23:14:31 2025.
