 Gaussian 16, Revision C.01,

 ----------------------------------------------------------------------
 #t hf aug-cc-pvdz symm=none int=(grid=ultrafine) guess=(read,tcheck) s
 table=opt
 ----------------------------------------------------------------------
 -----
 title
 -----
 Symbolic Z-matrix:
 Charge =  0 Multiplicity = 2

 SCF Done:  E(UHF) =  -2624.37790126     A.U. after   17 cycles
 Normal termination of Gaussian 16 at Tue Apr  8 23:48:36 2025.
 Gaussian 16:  ES64L-G16RevC.01  3-Jul-2019

 ----------------------------------------------------------------------
 #t hf aug-cc-pvdz iop(5/13=1,5/36=2,99/5=2) pseudo=read geom=check gue
 ss=(read,tcheck) scf=(maxcycle=1)
 ----------------------------------------------------------------------
 -----
 title
 -----
 Structure from the checkpoint file:  "BDE49_nonexpt_1815_mol2.chk"
 Charge =  0 Multiplicity = 2

                         Standard orientation:
 ---------------------------------------------------------------------
 Center     Atomic      Atomic             Coordinates (Angstroms)
 Number     Number       Type             X           Y           Z
 ---------------------------------------------------------------------
      1          6           0        0.870182    0.000000    0.003893
      2         14           0       -0.948387   -0.000000   -0.678556
      3         17           0        0.920594   -0.000003    1.795735
      4         17           0        1.690206    1.467899   -0.631818
      5         17           0        1.690208   -1.467896   -0.631823
      6         17           0       -1.913553    1.689628    0.012671
      7         17           0       -1.913553   -1.689628    0.012671
 ---------------------------------------------------------------------

 SCF Done:  E(UHF) =  -2624.82078369     A.U. after    2 cycles

 The electronic state is 2-A.
 Alpha  occ. eigenvalues -- -105.60911-105.60910-105.60751-105.59246-105.59246
 Alpha  occ. eigenvalues --  -69.67102 -11.45212 -10.65714 -10.65703 -10.65542
 Alpha  occ. eigenvalues --  -10.64233 -10.64221  -7.82643  -7.82639  -7.82532
 Alpha  occ. eigenvalues --   -7.82226  -7.82225  -7.82223  -7.82221  -7.82062
 Alpha  occ. eigenvalues --   -7.82044  -7.81226  -7.81219  -7.80801  -7.80798
 Alpha  occ. eigenvalues --   -7.80746  -7.80743  -6.33247  -4.08844  -4.08226
 Alpha  occ. eigenvalues --   -4.08093  -1.21852  -1.10750  -1.08268  -1.07979
 Alpha  occ. eigenvalues --   -1.07019  -0.87069  -0.74107  -0.64873  -0.64861
 Alpha  occ. eigenvalues --   -0.64029  -0.58850  -0.55650  -0.52573  -0.52286
 Alpha  occ. eigenvalues --   -0.51827  -0.51032  -0.49483  -0.48484  -0.47764
 Alpha  occ. eigenvalues --   -0.46999  -0.46494  -0.39078
 Alpha virt. eigenvalues --    0.04590   0.05588   0.05592   0.06089   0.08075
 Alpha virt. eigenvalues --    0.08572   0.08940   0.10646   0.11662   0.11946
 Alpha virt. eigenvalues --    0.12654   0.13226   0.13669   0.14277   0.16106

  Beta  occ. eigenvalues -- -105.60919-105.60919-105.60713-105.59131-105.59131
  Beta  occ. eigenvalues --  -69.66483 -11.44915 -10.65722 -10.65711 -10.65503
  Beta  occ. eigenvalues --  -10.64107 -10.64096  -7.82674  -7.82670  -7.82417
  Beta  occ. eigenvalues --   -7.82237  -7.82236  -7.82225  -7.82222  -7.82023
  Beta  occ. eigenvalues --   -7.82005  -7.80933  -7.80927  -7.80683  -7.80681
  Beta  occ. eigenvalues --   -7.80574  -7.80571  -6.32215  -4.07827  -4.07715
  Beta  occ. eigenvalues --   -4.06864  -1.21485  -1.09677  -1.08151  -1.07763
  Beta  occ. eigenvalues --   -1.06240  -0.85776  -0.71597  -0.64694  -0.64458
  Beta  occ. eigenvalues --   -0.62500  -0.57502  -0.53737  -0.52547  -0.51786
  Beta  occ. eigenvalues --   -0.51433  -0.50271  -0.49171  -0.48350  -0.47704
  Beta  occ. eigenvalues --   -0.46952  -0.45294
  Beta virt. eigenvalues --   -0.01381   0.05237   0.05791   0.05826   0.06128
  Beta virt. eigenvalues --    0.08549   0.09009   0.09205   0.11088   0.12408
  Beta virt. eigenvalues --    0.12769   0.12820   0.13459   0.15106   0.16283

 Mulliken charges and spin densities:
               1          2
     1  C   -0.825422   0.020119
     2  Si   1.575926   0.862475
     3  Cl   0.070680   0.019674
     4  Cl   0.093542  -0.002211
     5  Cl   0.093542  -0.002211
     6  Cl  -0.504134   0.051077
     7  Cl  -0.504134   0.051077
 Sum of Mulliken charges =  -0.00000   1.00000

 Dipole moment (field-independent basis, Debye):
    X=             -0.1049    Y=              0.0000    Z=             -0.8375  Tot=              0.8440
                          Isotropic Fermi Contact Couplings
        Atom                 a.u.       MegaHertz       Gauss      10(-4) cm-1
     1  C(13)              0.07750      87.12871      31.08969      29.06301
     2  Si(29)             1.05865    -940.85235    -335.71952    -313.83456
     3  Cl(35)             0.01087       4.76771       1.70124       1.59034
     4  Cl(35)            -0.00314      -1.37527      -0.49073      -0.45874
     5  Cl(35)            -0.00314      -1.37526      -0.49073      -0.45874
     6  Cl(35)             0.06577      28.83663      10.28963       9.61887
     7  Cl(35)             0.06577      28.83662      10.28962       9.61886
 --------------------------------------------------------

 Normal termination of Gaussian 16 at Tue Apr  8 23:48:40 2025.
