 Gaussian 16, Revision C.01,

 ----------------------------------------------------------------------
 #t hf aug-cc-pvdz symm=none int=(grid=ultrafine) guess=(read,tcheck) s
 table=(opt,rrhf)
 ----------------------------------------------------------------------
 -----
 title
 -----
 Symbolic Z-matrix:
 Charge =  0 Multiplicity = 1

 SCF Done:  E(RHF) =  -536.566026419     A.U. after   12 cycles
 Normal termination of Gaussian 16 at Wed Apr  9 00:20:35 2025.
 Gaussian 16:  ES64L-G16RevC.01  3-Jul-2019

 ----------------------------------------------------------------------
 #t hf aug-cc-pvdz iop(5/13=1,5/36=2,99/5=2) pseudo=read geom=check gue
 ss=(read,tcheck) scf=(maxcycle=1)
 ----------------------------------------------------------------------
 -----
 title
 -----
 Structure from the checkpoint file:  "BDE49_nonexpt_2615_mol1.chk"
 Charge =  0 Multiplicity = 1

                         Standard orientation:
 ---------------------------------------------------------------------
 Center     Atomic      Atomic             Coordinates (Angstroms)
 Number     Number       Type             X           Y           Z
 ---------------------------------------------------------------------
      1          9           0       -1.262785    0.603547    0.000004
      2          1           0        1.403151    1.040836    0.898913
      3          1           0        2.194880   -0.277391   -0.000001
      4          1           0        1.403151    1.040839   -0.898913
      5          6           0        1.355554    0.425951   -0.000001
      6         16           0       -0.110590   -0.611995   -0.000002
 ---------------------------------------------------------------------

 SCF Done:  E(RHF) =  -536.759881211     A.U. after    2 cycles

 The electronic state is 1-A.
 Alpha  occ. eigenvalues --  -94.03233 -26.46432 -11.28696  -8.30533  -6.28343
 Alpha  occ. eigenvalues --   -6.28033  -6.27745  -1.56342  -1.07324  -0.88752
 Alpha  occ. eigenvalues --   -0.65721  -0.65535  -0.65052  -0.60754  -0.58238
 Alpha  occ. eigenvalues --   -0.49300  -0.37724
 Alpha virt. eigenvalues --    0.03281   0.05003   0.05487   0.07347   0.08160
 Alpha virt. eigenvalues --    0.12134   0.13527   0.14617   0.15216   0.16155
 Alpha virt. eigenvalues --    0.18240   0.23409   0.24442   0.25172   0.25915

 Mulliken charges:
               1
     1  F   -0.654507
     2  H    0.201786
     3  H    0.206491
     4  H    0.201786
     5  C   -0.772211
     6  S    0.816654
 Sum of Mulliken charges =  -0.00000

 Dipole moment (field-independent basis, Debye):
    X=              2.5727    Y=              0.0918    Z=             -0.0000  Tot=              2.5744

 Test job not archived.
 1\1\GINC-SE109\SP\RHF\Aug-CC-pVDZ\C1H3F1S1\OHZDE\09-Apr-2025\0\\#t hf
 aug-cc-pvdz iop(5/13=1,5/36=2,99/5=2) pseudo=read geom=check guess=(re
 ad,tcheck) scf=(maxcycle=1)\\title\\0,1\F,0,-1.262785,0.603547,0.00000
 4\H,0,1.403151,1.040836,0.898913\H,0,2.19488,-0.277391,-0.000001\H,0,1
 .403151,1.040839,-0.898913\C,0,1.355554,0.425951,-0.000001\S,0,-0.1105
 9,-0.611995,-0.000002\\Version=ES64L-G16RevC.01\State=1-A\HF=-536.7598
 812\RMSD=5.004e-03\Dipole=1.0121975,0.0361111,-0.0000012\Quadrupole=0.
 9655547,-0.082257,-0.8832977,0.7767002,0.0000014,0.0000007\PG=C01 [X(C

 Normal termination of Gaussian 16 at Wed Apr  9 00:20:37 2025.
