 Gaussian 16, Revision C.01,

 ----------------------------------------------------------------------
 #t hf aug-cc-pvdz symm=none int=(grid=ultrafine) guess=(read,tcheck) s
 table=(opt,rrhf)
 ----------------------------------------------------------------------
 -----
 title
 -----
 Symbolic Z-matrix:
 Charge =  0 Multiplicity = 1

 SCF Done:  E(RHF) =  -270.056073114     A.U. after   12 cycles

 1\1\GINC-SE398\Stability\RHF\Aug-CC-pVDZ\C5H10O1\OHZDE\08-Apr-2025\0\\
 #t hf aug-cc-pvdz symm=none int=(grid=ultrafine) guess=(read,tcheck) s
 table=(opt,rrhf)\\title\\0,1\C,0,-1.09827,-0.890638,-0.429536\C,0,-1.4
 49968,0.599569,-0.225603\C,0,0.019395,-1.13726,0.59481\H,0,-0.70137,-1
 .047022,-1.43563\H,0,-1.957146,-1.553097,-0.30028\C,0,0.878317,0.13206
 2,0.486068\H,0,0.595536,-2.05,0.412785\H,0,-0.398669,-1.208684,1.60640
 6\C,0,-0.144333,1.267853,0.295365\H,0,-0.317681,1.788125,1.24052\H,0,0
 .267007,1.994126,-0.407306\H,0,-2.24573,0.697553,0.518887\H,0,-1.81539

 Normal termination of Gaussian 16 at Tue Apr  8 22:40:45 2025.
 Gaussian 16:  ES64L-G16RevC.01  3-Jul-2019

 ----------------------------------------------------------------------
 #t hf aug-cc-pvdz iop(5/13=1,5/36=2,99/5=2) pseudo=read geom=check gue
 ss=(read,tcheck) scf=(maxcycle=1)
 ----------------------------------------------------------------------
 -----
 title
 -----
 Structure from the checkpoint file:  "BDE49_expt_1343_mol1.chk"
 Charge =  0 Multiplicity = 1

                         Standard orientation:
 ---------------------------------------------------------------------
 Center     Atomic      Atomic             Coordinates (Angstroms)
 Number     Number       Type             X           Y           Z
 ---------------------------------------------------------------------
      1          6           0       -1.098270   -0.890638   -0.429536
      2          6           0       -1.449968    0.599569   -0.225603
      3          6           0        0.019395   -1.137260    0.594810
      4          1           0       -0.701370   -1.047022   -1.435630
      5          1           0       -1.957146   -1.553097   -0.300280
      6          6           0        0.878317    0.132062    0.486068
      7          1           0        0.595536   -2.050000    0.412785
      8          1           0       -0.398669   -1.208684    1.606406
      9          6           0       -0.144333    1.267853    0.295365
     10          1           0       -0.317681    1.788125    1.240520
     11          1           0        0.267007    1.994126   -0.407306
     12          1           0       -2.245730    0.697553    0.518887
     13          1           0       -1.815395    1.064746   -1.143198
     14          8           0        1.692226    0.104939   -0.695697
     15          1           0        1.511552    0.288453    1.368422
     16          1           0        2.293244   -0.643232   -0.621657
 ---------------------------------------------------------------------

 SCF Done:  E(RHF) =  -270.347369971     A.U. after    2 cycles

 The electronic state is 1-A.
 Alpha  occ. eigenvalues --  -20.54157 -11.28098 -11.22668 -11.22265 -11.22160
 Alpha  occ. eigenvalues --  -11.22078  -1.44006  -1.11123  -0.96454  -0.95083
 Alpha  occ. eigenvalues --   -0.78974  -0.77228  -0.69199  -0.66186  -0.64385
 Alpha  occ. eigenvalues --   -0.59036  -0.54875  -0.53270  -0.50256  -0.48521
 Alpha  occ. eigenvalues --   -0.47802  -0.46915  -0.45617  -0.42920
 Alpha virt. eigenvalues --    0.03517   0.03874   0.04026   0.04575   0.06233
 Alpha virt. eigenvalues --    0.06348   0.06663   0.07013   0.07118   0.09498
 Alpha virt. eigenvalues --    0.13261   0.13732   0.14529   0.15041   0.15261

 Mulliken charges:
               1
     1  C   -0.258708
     2  C   -0.181650
     3  C   -0.161669
     4  H    0.119998
     5  H    0.104884
     6  C    0.967802
     7  H    0.109190
     8  H    0.103978
     9  C   -0.349253
    10  H    0.149418
    11  H    0.154493
    12  H    0.104693
    13  H    0.118386
    14  O   -1.361928
    15  H    0.107855
    16  H    0.272510
 Sum of Mulliken charges =  -0.00000

 Dipole moment (field-independent basis, Debye):
    X=             -0.0679    Y=             -1.0362    Z=              1.1836  Tot=              1.5746

 Test job not archived.
 1\1\GINC-SE398\SP\RHF\Aug-CC-pVDZ\C5H10O1\OHZDE\08-Apr-2025\0\\#t hf a
 ug-cc-pvdz iop(5/13=1,5/36=2,99/5=2) pseudo=read geom=check guess=(rea
 d,tcheck) scf=(maxcycle=1)\\title\\0,1\C,0,-1.09827,-0.890638,-0.42953
 6\C,0,-1.449968,0.599569,-0.225603\C,0,0.019395,-1.13726,0.59481\H,0,-
 0.70137,-1.047022,-1.43563\H,0,-1.957146,-1.553097,-0.30028\C,0,0.8783
 17,0.132062,0.486068\H,0,0.595536,-2.05,0.412785\H,0,-0.398669,-1.2086
 84,1.606406\C,0,-0.144333,1.267853,0.295365\H,0,-0.317681,1.788125,1.2
 4052\H,0,0.267007,1.994126,-0.407306\H,0,-2.24573,0.697553,0.518887\H,

 Normal termination of Gaussian 16 at Tue Apr  8 22:40:50 2025.
