 Gaussian 16, Revision C.01,

 ----------------------------------------------------------------------
 #t hf aug-cc-pvdz symm=none int=(grid=ultrafine) guess=(read,tcheck) s
 table=(opt,rrhf)
 ----------------------------------------------------------------------
 -----
 title
 -----
 Symbolic Z-matrix:
 Charge =  0 Multiplicity = 1

 SCF Done:  E(RHF) =  -1012.67151914     A.U. after   15 cycles
 Normal termination of Gaussian 16 at Tue Apr  8 23:16:00 2025.
 Gaussian 16:  ES64L-G16RevC.01  3-Jul-2019

 ----------------------------------------------------------------------
 #t hf aug-cc-pvdz iop(5/13=1,5/36=2,99/5=2) pseudo=read geom=check gue
 ss=(read,tcheck) scf=(maxcycle=1)
 ----------------------------------------------------------------------
 -----
 title
 -----
 Structure from the checkpoint file:  "BDE49_nonexpt_1014_mol1.chk"
 Charge =  0 Multiplicity = 1

                         Standard orientation:
 ---------------------------------------------------------------------
 Center     Atomic      Atomic             Coordinates (Angstroms)
 Number     Number       Type             X           Y           Z
 ---------------------------------------------------------------------
      1         16           0       -0.789123   -1.104789   -0.194029
      2          7           0       -1.968614    0.315098   -0.004518
      3          8           0       -1.609619    1.419188   -0.299399
      4          8           0       -3.035914   -0.074132    0.412277
      5          8           0        0.532832   -0.311997   -0.832497
      6          6           0        1.522301    0.106208    0.046535
      7          9           0        2.410953    0.767114   -0.678569
      8          9           0        2.118833   -0.938382    0.632096
      9          9           0        1.045110    0.901181    1.003566
 ---------------------------------------------------------------------

 SCF Done:  E(RHF) =  -1013.29306491     A.U. after    2 cycles

 The electronic state is 1-A.
 Alpha  occ. eigenvalues --  -94.12003 -26.54487 -26.54482 -26.54458 -20.67916
 Alpha  occ. eigenvalues --  -20.64038 -20.63339 -15.83992 -11.61160  -8.39063
 Alpha  occ. eigenvalues --   -6.36801  -6.36585  -6.36227  -1.77283  -1.72324
 Alpha  occ. eigenvalues --   -1.66100  -1.65693  -1.57965  -1.56825  -1.13837
 Alpha  occ. eigenvalues --   -0.99730  -0.93390  -0.86948  -0.86539  -0.86219
 Alpha  occ. eigenvalues --   -0.79880  -0.79038  -0.78530  -0.73228  -0.72757
 Alpha  occ. eigenvalues --   -0.68102  -0.67710  -0.66666  -0.65709  -0.63262
 Alpha  occ. eigenvalues --   -0.60531  -0.53441  -0.49582  -0.49291  -0.46263
 Alpha virt. eigenvalues --    0.02788   0.03886   0.05672   0.07989   0.08420
 Alpha virt. eigenvalues --    0.08893   0.09636   0.11323   0.11728   0.14221
 Alpha virt. eigenvalues --    0.15361   0.16272   0.18304   0.18976   0.21867

 Mulliken charges:
               1
     1  S    0.994163
     2  N    1.742666
     3  O   -1.081134
     4  O   -1.134363
     5  O   -1.287084
     6  C    2.765381
     7  F   -0.654126
     8  F   -0.676020
     9  F   -0.669482
 Sum of Mulliken charges =   0.00000

 Dipole moment (field-independent basis, Debye):
    X=              1.2106    Y=             -1.8936    Z=             -0.1674  Tot=              2.2537

 Test job not archived.
 1\1\GINC-SE252\SP\RHF\Aug-CC-pVDZ\C1F3N1O3S1\OHZDE\08-Apr-2025\0\\#t h
 f aug-cc-pvdz iop(5/13=1,5/36=2,99/5=2) pseudo=read geom=check guess=(
 read,tcheck) scf=(maxcycle=1)\\title\\0,1\S,0,-0.789123,-1.104789,-0.1
 94029\N,0,-1.968614,0.315098,-0.004518\O,0,-1.609619,1.419188,-0.29939
 9\O,0,-3.035914,-0.074132,0.412277\O,0,0.532832,-0.311997,-0.832497\C,
 0,1.522301,0.106208,0.046535\F,0,2.410953,0.767114,-0.678569\F,0,2.118
 833,-0.938382,0.632096\F,0,1.04511,0.901181,1.003566\\Version=ES64L-G1
 6RevC.01\State=1-A\HF=-1013.2930649\RMSD=9.043e-03\Dipole=0.476305,-0.

 Normal termination of Gaussian 16 at Tue Apr  8 23:16:05 2025.
