 Gaussian 16, Revision C.01,

 ----------------------------------------------------------------------
 #t hf aug-cc-pvdz symm=none int=(grid=ultrafine) guess=(read,tcheck) s
 table=(opt,rrhf)
 ----------------------------------------------------------------------
 -----
 title
 -----
 Symbolic Z-matrix:
 Charge =  0 Multiplicity = 1

 SCF Done:  E(RHF) =  -1103.85295552     A.U. after   16 cycles
 Normal termination of Gaussian 16 at Tue Apr  8 23:00:24 2025.
 Gaussian 16:  ES64L-G16RevC.01  3-Jul-2019

 ----------------------------------------------------------------------
 #t hf aug-cc-pvdz iop(5/13=1,5/36=2,99/5=2) pseudo=read geom=check gue
 ss=(read,tcheck) scf=(maxcycle=1)
 ----------------------------------------------------------------------
 -----
 title
 -----
 Structure from the checkpoint file:  "BDE49_expt_1896_mol1.chk"
 Charge =  0 Multiplicity = 1

                         Standard orientation:
 ---------------------------------------------------------------------
 Center     Atomic      Atomic             Coordinates (Angstroms)
 Number     Number       Type             X           Y           Z
 ---------------------------------------------------------------------
      1          6           0       -0.701621    0.494764    0.417406
      2          8           0       -0.209495    1.584873    0.409421
      3          8           0        0.016687   -0.661001    0.711759
      4          8           0        1.360596   -0.342790    1.089388
      5          6           0        2.179889   -0.187188   -0.013602
      6          8           0        1.860767   -0.356723   -1.142382
      7          6           0       -2.116570    0.149409    0.127672
      8          6           0       -2.608861   -1.160959    0.172375
      9          6           0       -3.948569   -1.402515   -0.111279
     10          6           0       -4.797532   -0.345990   -0.437879
     11          6           0       -4.307749    0.959035   -0.482842
     12          6           0       -2.970550    1.208548   -0.201457
     13          1           0       -2.568174    2.213179   -0.231858
     14          1           0       -1.948743   -1.980276    0.423320
     15          1           0       -4.330486   -2.416077   -0.078428
     16          1           0       -5.841112   -0.540005   -0.658491
     17          1           0       -4.967794    1.779712   -0.738037
     18          6           0        3.517461    0.277559    0.542530
     19         17           0        4.868470   -0.117315   -0.559161
     20          1           0        3.713369   -0.174253    1.512083
     21          1           0        3.475121    1.361225    0.654124
 ---------------------------------------------------------------------

 SCF Done:  E(RHF) =  -1104.56154082     A.U. after    2 cycles

 The electronic state is 1-A.
 Alpha  occ. eigenvalues -- -105.57672 -20.67905 -20.67551 -20.57007 -20.56158
 Alpha  occ. eigenvalues --  -11.42582 -11.41959 -11.33998 -11.27706 -11.27494
 Alpha  occ. eigenvalues --  -11.27289 -11.27167 -11.26377 -11.26304 -10.62450
 Alpha  occ. eigenvalues --   -7.79409  -7.78997  -7.78990  -1.67301  -1.52680
 Alpha  occ. eigenvalues --   -1.50428  -1.37641  -1.18312  -1.13225  -1.06225
 Alpha  occ. eigenvalues --   -1.04323  -0.97822  -0.90999  -0.86434  -0.83979
 Alpha  occ. eigenvalues --   -0.79888  -0.77254  -0.74708  -0.72269  -0.71541
 Alpha  occ. eigenvalues --   -0.68354  -0.67327  -0.65827  -0.65203  -0.63182
 Alpha  occ. eigenvalues --   -0.62478  -0.60846  -0.60078  -0.56567  -0.54977
 Alpha  occ. eigenvalues --   -0.53453  -0.52945  -0.50772  -0.50601  -0.48403
 Alpha  occ. eigenvalues --   -0.46947  -0.46276  -0.45843  -0.37406  -0.36870
 Alpha virt. eigenvalues --    0.02818   0.03422   0.03776   0.04560   0.04995
 Alpha virt. eigenvalues --    0.05239   0.06620   0.06745   0.07683   0.08894
 Alpha virt. eigenvalues --    0.09228   0.09954   0.10764   0.11448   0.12182

 Mulliken charges:
               1
     1  C    0.989621
     2  O   -1.321701
     3  O   -0.895460
     4  O   -0.859863
     5  C    1.911265
     6  O   -1.111285
     7  C    2.458961
     8  C   -0.131413
     9  C    0.425811
    10  C   -0.130833
    11  C    0.440841
    12  C   -0.475739
    13  H   -0.330926
    14  H   -0.296645
    15  H   -0.221836
    16  H   -0.209877
    17  H   -0.210054
    18  C   -0.725843
    19  Cl   0.036193
    20  H    0.292413
    21  H    0.366368
 Sum of Mulliken charges =  -0.00000

 Dipole moment (field-independent basis, Debye):
    X=             -3.2196    Y=             -0.4682    Z=              1.9388  Tot=              3.7873

 Test job not archived.
 1\1\GINC-SE329\SP\RHF\Aug-CC-pVDZ\C9H7Cl1O4\OHZDE\08-Apr-2025\0\\#t hf
  aug-cc-pvdz iop(5/13=1,5/36=2,99/5=2) pseudo=read geom=check guess=(r
 ead,tcheck) scf=(maxcycle=1)\\title\\0,1\C,0,-0.701621,0.494764,0.4174
 06\O,0,-0.209495,1.584873,0.409421\O,0,0.016687,-0.661001,0.711759\O,0
 ,1.360596,-0.34279,1.089388\C,0,2.179889,-0.187188,-0.013602\O,0,1.860
 767,-0.356723,-1.142382\C,0,-2.11657,0.149409,0.127672\C,0,-2.608861,-
 1.160959,0.172375\C,0,-3.948569,-1.402515,-0.111279\C,0,-4.797532,-0.3
 4599,-0.437879\C,0,-4.307749,0.959035,-0.482842\C,0,-2.97055,1.208548,

 Normal termination of Gaussian 16 at Tue Apr  8 23:00:41 2025.
