 Gaussian 16, Revision C.01,

 ----------------------------------------------------------------------
 #t hf aug-cc-pvdz symm=none int=(grid=ultrafine) guess=(read,tcheck) s
 table=(opt,rrhf)
 ----------------------------------------------------------------------
 -----
 title
 -----
 Symbolic Z-matrix:
 Charge =  0 Multiplicity = 1

 SCF Done:  E(RHF) =  -1139.25396402     A.U. after   11 cycles
 Normal termination of Gaussian 16 at Wed Apr  9 00:09:30 2025.
 Gaussian 16:  ES64L-G16RevC.01  3-Jul-2019

 ----------------------------------------------------------------------
 #t hf aug-cc-pvdz iop(5/13=1,5/36=2,99/5=2) pseudo=read geom=check gue
 ss=(read,tcheck) scf=(maxcycle=1)
 ----------------------------------------------------------------------
 -----
 title
 -----
 Structure from the checkpoint file:  "BDE49_nonexpt_2323_mol1.chk"
 Charge =  0 Multiplicity = 1

                         Standard orientation:
 ---------------------------------------------------------------------
 Center     Atomic      Atomic             Coordinates (Angstroms)
 Number     Number       Type             X           Y           Z
 ---------------------------------------------------------------------
      1         14           0       -1.354162   -0.582188    0.000000
      2         14           0        0.526020    0.842900    0.000001
      3         17           0        2.201794   -0.413677   -0.000001
      4          1           0        0.605369    1.690483    1.208085
      5          1           0        0.605368    1.690485   -1.208082
      6          9           0       -2.700936    0.317521    0.000000
      7          1           0       -1.369413   -1.428062    1.212424
      8          1           0       -1.369413   -1.428059   -1.212427
 ---------------------------------------------------------------------

 SCF Done:  E(RHF) =  -1139.49022212     A.U. after    2 cycles

 The electronic state is 1-A.
 Alpha  occ. eigenvalues -- -105.56617 -69.59345 -69.58648 -26.45903 -10.61598
 Alpha  occ. eigenvalues --   -7.78484  -7.78174  -7.78170  -6.25971  -6.25447
 Alpha  occ. eigenvalues --   -4.01398  -4.01185  -4.01175  -4.00862  -4.00692
 Alpha  occ. eigenvalues --   -4.00685  -1.56828  -1.05948  -0.79978  -0.73271
 Alpha  occ. eigenvalues --   -0.65153  -0.65041  -0.62843  -0.54803  -0.54336
 Alpha  occ. eigenvalues --   -0.50349  -0.50061  -0.46408  -0.42217
 Alpha virt. eigenvalues --    0.03765   0.03908   0.04413   0.05808   0.06908
 Alpha virt. eigenvalues --    0.07615   0.07756   0.08826   0.09674   0.09963
 Alpha virt. eigenvalues --    0.10584   0.12310   0.13663   0.13969   0.15967

 Mulliken charges:
               1
     1  Si   1.222479
     2  Si   0.675407
     3  Cl  -0.557639
     4  H   -0.116295
     5  H   -0.116295
     6  F   -0.812957
     7  H   -0.147350
     8  H   -0.147350
 Sum of Mulliken charges =  -0.00000

 Dipole moment (field-independent basis, Debye):
    X=             -0.3068    Y=              0.2823    Z=              0.0000  Tot=              0.4169

 Test job not archived.
 1\1\GINC-SE106\SP\RHF\Aug-CC-pVDZ\Cl1F1H4Si2\OHZDE\09-Apr-2025\0\\#t h
 f aug-cc-pvdz iop(5/13=1,5/36=2,99/5=2) pseudo=read geom=check guess=(
 read,tcheck) scf=(maxcycle=1)\\title\\0,1\Si,0,-1.354162,-0.582188,0.\
 Si,0,0.52602,0.8429,0.000001\Cl,0,2.201794,-0.413676,-0.000001\H,0,0.6
 05369,1.690483,1.208085\H,0,0.605368,1.690485,-1.208082\F,0,-2.700936,
 0.317521,0.\H,0,-1.369413,-1.428062,1.212424\H,0,-1.369413,-1.428059,-
 1.212427\\Version=ES64L-G16RevC.01\State=1-A\HF=-1139.4902221\RMSD=3.4
 17e-03\Dipole=-0.1206997,0.1110746,0.0000019\Quadrupole=-4.4488889,2.5

 Normal termination of Gaussian 16 at Wed Apr  9 00:09:33 2025.
