 Gaussian 16, Revision C.01,

 ----------------------------------------------------------------------
 #t hf aug-cc-pvdz symm=none int=(grid=ultrafine) guess=(read,tcheck) s
 table=(opt,rrhf)
 ----------------------------------------------------------------------
 -----
 title
 -----
 Symbolic Z-matrix:
 Charge =  0 Multiplicity = 1

 SCF Done:  E(RHF) =  -1005.48699417     A.U. after   15 cycles
 Normal termination of Gaussian 16 at Wed Apr  9 00:19:37 2025.
 Gaussian 16:  ES64L-G16RevC.01  3-Jul-2019

 ----------------------------------------------------------------------
 #t hf aug-cc-pvdz iop(5/13=1,5/36=2,99/5=2) pseudo=read geom=check gue
 ss=(read,tcheck) scf=(maxcycle=1)
 ----------------------------------------------------------------------
 -----
 title
 -----
 Structure from the checkpoint file:  "BDE49_nonexpt_2594_mol1.chk"
 Charge =  0 Multiplicity = 1

                         Standard orientation:
 ---------------------------------------------------------------------
 Center     Atomic      Atomic             Coordinates (Angstroms)
 Number     Number       Type             X           Y           Z
 ---------------------------------------------------------------------
      1         17           0       -1.896483   -0.748887   -0.000008
      2         16           0       -0.690639    0.992303    0.000010
      3          7           0        0.895526    0.622837   -0.000008
      4          7           0        1.421084   -0.492485    0.000007
      5          6           0        2.887406   -0.443831   -0.000000
      6          1           0        3.237421   -0.986710   -0.881760
      7          1           0        3.237434   -0.986684    0.881771
      8          1           0        3.274887    0.578157   -0.000018
 ---------------------------------------------------------------------

 SCF Done:  E(RHF) =  -1005.77297499     A.U. after    2 cycles

 The electronic state is 1-A.
 Alpha  occ. eigenvalues -- -105.58432 -94.05325 -15.62076 -15.59406 -11.28462
 Alpha  occ. eigenvalues --  -10.63115  -8.32865  -7.80039  -7.79608  -7.79579
 Alpha  occ. eigenvalues --   -6.30648  -6.30328  -6.30050  -1.41067  -1.16827
 Alpha  occ. eigenvalues --   -1.06218  -0.98632  -0.80976  -0.72045  -0.70751
 Alpha  occ. eigenvalues --   -0.67257  -0.57957  -0.57811  -0.52530  -0.50328
 Alpha  occ. eigenvalues --   -0.47779  -0.45033  -0.38766
 Alpha virt. eigenvalues --    0.03408   0.04289   0.04740   0.05432   0.05772
 Alpha virt. eigenvalues --    0.07653   0.08721   0.11246   0.11945   0.12750
 Alpha virt. eigenvalues --    0.13853   0.14135   0.15531   0.17000   0.17365

 Mulliken charges:
               1
     1  Cl  -0.240553
     2  S    0.473138
     3  N   -0.252277
     4  N   -0.154994
     5  C   -0.274338
     6  H    0.191822
     7  H    0.191821
     8  H    0.065381
 Sum of Mulliken charges =  -0.00000

 Dipole moment (field-independent basis, Debye):
    X=              2.1539    Y=              0.5234    Z=              0.0000  Tot=              2.2166

 Test job not archived.
 1\1\GINC-SE328\SP\RHF\Aug-CC-pVDZ\C1H3Cl1N2S1\OHZDE\09-Apr-2025\0\\#t
 hf aug-cc-pvdz iop(5/13=1,5/36=2,99/5=2) pseudo=read geom=check guess=
 (read,tcheck) scf=(maxcycle=1)\\title\\0,1\Cl,0,-1.896483,-0.748887,-0
 .000008\S,0,-0.690639,0.992303,0.00001\N,0,0.895526,0.622837,-0.000008
 \N,0,1.421084,-0.492485,0.000007\C,0,2.887406,-0.443831,0.\H,0,3.23742
 1,-0.98671,-0.88176\H,0,3.237434,-0.986684,0.881771\H,0,3.274887,0.578
 157,-0.000018\\Version=ES64L-G16RevC.01\State=1-A\HF=-1005.772975\RMSD
 =3.774e-02\Dipole=0.8474207,0.2059203,0.0000051\Quadrupole=3.936101,-1

 Normal termination of Gaussian 16 at Wed Apr  9 00:19:39 2025.
