 Gaussian 16, Revision C.01,

 ----------------------------------------------------------------------
 #t hf aug-cc-pvdz symm=none int=(grid=ultrafine) guess=(read,tcheck) s
 table=(opt,rrhf)
 ----------------------------------------------------------------------
 -----
 title
 -----
 Symbolic Z-matrix:
 Charge =  0 Multiplicity = 1

 SCF Done:  E(RHF) =  -287.507535326     A.U. after   15 cycles
 Normal termination of Gaussian 16 at Tue Apr  8 23:19:49 2025.
 Gaussian 16:  ES64L-G16RevC.01  3-Jul-2019

 ----------------------------------------------------------------------
 #t hf aug-cc-pvdz iop(5/13=1,5/36=2,99/5=2) pseudo=read geom=check gue
 ss=(read,tcheck) scf=(maxcycle=1)
 ----------------------------------------------------------------------
 -----
 title
 -----
 Structure from the checkpoint file:  "BDE49_nonexpt_1130_mol1.chk"
 Charge =  0 Multiplicity = 1

                         Standard orientation:
 ---------------------------------------------------------------------
 Center     Atomic      Atomic             Coordinates (Angstroms)
 Number     Number       Type             X           Y           Z
 ---------------------------------------------------------------------
      1          9           0       -1.317615   -0.508282   -0.000000
      2          8           0       -0.564265    0.704468   -0.000000
      3          6           0        0.777566    0.425665   -0.000000
      4          8           0        1.308733   -0.630637   -0.000000
      5          1           0        1.237400    1.429903    0.000001
 ---------------------------------------------------------------------

 SCF Done:  E(RHF) =  -287.776360053     A.U. after    2 cycles

 The electronic state is 1-A.
 Alpha  occ. eigenvalues --  -26.54705 -20.72684 -20.59269 -11.44124  -1.71278
 Alpha  occ. eigenvalues --   -1.54112  -1.41603  -0.90512  -0.79438  -0.74870
 Alpha  occ. eigenvalues --   -0.73206  -0.66626  -0.62326  -0.61875  -0.52344
 Alpha  occ. eigenvalues --   -0.49786
 Alpha virt. eigenvalues --    0.03166   0.07731   0.08443   0.09488   0.12453
 Alpha virt. eigenvalues --    0.13997   0.14770   0.20335   0.20887   0.22436
 Alpha virt. eigenvalues --    0.23883   0.26682   0.27787   0.29040   0.30323

 Mulliken charges:
               1
     1  F   -0.357183
     2  O   -0.328548
     3  C    1.370937
     4  O   -0.823509
     5  H    0.138303
 Sum of Mulliken charges =   0.00000

 Dipole moment (field-independent basis, Debye):
    X=              0.5451    Y=              2.4378    Z=              0.0000  Tot=              2.4980

 Test job not archived.
 1\1\GINC-SE453\SP\RHF\Aug-CC-pVDZ\C1H1F1O2\OHZDE\08-Apr-2025\0\\#t hf
 aug-cc-pvdz iop(5/13=1,5/36=2,99/5=2) pseudo=read geom=check guess=(re
 ad,tcheck) scf=(maxcycle=1)\\title\\0,1\F,0,1.317615,-0.508282,0.\O,0,
 0.564265,0.704468,0.\C,0,-0.777566,0.425665,0.\O,0,-1.308733,-0.630637
 ,0.\H,0,-1.2374,1.429903,-0.000001\\Version=ES64L-G16RevC.01\State=1-A
 \HF=-287.7763601\RMSD=7.674e-03\Dipole=-0.2144622,0.9591,-0.0000002\Qu
 adrupole=-1.2130746,0.6888705,0.5242041,-2.772725,0.0000006,-0.0000006
 \PG=C01 [X(C1H1F1O2)]\\@

 Normal termination of Gaussian 16 at Tue Apr  8 23:19:51 2025.
