 Gaussian 16, Revision C.01,

 ----------------------------------------------------------------------
 #t hf aug-cc-pvdz symm=none int=(grid=ultrafine) guess=(read,tcheck) s
 table=(opt,rrhf)
 ----------------------------------------------------------------------
 -----
 title
 -----
 Symbolic Z-matrix:
 Charge =  0 Multiplicity = 1

 SCF Done:  E(RHF) =  -1897.76958679     A.U. after   14 cycles
 Normal termination of Gaussian 16 at Tue Apr  8 23:50:33 2025.
 Gaussian 16:  ES64L-G16RevC.01  3-Jul-2019

 ----------------------------------------------------------------------
 #t hf aug-cc-pvdz iop(5/13=1,5/36=2,99/5=2) pseudo=read geom=check gue
 ss=(read,tcheck) scf=(maxcycle=1)
 ----------------------------------------------------------------------
 -----
 title
 -----
 Structure from the checkpoint file:  "BDE49_nonexpt_1825_mol1.chk"
 Charge =  0 Multiplicity = 1

                         Standard orientation:
 ---------------------------------------------------------------------
 Center     Atomic      Atomic             Coordinates (Angstroms)
 Number     Number       Type             X           Y           Z
 ---------------------------------------------------------------------
      1          6           0       -1.639896    1.208485   -0.025811
      2          6           0       -3.031405    1.206723    0.000333
      3          6           0       -3.727890   -0.000001    0.013870
      4          6           0       -3.031404   -1.206723    0.000333
      5          6           0       -1.639895   -1.208484   -0.025811
      6          6           0       -0.925819    0.000001   -0.039217
      7          1           0       -1.110882    2.154503   -0.043055
      8          1           0       -3.570775    2.146928    0.006799
      9         14           0        0.925458    0.000000   -0.007827
     10          1           0       -1.110880   -2.154501   -0.043055
     11         17           0        1.683041   -1.673519   -0.945509
     12         17           0        1.645486   -0.000022    1.926754
     13         17           0        1.683041    1.673540   -0.945472
     14          1           0       -3.570773   -2.146931    0.006798
     15          1           0       -4.811919   -0.000002    0.031750
 ---------------------------------------------------------------------

 SCF Done:  E(RHF) =  -1898.26761509     A.U. after    2 cycles

 The electronic state is 1-A.
 Alpha  occ. eigenvalues -- -105.57805-105.57805-105.57397 -69.66882 -11.27092
 Alpha  occ. eigenvalues --  -11.27082 -11.26794 -11.26124 -11.26107 -11.26015
 Alpha  occ. eigenvalues --  -10.62827 -10.62818 -10.62402  -7.79716  -7.79712
 Alpha  occ. eigenvalues --   -7.79394  -7.79391  -7.79385  -7.79384  -7.79297
 Alpha  occ. eigenvalues --   -7.78971  -7.78967  -6.32668  -4.08050  -4.08019
 Alpha  occ. eigenvalues --   -4.07870  -1.17575  -1.11118  -1.05927  -1.05425
 Alpha  occ. eigenvalues --   -1.03742  -1.03634  -0.85618  -0.85495  -0.75441
 Alpha  occ. eigenvalues --   -0.70761  -0.66430  -0.65464  -0.62144  -0.60473
 Alpha  occ. eigenvalues --   -0.58577  -0.58069  -0.53442  -0.53172  -0.52626
 Alpha  occ. eigenvalues --   -0.50784  -0.50670  -0.48142  -0.47934  -0.47252
 Alpha  occ. eigenvalues --   -0.46692  -0.37076  -0.36565
 Alpha virt. eigenvalues --    0.02940   0.03461   0.03976   0.05789   0.05829
 Alpha virt. eigenvalues --    0.05913   0.06476   0.07497   0.08658   0.08812
 Alpha virt. eigenvalues --    0.09426   0.11215   0.11686   0.11708   0.13091

 Mulliken charges:
               1
     1  C    0.204276
     2  C    0.440269
     3  C    0.272909
     4  C    0.440270
     5  C    0.204291
     6  C   -0.449034
     7  H   -0.339716
     8  H   -0.225021
     9  Si   1.837908
    10  H   -0.339721
    11  Cl  -0.528271
    12  Cl  -0.562993
    13  Cl  -0.528271
    14  H   -0.225020
    15  H   -0.201875
 Sum of Mulliken charges =  -0.00000

 Dipole moment (field-independent basis, Debye):
    X=             -3.1688    Y=             -0.0000    Z=             -0.0797  Tot=              3.1698

 Test job not archived.
 1\1\GINC-SE095\SP\RHF\Aug-CC-pVDZ\C6H5Cl3Si1\OHZDE\08-Apr-2025\0\\#t h
 f aug-cc-pvdz iop(5/13=1,5/36=2,99/5=2) pseudo=read geom=check guess=(
 read,tcheck) scf=(maxcycle=1)\\title\\0,1\C,0,-1.639896,1.208485,-0.02
 5811\C,0,-3.031405,1.206723,0.000333\C,0,-3.72789,0.,0.01387\C,0,-3.03
 1404,-1.206723,0.000333\C,0,-1.639895,-1.208484,-0.025811\C,0,-0.92581
 9,0.000001,-0.039217\H,0,-1.110882,2.154503,-0.043055\H,0,-3.570775,2.
 146929,0.006799\Si,0,0.925458,0.,-0.007827\H,0,-1.11088,-2.154501,-0.0
 43055\Cl,0,1.683041,-1.673519,-0.945509\Cl,0,1.645486,-0.000022,1.9267

 Normal termination of Gaussian 16 at Tue Apr  8 23:50:42 2025.
