 Gaussian 16, Revision C.01,

 ----------------------------------------------------------------------
 #t hf aug-cc-pvdz symm=none int=(grid=ultrafine) guess=(read,tcheck) s
 table=opt
 ----------------------------------------------------------------------
 -----
 title
 -----
 Symbolic Z-matrix:
 Charge =  0 Multiplicity = 2

 SCF Done:  E(UHF) =  -407.748127682     A.U. after   14 cycles

 1\1\GINC-SE454\Stability\UHF\Aug-CC-pVDZ\C3H9Si1\OHZDE\08-Apr-2025\0\\
 #t hf aug-cc-pvdz symm=none int=(grid=ultrafine) guess=(read,tcheck) s
 table=opt\\title\\0,2\Si,0,-1.858476,-0.001436,0.000001\C,0,2.427697,0
 .035687,-0.000002\C,0,-0.069337,0.616912,-0.000006\C,0,0.992531,-0.504
 361,0.000004\H,0,0.070913,1.2613,0.875883\H,0,0.070912,1.261283,-0.875
 909\H,0,0.84608,-1.146296,-0.875527\H,0,0.846081,-1.146279,0.875549\H,
 0,2.616045,0.653417,0.883334\H,0,2.616044,0.653399,-0.88335\H,0,3.1572
 53,-0.779347,0.000006\H,0,-2.155007,-0.813415,-1.21152\H,0,-2.155007,-

 Normal termination of Gaussian 16 at Tue Apr  8 23:40:22 2025.
 Gaussian 16:  ES64L-G16RevC.01  3-Jul-2019

 ----------------------------------------------------------------------
 #t hf aug-cc-pvdz iop(5/13=1,5/36=2,99/5=2) pseudo=read geom=check gue
 ss=(read,tcheck) scf=(maxcycle=1)
 ----------------------------------------------------------------------
 -----
 title
 -----
 Structure from the checkpoint file:  "BDE49_nonexpt_1632_mol2.chk"
 Charge =  0 Multiplicity = 2

                         Standard orientation:
 ---------------------------------------------------------------------
 Center     Atomic      Atomic             Coordinates (Angstroms)
 Number     Number       Type             X           Y           Z
 ---------------------------------------------------------------------
      1         14           0       -1.858476   -0.001436    0.000001
      2          6           0        2.427697    0.035687   -0.000002
      3          6           0       -0.069337    0.616912   -0.000006
      4          6           0        0.992531   -0.504361    0.000004
      5          1           0        0.070913    1.261300    0.875883
      6          1           0        0.070912    1.261283   -0.875909
      7          1           0        0.846080   -1.146296   -0.875527
      8          1           0        0.846081   -1.146279    0.875549
      9          1           0        2.616045    0.653417    0.883334
     10          1           0        2.616044    0.653399   -0.883350
     11          1           0        3.157253   -0.779347    0.000006
     12          1           0       -2.155007   -0.813415   -1.211520
     13          1           0       -2.155007   -0.813385    1.211542
 ---------------------------------------------------------------------

 SCF Done:  E(UHF) =  -407.912623763     A.U. after    2 cycles

 The electronic state is 2-A.
 Alpha  occ. eigenvalues --  -69.52908 -11.23855 -11.22631 -11.22626  -6.20055
 Alpha  occ. eigenvalues --   -3.96019  -3.95106  -3.95095  -1.06227  -0.93469
 Alpha  occ. eigenvalues --   -0.81502  -0.71606  -0.64009  -0.58645  -0.55282
 Alpha  occ. eigenvalues --   -0.54967  -0.49397  -0.48774  -0.47489  -0.44439
 Alpha  occ. eigenvalues --   -0.32570
 Alpha virt. eigenvalues --    0.03827   0.03920   0.04056   0.04167   0.06008
 Alpha virt. eigenvalues --    0.06717   0.06986   0.07686   0.08985   0.09666
 Alpha virt. eigenvalues --    0.10385   0.10893   0.12044   0.14263   0.15697

  Beta  occ. eigenvalues --  -69.52351 -11.23758 -11.22600 -11.22593  -6.19214
  Beta  occ. eigenvalues --   -3.94722  -3.94713  -3.93859  -1.05925  -0.93057
  Beta  occ. eigenvalues --   -0.81131  -0.67692  -0.63911  -0.58354  -0.55139
  Beta  occ. eigenvalues --   -0.54235  -0.49014  -0.48553  -0.46852  -0.43595
  Beta virt. eigenvalues --    0.02607   0.03886   0.04097   0.04189   0.05092
  Beta virt. eigenvalues --    0.06282   0.06838   0.07704   0.08437   0.09100
  Beta virt. eigenvalues --    0.09977   0.10402   0.11175   0.12324   0.14749

 Mulliken charges and spin densities:
               1          2
     1  Si   0.667444   0.988062
     2  C   -0.358054   0.006050
     3  C   -0.602672  -0.014974
     4  C   -0.379405   0.006483
     5  H    0.144144   0.000303
     6  H    0.144147   0.000303
     7  H    0.125241  -0.006078
     8  H    0.125244  -0.006078
     9  H    0.162179  -0.000079
    10  H    0.162178  -0.000079
    11  H    0.122492   0.000652
    12  H   -0.156469   0.012717
    13  H   -0.156469   0.012717
 Sum of Mulliken charges =  -0.00000   1.00000

 Dipole moment (field-independent basis, Debye):
    X=              0.9245    Y=              0.1690    Z=             -0.0000  Tot=              0.9399
                          Isotropic Fermi Contact Couplings
        Atom                 a.u.       MegaHertz       Gauss      10(-4) cm-1
     1  Si(29)             0.56280    -500.18021    -178.47674    -166.84216
     2  C(13)              0.00559       6.28816       2.24377       2.09750
     3  C(13)              0.01093      12.29187       4.38605       4.10013
     4  C(13)              0.02527      28.40428      10.13535       9.47465
     5  H(1)               0.00030       1.35801       0.48457       0.45298
     6  H(1)               0.00030       1.35810       0.48461       0.45301
     7  H(1)              -0.00031      -1.40711      -0.50209      -0.46936
     8  H(1)              -0.00031      -1.40712      -0.50210      -0.46936

 Normal termination of Gaussian 16 at Tue Apr  8 23:40:26 2025.
