 Gaussian 16, Revision C.01,

 ----------------------------------------------------------------------
 #t hf aug-cc-pvdz symm=none int=(grid=ultrafine) guess=(read,tcheck) s
 table=opt
 ----------------------------------------------------------------------
 -----
 title
 -----
 Symbolic Z-matrix:
 Charge =  0 Multiplicity = 2

 SCF Done:  E(UHF) =  -1013.16972037     A.U. after   25 cycles
 Normal termination of Gaussian 16 at Wed Apr  9 00:26:34 2025.
 Gaussian 16:  ES64L-G16RevC.01  3-Jul-2019

 ----------------------------------------------------------------------
 #t hf aug-cc-pvdz iop(5/13=1,5/36=2,99/5=2) pseudo=read geom=check gue
 ss=(read,tcheck) scf=(maxcycle=1)
 ----------------------------------------------------------------------
 -----
 title
 -----
 Structure from the checkpoint file:  "BDE49_nonexpt_2731_mol2.chk"
 Charge =  0 Multiplicity = 2

                         Standard orientation:
 ---------------------------------------------------------------------
 Center     Atomic      Atomic             Coordinates (Angstroms)
 Number     Number       Type             X           Y           Z
 ---------------------------------------------------------------------
      1         16           0        0.956547    1.480677    0.038578
      2          6           0        0.635925   -0.331745    0.015747
      3          6           0        1.810754   -0.952414   -0.775479
      4          1           0        1.863232   -0.566806   -1.795925
      5          1           0        1.681928   -2.038912   -0.822672
      6          1           0        2.760230   -0.747319   -0.277731
      7          6           0        0.598488   -0.898205    1.441915
      8          1           0        1.548690   -0.716016    1.945551
      9          1           0        0.420108   -1.979121    1.412310
     10          1           0       -0.196001   -0.440095    2.031478
     11          6           0       -0.652628   -0.632410   -0.759275
     12         17           0       -2.135172    0.095398   -0.004921
     13          1           0       -0.836415   -1.707280   -0.796157
     14          1           0       -0.603834   -0.228410   -1.767880
 ---------------------------------------------------------------------

 SCF Done:  E(UHF) =  -1013.47083471     A.U. after    2 cycles

 The electronic state is 2-A.
 Alpha  occ. eigenvalues -- -105.55828 -93.96676 -11.31470 -11.30214 -11.25644
 Alpha  occ. eigenvalues --  -11.24164 -10.60626  -8.24696  -7.77562  -7.77211
 Alpha  occ. eigenvalues --   -7.77194  -6.23886  -6.22101  -6.21795  -1.16118
 Alpha  occ. eigenvalues --   -1.07014  -0.98020  -0.96148  -0.91613  -0.76026
 Alpha  occ. eigenvalues --   -0.66194  -0.64906  -0.62198  -0.60097  -0.57388
 Alpha  occ. eigenvalues --   -0.54606  -0.52937  -0.51437  -0.47248  -0.44876
 Alpha  occ. eigenvalues --   -0.44751  -0.43431  -0.38331
 Alpha virt. eigenvalues --    0.03176   0.04023   0.04231   0.05004   0.06632
 Alpha virt. eigenvalues --    0.06869   0.07057   0.07711   0.08307   0.10751
 Alpha virt. eigenvalues --    0.12533   0.13188   0.14121   0.14911   0.15525

  Beta  occ. eigenvalues -- -105.55821 -93.95769 -11.31438 -11.30355 -11.25534
  Beta  occ. eigenvalues --  -11.24139 -10.60619  -8.23656  -7.77562  -7.77197
  Beta  occ. eigenvalues --   -7.77177  -6.21551  -6.21251  -6.19874  -1.15339
  Beta  occ. eigenvalues --   -1.06391  -0.95935  -0.92114  -0.90475  -0.74652
  Beta  occ. eigenvalues --   -0.65694  -0.64386  -0.61826  -0.59363  -0.57021
  Beta  occ. eigenvalues --   -0.54558  -0.52865  -0.50782  -0.46212  -0.44706
  Beta  occ. eigenvalues --   -0.44275  -0.36116
  Beta virt. eigenvalues --    0.00731   0.03312   0.04042   0.04525   0.05095
  Beta virt. eigenvalues --    0.06641   0.06894   0.07160   0.07786   0.08409
  Beta virt. eigenvalues --    0.10764   0.12638   0.13634   0.14212   0.15011

 Mulliken charges and spin densities:
               1          2
     1  S    0.091715   1.141351
     2  C   -1.184459  -0.240792
     3  C   -0.039272   0.050427
     4  H    0.147196  -0.000625
     5  H    0.227930   0.008503
     6  H    0.149819  -0.002296
     7  C   -0.088511   0.036866
     8  H    0.190577  -0.012323
     9  H    0.222547   0.001087
    10  H    0.179556  -0.002476
    11  C   -0.310071   0.023743
    12  Cl  -0.088032   0.009045
    13  H    0.271450  -0.000356
    14  H    0.229554  -0.012152
 Sum of Mulliken charges =  -0.00000   1.00000

 Dipole moment (field-independent basis, Debye):
    X=              1.7320    Y=             -2.5683    Z=             -0.7491  Tot=              3.1871
                          Isotropic Fermi Contact Couplings
        Atom                 a.u.       MegaHertz       Gauss      10(-4) cm-1
     1  S(33)              0.17561      60.31885      21.52327      20.12020
     2  C(13)             -0.02601     -29.24494     -10.43532      -9.75506
     3  C(13)              0.02973      33.42383      11.92645      11.14899
     4  H(1)              -0.00021      -0.95121      -0.33942      -0.31729
     5  H(1)               0.00381      17.03651       6.07905       5.68277
     6  H(1)              -0.00008      -0.35104      -0.12526      -0.11710
     7  C(13)              0.00477       5.36003       1.91259       1.78791
     8  H(1)              -0.00028      -1.24215      -0.44323      -0.41434

 Normal termination of Gaussian 16 at Wed Apr  9 00:26:40 2025.
