 Gaussian 16, Revision C.01,

 ----------------------------------------------------------------------
 #t hf aug-cc-pvdz symm=none int=(grid=ultrafine) guess=(read,tcheck) s
 table=(opt,rrhf)
 ----------------------------------------------------------------------
 -----
 title
 -----
 Symbolic Z-matrix:
 Charge =  0 Multiplicity = 1

 SCF Done:  E(RHF) =  -440.337047293     A.U. after   12 cycles
 Normal termination of Gaussian 16 at Wed Apr  9 00:00:26 2025.
 Gaussian 16:  ES64L-G16RevC.01  3-Jul-2019

 ----------------------------------------------------------------------
 #t hf aug-cc-pvdz iop(5/13=1,5/36=2,99/5=2) pseudo=read geom=check gue
 ss=(read,tcheck) scf=(maxcycle=1)
 ----------------------------------------------------------------------
 -----
 title
 -----
 Structure from the checkpoint file:  "BDE49_nonexpt_2111_mol1.chk"
 Charge =  0 Multiplicity = 1

                         Standard orientation:
 ---------------------------------------------------------------------
 Center     Atomic      Atomic             Coordinates (Angstroms)
 Number     Number       Type             X           Y           Z
 ---------------------------------------------------------------------
      1          7           0        0.374808   -0.002791   -0.102468
      2          7           0        0.855388    1.328276    0.016129
      3         14           0       -1.345630   -0.094361    0.007896
      4          6           0        1.350429   -1.068408    0.020204
      5          1           0        2.116828   -0.991437   -0.763419
      6          1           0        0.856672   -2.036581   -0.088004
      7          1           0        1.862704   -1.054247    0.995188
      8          1           0        1.486777    1.535634   -0.755610
      9          1           0        1.376413    1.439651    0.886094
     10          1           0       -1.989626    0.705908   -1.058157
     11          1           0       -1.883632    0.379657    1.310628
     12          1           0       -1.701263   -1.525481   -0.154113
 ---------------------------------------------------------------------

 SCF Done:  E(RHF) =  -440.533101251     A.U. after    2 cycles

 The electronic state is 1-A.
 Alpha  occ. eigenvalues --  -69.53424 -15.52391 -15.49730 -11.26509  -6.20193
 Alpha  occ. eigenvalues --   -3.95632  -3.95559  -3.95506  -1.26758  -1.06507
 Alpha  occ. eigenvalues --   -0.91459  -0.74721  -0.71949  -0.68341  -0.62032
 Alpha  occ. eigenvalues --   -0.59464  -0.53729  -0.49271  -0.48212  -0.45790
 Alpha  occ. eigenvalues --   -0.39412
 Alpha virt. eigenvalues --    0.03198   0.04975   0.05089   0.05192   0.06041
 Alpha virt. eigenvalues --    0.06304   0.07044   0.07453   0.07632   0.11214
 Alpha virt. eigenvalues --    0.11328   0.13002   0.14600   0.15153   0.16819

 Mulliken charges:
               1
     1  N   -0.127640
     2  N   -0.368580
     3  Si   0.651528
     4  C   -0.379478
     5  H    0.148395
     6  H    0.026661
     7  H    0.161077
     8  H    0.148215
     9  H    0.155788
    10  H   -0.115188
    11  H   -0.162032
    12  H   -0.138745
 Sum of Mulliken charges =  -0.00000

 Dipole moment (field-independent basis, Debye):
    X=              2.0277    Y=             -0.6643    Z=              0.2397  Tot=              2.1472

 Test job not archived.
 1\1\GINC-SE404\SP\RHF\Aug-CC-pVDZ\C1H8N2Si1\OHZDE\09-Apr-2025\0\\#t hf
  aug-cc-pvdz iop(5/13=1,5/36=2,99/5=2) pseudo=read geom=check guess=(r
 ead,tcheck) scf=(maxcycle=1)\\title\\0,1\N,0,0.374808,-0.002791,-0.102
 468\N,0,0.855388,1.328276,0.016129\Si,0,-1.34563,-0.094361,0.007896\C,
 0,1.350429,-1.068408,0.020204\H,0,2.116828,-0.991437,-0.763419\H,0,0.8
 56672,-2.036581,-0.088004\H,0,1.862704,-1.054247,0.995188\H,0,1.486777
 ,1.535634,-0.75561\H,0,1.376413,1.439651,0.886094\H,0,-1.989626,0.7059
 08,-1.058157\H,0,-1.883632,0.379657,1.310628\H,0,-1.701263,-1.525481,-

 Normal termination of Gaussian 16 at Wed Apr  9 00:00:29 2025.
