 Gaussian 16, Revision C.01,

 ----------------------------------------------------------------------
 #t hf aug-cc-pvdz symm=none int=(grid=ultrafine) guess=(read,tcheck) s
 table=opt
 ----------------------------------------------------------------------
 -----
 title
 -----
 Symbolic Z-matrix:
 Charge =  0 Multiplicity = 2

 SCF Done:  E(UHF) =  -423.798020816     A.U. after   15 cycles
 Normal termination of Gaussian 16 at Wed Apr  9 00:05:37 2025.
 Gaussian 16:  ES64L-G16RevC.01  3-Jul-2019

 ----------------------------------------------------------------------
 #t hf aug-cc-pvdz iop(5/13=1,5/36=2,99/5=2) pseudo=read geom=check gue
 ss=(read,tcheck) scf=(maxcycle=1)
 ----------------------------------------------------------------------
 -----
 title
 -----
 Structure from the checkpoint file:  "BDE49_nonexpt_2228_mol2.chk"
 Charge =  0 Multiplicity = 2

                         Standard orientation:
 ---------------------------------------------------------------------
 Center     Atomic      Atomic             Coordinates (Angstroms)
 Number     Number       Type             X           Y           Z
 ---------------------------------------------------------------------
      1          7           0        0.000001    1.628002    0.245490
      2          6           0       -1.559075   -0.838959    0.187280
      3          6           0        1.559074   -0.838960    0.187279
      4         14           0       -0.000000    0.027370   -0.441954
      5          1           0       -1.554364   -0.885723    1.282333
      6          1           0       -1.617202   -1.858984   -0.201966
      7          1           0       -2.465127   -0.313846   -0.127926
      8          1           0       -0.827860    2.202713    0.158339
      9          1           0        0.827861    2.202711    0.158341
     10          1           0        1.554363   -0.885723    1.282333
     11          1           0        2.465126   -0.313848   -0.127927
     12          1           0        1.617200   -1.858986   -0.201966
 ---------------------------------------------------------------------

 SCF Done:  E(UHF) =  -423.976827266     A.U. after    2 cycles

 The electronic state is 2-A.
 Alpha  occ. eigenvalues --  -69.52943 -15.47751 -11.21234 -11.21234  -6.19788
 Alpha  occ. eigenvalues --   -3.95582  -3.94871  -3.94821  -1.14030  -0.95868
 Alpha  occ. eigenvalues --   -0.93021  -0.70182  -0.68470  -0.57991  -0.57100
 Alpha  occ. eigenvalues --   -0.54893  -0.54603  -0.52238  -0.48215  -0.44856
 Alpha  occ. eigenvalues --   -0.29850
 Alpha virt. eigenvalues --    0.03404   0.04411   0.04583   0.05167   0.06441
 Alpha virt. eigenvalues --    0.06559   0.06830   0.07184   0.09356   0.09548
 Alpha virt. eigenvalues --    0.10370   0.12891   0.15716   0.16053   0.16803

  Beta  occ. eigenvalues --  -69.52467 -15.47295 -11.21060 -11.21060  -6.19048
  Beta  occ. eigenvalues --   -3.94596  -3.94535  -3.93724  -1.12687  -0.94956
  Beta  occ. eigenvalues --   -0.92511  -0.68288  -0.68172  -0.56879  -0.56128
  Beta  occ. eigenvalues --   -0.54478  -0.54364  -0.50573  -0.44438  -0.43563
  Beta virt. eigenvalues --    0.02685   0.04403   0.04666   0.05273   0.06447
  Beta virt. eigenvalues --    0.06453   0.06890   0.06921   0.08050   0.09361
  Beta virt. eigenvalues --    0.10066   0.10616   0.14244   0.16077   0.16377

 Mulliken charges and spin densities:
               1          2
     1  N   -0.099988   0.104055
     2  C   -0.658116   0.038690
     3  C   -0.658117   0.038690
     4  Si   1.243493   0.863488
     5  H    0.114685   0.010208
     6  H   -0.009782  -0.013311
     7  H    0.027286  -0.008307
     8  H   -0.045825  -0.011052
     9  H   -0.045827  -0.011052
    10  H    0.114688   0.010209
    11  H    0.027284  -0.008307
    12  H   -0.009781  -0.013311
 Sum of Mulliken charges =  -0.00000   1.00000

 Dipole moment (field-independent basis, Debye):
    X=             -0.0000    Y=              0.4284    Z=             -0.0209  Tot=              0.4289
                          Isotropic Fermi Contact Couplings
        Atom                 a.u.       MegaHertz       Gauss      10(-4) cm-1
     1  N(14)              0.04684      15.13420       5.40026       5.04823
     2  C(13)              0.04192      47.12871      16.81669      15.72044
     3  C(13)              0.04192      47.12863      16.81667      15.72042
     4  Si(29)             0.58092    -516.28180    -184.22218    -172.21307
     5  H(1)               0.00679      30.33739      10.82513      10.11946
     6  H(1)              -0.00089      -3.99821      -1.42666      -1.33366
     7  H(1)              -0.00067      -2.98754      -1.06603      -0.99654
     8  H(1)              -0.00257     -11.47767      -4.09552      -3.82854

 Normal termination of Gaussian 16 at Wed Apr  9 00:05:40 2025.
