 Gaussian 16, Revision C.01,

 ----------------------------------------------------------------------
 #t hf aug-cc-pvdz symm=none int=(grid=ultrafine) guess=(read,tcheck) s
 table=(opt,rrhf)
 ----------------------------------------------------------------------
 -----
 title
 -----
 Symbolic Z-matrix:
 Charge =  0 Multiplicity = 1

 SCF Done:  E(RHF) =  -492.909020146     A.U. after   14 cycles
 Normal termination of Gaussian 16 at Wed Apr  9 00:29:48 2025.
 Gaussian 16:  ES64L-G16RevC.01  3-Jul-2019

 ----------------------------------------------------------------------
 #t hf aug-cc-pvdz iop(5/13=1,5/36=2,99/5=2) pseudo=read geom=check gue
 ss=(read,tcheck) scf=(maxcycle=1)
 ----------------------------------------------------------------------
 -----
 title
 -----
 Structure from the checkpoint file:  "BDE49_nonexpt_313_mol1.chk"
 Charge =  0 Multiplicity = 1

                         Standard orientation:
 ---------------------------------------------------------------------
 Center     Atomic      Atomic             Coordinates (Angstroms)
 Number     Number       Type             X           Y           Z
 ---------------------------------------------------------------------
      1          6           0       -0.271663   -0.000044    0.591695
      2          5           0        2.145730   -0.000003   -0.048037
      3          9           0        2.576863   -1.126973   -0.603749
      4          9           0        2.576796    1.127052   -0.603631
      5          6           0       -0.927593    1.202653    0.307252
      6          6           0       -0.927660   -1.202694    0.307215
      7          6           0       -2.210929    1.203394   -0.233507
      8          6           0       -2.857989    0.000046   -0.505488
      9          6           0       -2.210997   -1.203346   -0.233545
     10          1           0       -2.705993   -2.145680   -0.440374
     11          1           0       -0.430999   -2.144652    0.515797
     12          1           0       -2.705872    2.145761   -0.440307
     13          1           0       -3.857798    0.000081   -0.924250
     14          1           0       -0.430878    2.144577    0.515863
     15          6           0        1.144806   -0.000092    1.154262
     16          1           0        1.296050   -0.885672    1.776223
     17          1           0        1.296057    0.885393    1.776357
 ---------------------------------------------------------------------

 SCF Done:  E(RHF) =  -493.393487322     A.U. after    2 cycles

 The electronic state is 1-A.
 Alpha  occ. eigenvalues --  -26.47445 -26.47444 -11.26411 -11.24967 -11.24948
 Alpha  occ. eigenvalues --  -11.24672 -11.24668 -11.24577 -11.23817  -7.71567
 Alpha  occ. eigenvalues --   -1.62643  -1.58513  -1.16501  -1.06067  -1.02254
 Alpha  occ. eigenvalues --   -0.95654  -0.84318  -0.82145  -0.79678  -0.74058
 Alpha  occ. eigenvalues --   -0.71859  -0.70121  -0.68807  -0.65966  -0.64640
 Alpha  occ. eigenvalues --   -0.62854  -0.62094  -0.60430  -0.58988  -0.56150
 Alpha  occ. eigenvalues --   -0.56027  -0.50876  -0.50648  -0.49689  -0.35253
 Alpha  occ. eigenvalues --   -0.34235
 Alpha virt. eigenvalues --    0.03267   0.03314   0.03557   0.04719   0.05068
 Alpha virt. eigenvalues --    0.05256   0.06862   0.07773   0.07924   0.08493
 Alpha virt. eigenvalues --    0.09318   0.10005   0.10480   0.11694   0.13451

 Mulliken charges:
               1
     1  C    0.938272
     2  B    1.862500
     3  F   -0.681803
     4  F   -0.681816
     5  C    0.210504
     6  C    0.210514
     7  C    0.100294
     8  C    0.055807
     9  C    0.100298
    10  H   -0.227426
    11  H   -0.313935
    12  H   -0.227427
    13  H   -0.212190
    14  H   -0.313949
    15  C   -0.654888
    16  H   -0.082402
    17  H   -0.082354
 Sum of Mulliken charges =  -0.00000

 Dipole moment (field-independent basis, Debye):
    X=             -1.1126    Y=             -0.0001    Z=              1.2769  Tot=              1.6936

 Test job not archived.
 1\1\GINC-SE071\SP\RHF\Aug-CC-pVDZ\C7H7B1F2\OHZDE\09-Apr-2025\0\\#t hf
 aug-cc-pvdz iop(5/13=1,5/36=2,99/5=2) pseudo=read geom=check guess=(re
 ad,tcheck) scf=(maxcycle=1)\\title\\0,1\C,0,-0.271663,-0.000044,0.5916
 95\B,0,2.14573,-0.000003,-0.048037\F,0,2.576863,-1.126973,-0.603749\F,
 0,2.576796,1.127052,-0.603631\C,0,-0.927593,1.202653,0.307252\C,0,-0.9
 2766,-1.202694,0.307215\C,0,-2.210929,1.203394,-0.233507\C,0,-2.857989
 ,0.000046,-0.505488\C,0,-2.210997,-1.203346,-0.233545\H,0,-2.705993,-2
 .14568,-0.440374\H,0,-0.430999,-2.144652,0.515797\H,0,-2.705872,2.1457

 Normal termination of Gaussian 16 at Wed Apr  9 00:29:57 2025.
