 Gaussian 16, Revision C.01,

 ----------------------------------------------------------------------
 #t hf aug-cc-pvdz symm=none int=(grid=ultrafine) guess=(read,tcheck) s
 table=(opt,rrhf)
 ----------------------------------------------------------------------
 -----
 title
 -----
 Symbolic Z-matrix:
 Charge =  0 Multiplicity = 1

 SCF Done:  E(RHF) =  -1208.45001185     A.U. after   14 cycles
 Normal termination of Gaussian 16 at Tue Apr  8 23:23:39 2025.
 Gaussian 16:  ES64L-G16RevC.01  3-Jul-2019

 ----------------------------------------------------------------------
 #t hf aug-cc-pvdz iop(5/13=1,5/36=2,99/5=2) pseudo=read geom=check gue
 ss=(read,tcheck) scf=(maxcycle=1)
 ----------------------------------------------------------------------
 -----
 title
 -----
 Structure from the checkpoint file:  "BDE49_nonexpt_1224_mol1.chk"
 Charge =  0 Multiplicity = 1

                         Standard orientation:
 ---------------------------------------------------------------------
 Center     Atomic      Atomic             Coordinates (Angstroms)
 Number     Number       Type             X           Y           Z
 ---------------------------------------------------------------------
      1          8           0        0.660935   -0.861683   -0.704747
      2         16           0        2.201556   -1.091258   -0.046498
      3          6           0        2.762139    0.587433   -0.125060
      4          6           0       -0.300014   -0.372944    0.133280
      5          8           0       -1.422970   -0.329331   -0.637638
      6          8           0       -0.186733   -0.061810    1.269751
      7          8           0        2.181450    1.551374   -0.466333
      8          9           0        4.044598    0.576371    0.300179
      9          6           0       -2.595627    0.140819   -0.062856
     10          9           0       -2.977717   -0.620223    0.960672
     11          9           0       -3.516899    0.084076   -1.014972
     12          9           0       -2.470575    1.397542    0.352289
 ---------------------------------------------------------------------

 SCF Done:  E(RHF) =  -1209.25357599     A.U. after    2 cycles

 The electronic state is 1-A.
 Alpha  occ. eigenvalues --  -94.08979 -26.54350 -26.54100 -26.53968 -26.53913
 Alpha  occ. eigenvalues --  -20.67641 -20.67235 -20.61288 -20.59813 -11.61107
 Alpha  occ. eigenvalues --  -11.50871 -11.49556  -8.36426  -6.34229  -6.33989
 Alpha  occ. eigenvalues --   -6.33708  -1.77148  -1.68512  -1.65662  -1.65415
 Alpha  occ. eigenvalues --   -1.64912  -1.56246  -1.55228  -1.53219  -1.12461
 Alpha  occ. eigenvalues --   -1.02153  -0.93050  -0.88519  -0.86400  -0.86143
 Alpha  occ. eigenvalues --   -0.82458  -0.78463  -0.76755  -0.75951  -0.74645
 Alpha  occ. eigenvalues --   -0.74229  -0.72037  -0.71202  -0.70330  -0.67123
 Alpha  occ. eigenvalues --   -0.67077  -0.65198  -0.64191  -0.63468  -0.62278
 Alpha  occ. eigenvalues --   -0.58912  -0.57756  -0.53999  -0.52254  -0.49998
 Alpha  occ. eigenvalues --   -0.45218
 Alpha virt. eigenvalues --    0.04758   0.05446   0.07578   0.07965   0.08687
 Alpha virt. eigenvalues --    0.09169   0.09570   0.10275   0.11041   0.11704
 Alpha virt. eigenvalues --    0.12741   0.13216   0.14165   0.14515   0.15019

 Mulliken charges:
               1
     1  O   -1.266294
     2  S    0.969527
     3  C    1.148242
     4  C    2.043541
     5  O   -1.331134
     6  O   -0.841062
     7  O   -0.900234
     8  F   -0.629455
     9  C    2.830414
    10  F   -0.677700
    11  F   -0.668785
    12  F   -0.677060
 Sum of Mulliken charges =  -0.00000

 Dipole moment (field-independent basis, Debye):
    X=              0.9200    Y=             -2.0658    Z=             -0.5135  Tot=              2.3190

 Test job not archived.
 1\1\GINC-SE195\SP\RHF\Aug-CC-pVDZ\C3F4O4S1\OHZDE\08-Apr-2025\0\\#t hf
 aug-cc-pvdz iop(5/13=1,5/36=2,99/5=2) pseudo=read geom=check guess=(re
 ad,tcheck) scf=(maxcycle=1)\\title\\0,1\O,0,0.660935,-0.861683,-0.7047
 47\S,0,2.201556,-1.091258,-0.046498\C,0,2.762139,0.587433,-0.12506\C,0
 ,-0.300014,-0.372944,0.13328\O,0,-1.42297,-0.329331,-0.637638\O,0,-0.1
 86733,-0.06181,1.269751\O,0,2.18145,1.551374,-0.466333\F,0,4.044598,0.
 576371,0.300179\C,0,-2.595627,0.140819,-0.062856\F,0,-2.977717,-0.6202
 23,0.960672\F,0,-3.516899,0.084076,-1.014972\F,0,-2.470575,1.397542,0.

 Normal termination of Gaussian 16 at Tue Apr  8 23:23:48 2025.
