 Gaussian 16, Revision C.01,

 ----------------------------------------------------------------------
 #t hf aug-cc-pvdz symm=none int=(grid=ultrafine) guess=(read,tcheck) s
 table=opt
 ----------------------------------------------------------------------
 -----
 title
 -----
 Symbolic Z-matrix:
 Charge =  0 Multiplicity = 2

 SCF Done:  E(UHF) =  -700.520984683     A.U. after   24 cycles
 Normal termination of Gaussian 16 at Tue Apr  8 23:34:43 2025.
 Gaussian 16:  ES64L-G16RevC.01  3-Jul-2019

 ----------------------------------------------------------------------
 #t hf aug-cc-pvdz iop(5/13=1,5/36=2,99/5=2) pseudo=read geom=check gue
 ss=(read,tcheck) scf=(maxcycle=1)
 ----------------------------------------------------------------------
 -----
 title
 -----
 Structure from the checkpoint file:  "BDE49_nonexpt_1448_mol2.chk"
 Charge =  0 Multiplicity = 2

                         Standard orientation:
 ---------------------------------------------------------------------
 Center     Atomic      Atomic             Coordinates (Angstroms)
 Number     Number       Type             X           Y           Z
 ---------------------------------------------------------------------
      1          6           0        2.045462   -0.101162   -0.000015
      2          8           0        2.453797   -1.241450   -0.000135
      3          7           0        0.681532    0.187896    0.000063
      4          6           0       -1.910173    0.309695    0.000156
      5          6           0        2.945670    1.118237    0.000092
      6          6           0       -3.331651   -0.211398    0.000103
      7          8           0       -1.665456    1.505935   -0.000287
      8          1           0        3.982671    0.789870    0.000040
      9          1           0        2.757549    1.735281    0.883244
     10          1           0        2.757518    1.735456   -0.882932
     11          1           0       -3.378548   -1.302325    0.000400
     12          1           0       -3.851904    0.171564   -0.882096
     13          1           0       -3.852152    0.172073    0.881932
     14         15           0       -0.556939   -0.972327    0.000010
     15          1           0        0.365658    1.159605    0.000192
 ---------------------------------------------------------------------

 SCF Done:  E(UHF) =  -700.922536710     A.U. after    2 cycles

 The electronic state is 2-A.
 Alpha  occ. eigenvalues --  -84.32138 -20.57311 -20.52779 -15.53824 -11.37445
 Alpha  occ. eigenvalues --  -11.35588 -11.26098 -11.25629  -6.79089  -4.31703
 Alpha  occ. eigenvalues --   -4.31269  -4.30997  -1.50661  -1.47758  -1.23984
 Alpha  occ. eigenvalues --   -1.04071  -1.02427  -0.91896  -0.81607  -0.76294
 Alpha  occ. eigenvalues --   -0.71043  -0.67460  -0.64666  -0.64426  -0.62799
 Alpha  occ. eigenvalues --   -0.61867  -0.58623  -0.56710  -0.56204  -0.54510
 Alpha  occ. eigenvalues --   -0.49953  -0.47712  -0.43888  -0.38512  -0.32272
 Alpha virt. eigenvalues --    0.03238   0.03935   0.04957   0.05118   0.05501
 Alpha virt. eigenvalues --    0.05581   0.07721   0.09199   0.09612   0.09627
 Alpha virt. eigenvalues --    0.10027   0.11524   0.12268   0.13315   0.13787

  Beta  occ. eigenvalues --  -84.31561 -20.56207 -20.52606 -15.53438 -11.37505
  Beta  occ. eigenvalues --  -11.36165 -11.26083 -11.25629  -6.78359  -4.31336
  Beta  occ. eigenvalues --   -4.30632  -4.28383  -1.48344  -1.47315  -1.22731
  Beta  occ. eigenvalues --   -1.03708  -1.02290  -0.89485  -0.80994  -0.75846
  Beta  occ. eigenvalues --   -0.70597  -0.66930  -0.64121  -0.63311  -0.62058
  Beta  occ. eigenvalues --   -0.61477  -0.58405  -0.56042  -0.54869  -0.49938
  Beta  occ. eigenvalues --   -0.47267  -0.44554  -0.43601  -0.37478
  Beta virt. eigenvalues --    0.01918   0.03263   0.03952   0.04974   0.05137
  Beta virt. eigenvalues --    0.05532   0.05592   0.07791   0.09398   0.09722
  Beta virt. eigenvalues --    0.10117   0.10883   0.12491   0.13172   0.13799

 Mulliken charges and spin densities:
               1          2
     1  C    0.346636  -0.019225
     2  O   -1.231566   0.043985
     3  N    0.374464   0.007716
     4  C    0.632266  -0.272831
     5  C   -0.596063   0.000844
     6  C   -0.517909   0.016100
     7  O   -1.287169   0.283168
     8  H    0.121645  -0.001363
     9  H    0.250985   0.000688
    10  H    0.250993   0.000687
    11  H    0.185095  -0.007057
    12  H    0.226101  -0.002059
    13  H    0.226066  -0.002060
    14  P    1.019257   0.959530
    15  H   -0.000802  -0.008123
 Sum of Mulliken charges =  -0.00000   1.00000

 Dipole moment (field-independent basis, Debye):
    X=             -1.7852    Y=              1.2645    Z=              0.0010  Tot=              2.1876
                          Isotropic Fermi Contact Couplings
        Atom                 a.u.       MegaHertz       Gauss      10(-4) cm-1
     1  C(13)             -0.00713      -8.02050      -2.86191      -2.67535
     2  O(17)              0.01262      -7.65092      -2.73004      -2.55207
     3  N(14)              0.03772      12.18720       4.34870       4.06521
     4  C(13)             -0.06710     -75.42984     -26.91524     -25.16069
     5  C(13)             -0.00049      -0.54661      -0.19504      -0.18233
     6  C(13)              0.00180       2.02043       0.72094       0.67394
     7  O(17)              0.08278     -50.18128     -17.90593     -16.73867
     8  H(1)              -0.00016      -0.69507      -0.24802      -0.23185

 Normal termination of Gaussian 16 at Tue Apr  8 23:34:50 2025.
