 Gaussian 16, Revision C.01,

 ----------------------------------------------------------------------
 #t hf aug-cc-pvdz symm=none int=(grid=ultrafine) guess=(read,tcheck) s
 table=(opt,rrhf)
 ----------------------------------------------------------------------
 -----
 title
 -----
 Symbolic Z-matrix:
 Charge =  0 Multiplicity = 1

 SCF Done:  E(RHF) =  -563.360926249     A.U. after   12 cycles
 Normal termination of Gaussian 16 at Wed Apr  9 00:01:01 2025.
 Gaussian 16:  ES64L-G16RevC.01  3-Jul-2019

 ----------------------------------------------------------------------
 #t hf aug-cc-pvdz iop(5/13=1,5/36=2,99/5=2) pseudo=read geom=check gue
 ss=(read,tcheck) scf=(maxcycle=1)
 ----------------------------------------------------------------------
 -----
 title
 -----
 Structure from the checkpoint file:  "BDE49_nonexpt_2088_mol1.chk"
 Charge =  0 Multiplicity = 1

                         Standard orientation:
 ---------------------------------------------------------------------
 Center     Atomic      Atomic             Coordinates (Angstroms)
 Number     Number       Type             X           Y           Z
 ---------------------------------------------------------------------
      1          6           0       -0.962396   -1.381438   -0.148914
      2          6           0       -2.346537   -0.967279    0.370380
      3          6           0       -2.754322    0.415348   -0.155721
      4          6           0       -1.684228    1.467743    0.163063
      5          6           0       -0.300495    1.046665   -0.353737
      6          6           0        1.499169   -0.781663   -0.371463
      7          6           0        0.124953   -0.337242    0.172161
      8         14           0        3.005230    0.229534    0.157644
      9          1           0       -1.008535   -1.517351   -1.238236
     10          1           0       -0.676377   -2.351556    0.272323
     11          1           0       -2.328544   -0.944781    1.467784
     12          1           0       -3.092694   -1.717282    0.088261
     13          1           0       -3.718657    0.714227    0.267826
     14          1           0       -2.894527    0.360825   -1.243216
     15          1           0       -1.633546    1.612636    1.250011
     16          1           0       -1.963457    2.435819   -0.265321
     17          1           0        0.441673    1.803513   -0.079904
     18          1           0       -0.317166    1.015344   -1.452069
     19          1           0        1.471111   -0.810747   -1.468767
     20          1           0        1.695367   -1.814017   -0.054116
     21          1           0        0.197276   -0.267456    1.267538
     22          1           0        3.013115    1.591912   -0.427999
     23          1           0        4.242555   -0.461707   -0.281405
     24          1           0        3.042335    0.364342    1.635673
 ---------------------------------------------------------------------

 SCF Done:  E(RHF) =  -563.698884506     A.U. after    2 cycles

 The electronic state is 1-A.
 Alpha  occ. eigenvalues --  -69.51867 -11.23517 -11.22437 -11.22420 -11.22373
 Alpha  occ. eigenvalues --  -11.22336 -11.22302 -11.21897  -6.18968  -3.94343
 Alpha  occ. eigenvalues --   -3.94337  -3.94317  -1.12279  -1.03196  -1.00190
 Alpha  occ. eigenvalues --   -0.92198  -0.83550  -0.80968  -0.75673  -0.71676
 Alpha  occ. eigenvalues --   -0.65274  -0.61738  -0.61000  -0.60162  -0.56334
 Alpha  occ. eigenvalues --   -0.54286  -0.53392  -0.52051  -0.48966  -0.48465
 Alpha  occ. eigenvalues --   -0.47629  -0.47087  -0.46019  -0.45411  -0.43419
 Alpha  occ. eigenvalues --   -0.41678
 Alpha virt. eigenvalues --    0.03198   0.03318   0.03470   0.03906   0.04996
 Alpha virt. eigenvalues --    0.05485   0.05569   0.06102   0.06223   0.08001
 Alpha virt. eigenvalues --    0.08386   0.08536   0.09215   0.09445   0.09999

 Mulliken charges:
               1
     1  C   -0.026415
     2  C   -0.247605
     3  C   -0.234379
     4  C   -0.247003
     5  C   -0.030947
     6  C   -0.580977
     7  C   -0.605412
     8  Si   0.785424
     9  H    0.183406
    10  H    0.078476
    11  H    0.160777
    12  H    0.109054
    13  H    0.099485
    14  H    0.149431
    15  H    0.158751
    16  H    0.101725
    17  H    0.090652
    18  H    0.161241
    19  H    0.121745
    20  H    0.136628
    21  H    0.110414
    22  H   -0.153925
    23  H   -0.175723
    24  H   -0.144823
 Sum of Mulliken charges =  -0.00000

 Dipole moment (field-independent basis, Debye):
    X=             -0.8421    Y=             -0.3494    Z=             -0.1762  Tot=              0.9286

 Test job not archived.
 1\1\GINC-SE332\SP\RHF\Aug-CC-pVDZ\C7H16Si1\OHZDE\09-Apr-2025\0\\#t hf
 aug-cc-pvdz iop(5/13=1,5/36=2,99/5=2) pseudo=read geom=check guess=(re
 ad,tcheck) scf=(maxcycle=1)\\title\\0,1\C,0,-0.962396,-1.381438,-0.148
 914\C,0,-2.346537,-0.967279,0.37038\C,0,-2.754322,0.415348,-0.155721\C
 ,0,-1.684228,1.467743,0.163063\C,0,-0.300495,1.046665,-0.353737\C,0,1.
 499169,-0.781663,-0.371463\C,0,0.124953,-0.337242,0.172161\Si,0,3.0052
 3,0.229534,0.157644\H,0,-1.008535,-1.517351,-1.238236\H,0,-0.676377,-2
 .351556,0.272323\H,0,-2.328544,-0.944781,1.467784\H,0,-3.092694,-1.717

 Normal termination of Gaussian 16 at Wed Apr  9 00:01:12 2025.
