 Gaussian 16, Revision C.01,

 ----------------------------------------------------------------------
 #t hf aug-cc-pvdz symm=none int=(grid=ultrafine) guess=(read,tcheck) s
 table=(opt,rrhf)
 ----------------------------------------------------------------------
 -----
 title
 -----
 Symbolic Z-matrix:
 Charge =  0 Multiplicity = 1

 SCF Done:  E(RHF) =  -723.830451892     A.U. after   17 cycles
 Normal termination of Gaussian 16 at Tue Apr  8 23:33:32 2025.
 Gaussian 16:  ES64L-G16RevC.01  3-Jul-2019

 ----------------------------------------------------------------------
 #t hf aug-cc-pvdz iop(5/13=1,5/36=2,99/5=2) pseudo=read geom=check gue
 ss=(read,tcheck) scf=(maxcycle=1)
 ----------------------------------------------------------------------
 -----
 title
 -----
 Structure from the checkpoint file:  "BDE49_nonexpt_1428_mol1.chk"
 Charge =  0 Multiplicity = 1

                         Standard orientation:
 ---------------------------------------------------------------------
 Center     Atomic      Atomic             Coordinates (Angstroms)
 Number     Number       Type             X           Y           Z
 ---------------------------------------------------------------------
      1          6           0        0.436047    1.159988   -0.002909
      2          6           0       -0.955499    1.199322    0.000889
      3          6           0       -1.703232    0.016708   -0.000253
      4          6           0        1.115559   -0.062725   -0.000199
      5          6           0        0.366866   -1.247462   -0.005010
      6          6           0       -1.018535   -1.208744   -0.016989
      7          1           0        0.985558    2.093632    0.000003
      8          1           0       -1.459073    2.159213    0.012011
      9         15           0       -3.546921    0.003633   -0.091698
     10          1           0       -1.576227   -2.139599   -0.039940
     11          1           0        0.900485   -2.189949   -0.007646
     12          6           0        2.612649   -0.167491    0.004322
     13          8           0        3.155831   -1.254410    0.007725
     14          6           0        3.435203    1.108768    0.004744
     15          1           0        3.217701    1.715561   -0.879079
     16          1           0        4.490112    0.840408    0.008807
     17          1           0        3.211753    1.718726    0.884930
     18          1           0       -3.748566    1.380098    0.177056
     19          1           0       -3.798940   -0.387484    1.249965
 ---------------------------------------------------------------------

 SCF Done:  E(RHF) =  -724.263649486     A.U. after    2 cycles

 The electronic state is 1-A.
 Alpha  occ. eigenvalues --  -84.28677 -20.53557 -11.34644 -11.27212 -11.26716
 Alpha  occ. eigenvalues --  -11.25989 -11.25868 -11.25785 -11.25697 -11.24850
 Alpha  occ. eigenvalues --   -6.75761  -4.28683  -4.28234  -4.27577  -1.47010
 Alpha  occ. eigenvalues --   -1.17524  -1.06556  -1.03583  -1.00741  -0.90809
 Alpha  occ. eigenvalues --   -0.85337  -0.82905  -0.77845  -0.70399  -0.67430
 Alpha  occ. eigenvalues --   -0.64979  -0.62336  -0.61631  -0.61352  -0.61046
 Alpha  occ. eigenvalues --   -0.55728  -0.54297  -0.52102  -0.51269  -0.49890
 Alpha  occ. eigenvalues --   -0.48755  -0.41878  -0.39234  -0.36259  -0.33050
 Alpha virt. eigenvalues --    0.02937   0.03514   0.04062   0.04411   0.04792
 Alpha virt. eigenvalues --    0.05776   0.05865   0.06882   0.07423   0.08263
 Alpha virt. eigenvalues --    0.08587   0.09032   0.09961   0.10818   0.11686

 Mulliken charges:
               1
     1  C    0.655634
     2  C   -0.182576
     3  C    0.193226
     4  C    1.657015
     5  C   -0.264142
     6  C   -0.123152
     7  H   -0.385251
     8  H   -0.276223
     9  P   -0.535383
    10  H   -0.243288
    11  H   -0.331989
    12  C    0.535060
    13  O   -1.478235
    14  C   -0.609118
    15  H    0.307451
    16  H    0.034689
    17  H    0.307219
    18  H    0.278369
    19  H    0.460694
 Sum of Mulliken charges =   0.00000

 Dipole moment (field-independent basis, Debye):
    X=             -1.4497    Y=              2.7813    Z=              0.3608  Tot=              3.1571

 Test job not archived.
 1\1\GINC-SE453\SP\RHF\Aug-CC-pVDZ\C8H9O1P1\OHZDE\08-Apr-2025\0\\#t hf
 aug-cc-pvdz iop(5/13=1,5/36=2,99/5=2) pseudo=read geom=check guess=(re
 ad,tcheck) scf=(maxcycle=1)\\title\\0,1\C,0,0.436047,1.159988,-0.00290
 9\C,0,-0.955499,1.199322,0.000889\C,0,-1.703232,0.016708,-0.000253\C,0
 ,1.115559,-0.062725,-0.000199\C,0,0.366866,-1.247462,-0.00501\C,0,-1.0
 18535,-1.208744,-0.016989\H,0,0.985558,2.093632,0.000003\H,0,-1.459073
 ,2.159213,0.012011\P,0,-3.546921,0.003633,-0.091698\H,0,-1.576227,-2.1
 39599,-0.03994\H,0,0.900485,-2.189949,-0.007646\C,0,2.612649,-0.167491

 Normal termination of Gaussian 16 at Tue Apr  8 23:33:43 2025.
