 Gaussian 16, Revision C.01,

 ----------------------------------------------------------------------
 #t hf aug-cc-pvdz symm=none int=(grid=ultrafine) guess=(read,tcheck) s
 table=(opt,rrhf)
 ----------------------------------------------------------------------
 -----
 title
 -----
 Symbolic Z-matrix:
 Charge =  0 Multiplicity = 1

 SCF Done:  E(RHF) =  -689.313349719     A.U. after   15 cycles
 Normal termination of Gaussian 16 at Wed Apr  9 00:55:16 2025.
 Gaussian 16:  ES64L-G16RevC.01  3-Jul-2019

 ----------------------------------------------------------------------
 #t hf aug-cc-pvdz iop(5/13=1,5/36=2,99/5=2) pseudo=read geom=check gue
 ss=(read,tcheck) scf=(maxcycle=1)
 ----------------------------------------------------------------------
 -----
 title
 -----
 Structure from the checkpoint file:  "BDE49_nonexpt_976_mol1.chk"
 Charge =  0 Multiplicity = 1

                         Standard orientation:
 ---------------------------------------------------------------------
 Center     Atomic      Atomic             Coordinates (Angstroms)
 Number     Number       Type             X           Y           Z
 ---------------------------------------------------------------------
      1          9           0       -2.788416   -1.018013    0.197457
      2          9           0        0.403823    2.253399   -0.412498
      3          8           0       -2.195877    1.755489    0.445829
      4          8           0       -0.406191   -2.359460   -0.636230
      5          7           0       -1.596210   -0.439621   -0.091669
      6          7           0        0.025993    1.025975    0.149336
      7          6           0       -1.385191    0.920961    0.198471
      8          6           0       -0.481342   -1.179069   -0.456859
      9          6           0        0.619189   -0.110892   -0.579933
     10          1           0        0.688157    0.157867   -1.641786
     11          6           0        1.987907   -0.566556   -0.052388
     12          1           0        2.215764   -1.475016   -0.621399
     13          6           0        3.064254    0.485005   -0.354807
     14          1           0        4.046148    0.116168   -0.049491
     15          1           0        2.871345    1.415522    0.184579
     16          1           0        3.110543    0.718925   -1.422182
     17          6           0        1.945586   -0.926781    1.437933
     18          1           0        2.927502   -1.276085    1.764836
     19          1           0        1.678190   -0.057920    2.044225
     20          1           0        1.229326   -1.726651    1.641621
 ---------------------------------------------------------------------

 SCF Done:  E(RHF) =  -689.980311306     A.U. after    2 cycles

 The electronic state is 1-A.
 Alpha  occ. eigenvalues --  -26.55551 -26.52647 -20.58209 -20.58075 -15.67865
 Alpha  occ. eigenvalues --  -15.65934 -11.45547 -11.42986 -11.34228 -11.27703
 Alpha  occ. eigenvalues --  -11.24906 -11.24651  -1.68151  -1.64301  -1.53671
 Alpha  occ. eigenvalues --   -1.52916  -1.35344  -1.21066  -1.12515  -1.03531
 Alpha  occ. eigenvalues --   -0.96146  -0.94991  -0.89455  -0.84448  -0.80282
 Alpha  occ. eigenvalues --   -0.77877  -0.76254  -0.74901  -0.72124  -0.70961
 Alpha  occ. eigenvalues --   -0.67765  -0.67428  -0.66734  -0.65055  -0.63410
 Alpha  occ. eigenvalues --   -0.62346  -0.59517  -0.57843  -0.56453  -0.53833
 Alpha  occ. eigenvalues --   -0.52542  -0.52012  -0.50635  -0.49464  -0.48448
 Alpha  occ. eigenvalues --   -0.46963
 Alpha virt. eigenvalues --    0.02914   0.03303   0.03802   0.04142   0.06099
 Alpha virt. eigenvalues --    0.06527   0.06907   0.07193   0.09139   0.09382
 Alpha virt. eigenvalues --    0.09530   0.10894   0.11275   0.11999   0.12551

 Mulliken charges:
               1
     1  F   -0.754907
     2  F   -0.706277
     3  O   -1.120058
     4  O   -1.267450
     5  N    1.579273
     6  N    1.392477
     7  C    0.594157
     8  C    0.360158
     9  C   -0.556583
    10  H    0.232003
    11  C   -0.918768
    12  H    0.121770
    13  C   -0.050929
    14  H    0.161376
    15  H    0.251433
    16  H    0.167831
    17  C   -0.053139
    18  H    0.106897
    19  H    0.288239
    20  H    0.172497
 Sum of Mulliken charges =   0.00000

 Dipole moment (field-independent basis, Debye):
    X=              3.4726    Y=             -0.5033    Z=             -0.8484  Tot=              3.6100

 Test job not archived.
 1\1\GINC-SE129\SP\RHF\Aug-CC-pVDZ\C6H8F2N2O2\OHZDE\09-Apr-2025\0\\#t h
 f aug-cc-pvdz iop(5/13=1,5/36=2,99/5=2) pseudo=read geom=check guess=(
 read,tcheck) scf=(maxcycle=1)\\title\\0,1\F,0,-2.788416,-1.018013,0.19
 7457\F,0,0.403823,2.253399,-0.412498\O,0,-2.195877,1.755489,0.445829\O
 ,0,-0.406191,-2.35946,-0.63623\N,0,-1.59621,-0.439621,-0.091669\N,0,0.
 025993,1.025975,0.149336\C,0,-1.385191,0.920961,0.198471\C,0,-0.481342
 ,-1.179069,-0.456859\C,0,0.619189,-0.110892,-0.579933\H,0,0.688157,0.1
 57867,-1.641786\C,0,1.987907,-0.566556,-0.052388\H,0,2.215764,-1.47501

 Normal termination of Gaussian 16 at Wed Apr  9 00:55:30 2025.
