 Gaussian 16, Revision C.01,

 ----------------------------------------------------------------------
 #t hf aug-cc-pvdz symm=none int=(grid=ultrafine) guess=(read,tcheck) s
 table=(opt,rrhf)
 ----------------------------------------------------------------------
 -----
 title
 -----
 Symbolic Z-matrix:
 Charge =  0 Multiplicity = 1

 SCF Done:  E(RHF) =  -1770.01414192     A.U. after   15 cycles
 Normal termination of Gaussian 16 at Tue Apr  8 22:52:56 2025.
 Gaussian 16:  ES64L-G16RevC.01  3-Jul-2019

 ----------------------------------------------------------------------
 #t hf aug-cc-pvdz iop(5/13=1,5/36=2,99/5=2) pseudo=read geom=check gue
 ss=(read,tcheck) scf=(maxcycle=1)
 ----------------------------------------------------------------------
 -----
 title
 -----
 Structure from the checkpoint file:  "BDE49_expt_1798_mol1.chk"
 Charge =  0 Multiplicity = 1

                         Standard orientation:
 ---------------------------------------------------------------------
 Center     Atomic      Atomic             Coordinates (Angstroms)
 Number     Number       Type             X           Y           Z
 ---------------------------------------------------------------------
      1          8           0        1.216408    0.767585   -0.636549
      2          7           0        2.440981   -0.086979   -0.208049
      3          8           0        2.298506   -1.259297   -0.230843
      4          8           0        3.334061    0.647901    0.047190
      5          8           0        0.154264   -0.102332   -0.981322
      6          6           0       -0.879593   -0.007077   -0.041969
      7         17           0       -2.073876   -1.163560   -0.664057
      8         17           0       -1.566230    1.646514    0.004264
      9         17           0       -0.350202   -0.469986    1.608049
 ---------------------------------------------------------------------

 SCF Done:  E(RHF) =  -1770.60642841     A.U. after    2 cycles

 The electronic state is 1-A.
 Alpha  occ. eigenvalues -- -105.61993-105.61619-105.61323 -20.73404 -20.70858
 Alpha  occ. eigenvalues --  -20.67029 -20.66605 -15.89950 -11.52424 -10.66842
 Alpha  occ. eigenvalues --  -10.66462 -10.66174  -7.83799  -7.83410  -7.83335
 Alpha  occ. eigenvalues --   -7.83325  -7.83123  -7.82972  -7.82956  -7.82674
 Alpha  occ. eigenvalues --   -7.82669  -1.78153  -1.68341  -1.62207  -1.39226
 Alpha  occ. eigenvalues --   -1.19774  -1.09731  -1.09184  -0.98617  -0.88502
 Alpha  occ. eigenvalues --   -0.86367  -0.83781  -0.82195  -0.74194  -0.73430
 Alpha  occ. eigenvalues --   -0.70114  -0.63015  -0.59788  -0.57566  -0.55633
 Alpha  occ. eigenvalues --   -0.53332  -0.52763  -0.52484  -0.52227  -0.51123
 Alpha  occ. eigenvalues --   -0.49342  -0.48985  -0.47757
 Alpha virt. eigenvalues --    0.03940   0.05632   0.06781   0.07945   0.08275
 Alpha virt. eigenvalues --    0.09379   0.11161   0.11539   0.12168   0.13298
 Alpha virt. eigenvalues --    0.13462   0.14250   0.14755   0.16581   0.17456

 Mulliken charges:
               1
     1  O   -0.541982
     2  N    2.606983
     3  O   -1.009167
     4  O   -1.030042
     5  O   -0.590433
     6  C    0.021199
     7  Cl   0.180179
     8  Cl   0.233583
     9  Cl   0.129679
 Sum of Mulliken charges =  -0.00000

 Dipole moment (field-independent basis, Debye):
    X=             -0.8202    Y=             -0.1193    Z=              0.0690  Tot=              0.8317

 Test job not archived.
 1\1\GINC-SE220\SP\RHF\Aug-CC-pVDZ\C1Cl3N1O4\OHZDE\08-Apr-2025\0\\#t hf
  aug-cc-pvdz iop(5/13=1,5/36=2,99/5=2) pseudo=read geom=check guess=(r
 ead,tcheck) scf=(maxcycle=1)\\title\\0,1\O,0,1.216408,0.767585,-0.6365
 49\N,0,2.440981,-0.086979,-0.208049\O,0,2.298506,-1.259297,-0.230843\O
 ,0,3.334061,0.647901,0.04719\O,0,0.154264,-0.102332,-0.981322\C,0,-0.8
 79593,-0.007077,-0.041969\Cl,0,-2.073876,-1.163559,-0.664057\Cl,0,-1.5
 6623,1.646514,0.004264\Cl,0,-0.350202,-0.469986,1.608049\\Version=ES64
 L-G16RevC.01\State=1-A\HF=-1770.6064284\RMSD=1.025e-02\Dipole=-0.32268

 Normal termination of Gaussian 16 at Tue Apr  8 22:53:02 2025.
