 Gaussian 16, Revision C.01,

 ----------------------------------------------------------------------
 #t hf aug-cc-pvdz symm=none int=(grid=ultrafine) guess=(read,tcheck) s
 table=opt
 ----------------------------------------------------------------------
 -----
 title
 -----
 Symbolic Z-matrix:
 Charge =  0 Multiplicity = 2

 SCF Done:  E(UHF) =  -458.991203714     A.U. after   16 cycles
 Normal termination of Gaussian 16 at Tue Apr  8 23:35:12 2025.
 Gaussian 16:  ES64L-G16RevC.01  3-Jul-2019

 ----------------------------------------------------------------------
 #t hf aug-cc-pvdz iop(5/13=1,5/36=2,99/5=2) pseudo=read geom=check gue
 ss=(read,tcheck) scf=(maxcycle=1)
 ----------------------------------------------------------------------
 -----
 title
 -----
 Structure from the checkpoint file:  "BDE49_nonexpt_1494_mol2.chk"
 Charge =  0 Multiplicity = 2

                         Standard orientation:
 ---------------------------------------------------------------------
 Center     Atomic      Atomic             Coordinates (Angstroms)
 Number     Number       Type             X           Y           Z
 ---------------------------------------------------------------------
      1         15           0       -1.821677   -0.187262   -0.000082
      2          6           0        2.406202    0.099976    0.000100
      3          6           0       -0.108315    0.553682    0.000048
      4          6           0        1.000180   -0.507711   -0.000016
      5          1           0       -0.010862    1.205862    0.876957
      6          1           0       -0.010800    1.206033   -0.876727
      7          1           0        0.881457   -1.155654   -0.875722
      8          1           0        0.881389   -1.155831    0.875549
      9          1           0        2.566638    0.725794    0.883438
     10          1           0        2.566705    0.725977   -0.883097
     11          1           0        3.173536   -0.678896    0.000048
     12          1           0       -2.511315    1.059965    0.000005
 ---------------------------------------------------------------------

 SCF Done:  E(UHF) =  -459.165426503     A.U. after    2 cycles

 The electronic state is 2-A.
 Alpha  occ. eigenvalues --  -84.27332 -11.24308 -11.23799 -11.22860  -6.74506
 Alpha  occ. eigenvalues --   -4.27011  -4.26673  -4.25932  -1.07182  -0.95664
 Alpha  occ. eigenvalues --   -0.83760  -0.77496  -0.64634  -0.58648  -0.56684
 Alpha  occ. eigenvalues --   -0.55825  -0.49868  -0.48729  -0.45146  -0.37643
 Alpha  occ. eigenvalues --   -0.31822
 Alpha virt. eigenvalues --    0.03837   0.04037   0.04472   0.04613   0.06627
 Alpha virt. eigenvalues --    0.07060   0.07718   0.08173   0.10067   0.10926
 Alpha virt. eigenvalues --    0.12460   0.13279   0.14914   0.16262   0.16563

  Beta  occ. eigenvalues --  -84.26654 -11.24445 -11.23793 -11.22867  -6.73647
  Beta  occ. eigenvalues --   -4.26143  -4.25539  -4.23691  -1.06965  -0.94733
  Beta  occ. eigenvalues --   -0.82426  -0.73159  -0.64177  -0.58461  -0.56521
  Beta  occ. eigenvalues --   -0.55089  -0.49758  -0.48485  -0.44762  -0.35596
  Beta virt. eigenvalues --    0.03653   0.03860   0.04074   0.04700   0.05657
  Beta virt. eigenvalues --    0.06672   0.07137   0.07792   0.09219   0.10103
  Beta virt. eigenvalues --    0.11109   0.12560   0.15077   0.15196   0.16356

 Mulliken charges and spin densities:
               1          2
     1  P    0.358847   1.279550
     2  C   -0.392120  -0.002561
     3  C   -0.708924  -0.146449
     4  C   -0.402794   0.030970
     5  H    0.114259   0.007980
     6  H    0.114258   0.007981
     7  H    0.148257  -0.002336
     8  H    0.148256  -0.002336
     9  H    0.164787  -0.001046
    10  H    0.164789  -0.001046
    11  H    0.120536  -0.000118
    12  H    0.169849  -0.170589
 Sum of Mulliken charges =  -0.00000   1.00000

 Dipole moment (field-independent basis, Debye):
    X=              0.9177    Y=              0.6367    Z=              0.0001  Tot=              1.1169
                          Isotropic Fermi Contact Couplings
        Atom                 a.u.       MegaHertz       Gauss      10(-4) cm-1
     1  P(31)              0.19600     354.98288     126.66672     118.40954
     2  C(13)             -0.00165      -1.85878      -0.66326      -0.62002
     3  C(13)             -0.02680     -30.12509     -10.74938     -10.04865
     4  C(13)              0.00059       0.66105       0.23588       0.22050
     5  H(1)               0.01003      44.84741      16.00267      14.95949
     6  H(1)               0.01003      44.84666      16.00240      14.95924
     7  H(1)              -0.00033      -1.48965      -0.53154      -0.49689
     8  H(1)              -0.00033      -1.48965      -0.53154      -0.49689

 Normal termination of Gaussian 16 at Tue Apr  8 23:35:17 2025.
