 Gaussian 16, Revision C.01,

 ----------------------------------------------------------------------
 #t hf aug-cc-pvdz symm=none int=(grid=ultrafine) guess=(read,tcheck) s
 table=(opt,rrhf)
 ----------------------------------------------------------------------
 -----
 title
 -----
 Symbolic Z-matrix:
 Charge =  0 Multiplicity = 1

 SCF Done:  E(RHF) =  -458.949582327     A.U. after   15 cycles
 Normal termination of Gaussian 16 at Tue Apr  8 23:52:19 2025.
 Gaussian 16:  ES64L-G16RevC.01  3-Jul-2019

 ----------------------------------------------------------------------
 #t hf aug-cc-pvdz iop(5/13=1,5/36=2,99/5=2) pseudo=read geom=check gue
 ss=(read,tcheck) scf=(maxcycle=1)
 ----------------------------------------------------------------------
 -----
 title
 -----
 Structure from the checkpoint file:  "BDE49_nonexpt_1922_mol1.chk"
 Charge =  0 Multiplicity = 1

                         Standard orientation:
 ---------------------------------------------------------------------
 Center     Atomic      Atomic             Coordinates (Angstroms)
 Number     Number       Type             X           Y           Z
 ---------------------------------------------------------------------
      1         14           0        1.460639   -0.215337   -0.001125
      2          6           0       -0.149830    0.804305   -0.154189
      3          7           0       -1.243904    0.080137    0.514362
      4          8           0       -2.008806   -0.465130   -0.241823
      5          1           0        2.539704    0.571141   -0.637687
      6          1           0        1.289050   -1.505235   -0.701385
      7          1           0        1.778186   -0.444538    1.423383
      8          1           0       -0.386595    0.991462   -1.206862
      9          1           0        0.007466    1.736141    0.397488
 ---------------------------------------------------------------------

 SCF Done:  E(RHF) =  -459.148986926     A.U. after    2 cycles

 The electronic state is 1-A.
 Alpha  occ. eigenvalues --  -69.55119 -20.61273 -15.64580 -11.27343  -6.22197
 Alpha  occ. eigenvalues --   -3.97578  -3.97557  -3.97544  -1.59210  -1.10200
 Alpha  occ. eigenvalues --   -0.88187  -0.75813  -0.70885  -0.70301  -0.62549
 Alpha  occ. eigenvalues --   -0.58069  -0.50836  -0.50086  -0.47867  -0.41771
 Alpha virt. eigenvalues --    0.03288   0.04017   0.04537   0.05816   0.06142
 Alpha virt. eigenvalues --    0.07565   0.07916   0.09018   0.09330   0.10864
 Alpha virt. eigenvalues --    0.14588   0.15098   0.15299   0.15627   0.16683

 Mulliken charges:
               1
     1  Si   1.135256
     2  C   -0.781860
     3  N    0.963580
     4  O   -0.979974
     5  H   -0.206817
     6  H   -0.173614
     7  H   -0.183651
     8  H    0.131736
     9  H    0.095344
 Sum of Mulliken charges =   0.00000

 Dipole moment (field-independent basis, Debye):
    X=              2.1271    Y=              1.3306    Z=             -0.7715  Tot=              2.6249

 Test job not archived.
 1\1\GINC-SE334\SP\RHF\Aug-CC-pVDZ\C1H5N1O1Si1\OHZDE\08-Apr-2025\0\\#t
 hf aug-cc-pvdz iop(5/13=1,5/36=2,99/5=2) pseudo=read geom=check guess=
 (read,tcheck) scf=(maxcycle=1)\\title\\0,1\Si,0,1.460639,-0.215337,-0.
 001125\C,0,-0.14983,0.804305,-0.154189\N,0,-1.243904,0.080137,0.514362
 \O,0,-2.008806,-0.46513,-0.241823\H,0,2.539704,0.571141,-0.637687\H,0,
 1.28905,-1.505235,-0.701385\H,0,1.778186,-0.444538,1.423383\H,0,-0.386
 595,0.991462,-1.206862\H,0,0.007466,1.736141,0.397488\\Version=ES64L-G
 16RevC.01\State=1-A\HF=-459.1489869\RMSD=1.083e-02\Dipole=0.8368578,0.

 Normal termination of Gaussian 16 at Tue Apr  8 23:52:21 2025.
