 Gaussian 16, Revision C.01,

 ----------------------------------------------------------------------
 #t hf aug-cc-pvdz symm=none int=(grid=ultrafine) guess=(read,tcheck) s
 table=(opt,rrhf)
 ----------------------------------------------------------------------
 -----
 title
 -----
 Symbolic Z-matrix:
 Charge =  0 Multiplicity = 1

 SCF Done:  E(RHF) =  -1331.64288157     A.U. after   14 cycles
 Normal termination of Gaussian 16 at Wed Apr  9 00:31:17 2025.
 Gaussian 16:  ES64L-G16RevC.01  3-Jul-2019

 ----------------------------------------------------------------------
 #t hf aug-cc-pvdz iop(5/13=1,5/36=2,99/5=2) pseudo=read geom=check gue
 ss=(read,tcheck) scf=(maxcycle=1)
 ----------------------------------------------------------------------
 -----
 title
 -----
 Structure from the checkpoint file:  "BDE49_nonexpt_2714_mol1.chk"
 Charge =  0 Multiplicity = 1

                         Standard orientation:
 ---------------------------------------------------------------------
 Center     Atomic      Atomic             Coordinates (Angstroms)
 Number     Number       Type             X           Y           Z
 ---------------------------------------------------------------------
      1         16           0        0.944859    1.719619   -0.420462
      2         16           0       -0.944858    1.719625    0.420409
      3          6           0       -1.744451    0.293659   -0.418095
      4          6           0        1.744472    0.293701    0.418111
      5          8           0        1.194917   -0.378157    1.242290
      6          8           0       -1.194866   -0.378271   -1.242197
      7          6           0        3.133494    0.050927   -0.117312
      8          6           0        4.631563   -1.523273   -0.248285
      9          6           0        3.303692   -1.235289   -0.995978
     10          1           0        3.338365   -1.085405   -2.075224
     11          1           0        2.531306   -1.968709   -0.759378
     12          6           0       -3.133498    0.050936    0.117286
     13          6           0       -4.180380   -0.544842   -0.867496
     14          6           0       -3.303750   -1.235223    0.996025
     15          1           0       -3.510192    0.934449    0.638056
     16          6           0        4.180408   -0.544803    0.867464
     17          1           0        5.497343   -1.146649   -0.797512
     18          1           0        3.676314   -1.060319    1.686016
     19          1           0        4.918796    0.147493    1.273925
     20          6           0       -4.631595   -1.523234    0.248296
     21          1           0       -3.676257   -1.060416   -1.685994
     22          1           0       -4.824493   -2.556799   -0.042374
     23          1           0       -5.497392   -1.146562    0.797463
     24          1           0       -3.338464   -1.085273    2.075261
     25          1           0        3.510176    0.934402   -0.638152
     26          1           0       -2.531366   -1.968668    0.759499
     27          1           0       -4.918741    0.147440   -1.274032
     28          1           0        4.824457   -2.556822    0.042442
 ---------------------------------------------------------------------

 SCF Done:  E(RHF) =  -1332.31396597     A.U. after    2 cycles

 The electronic state is 1-A.
 Alpha  occ. eigenvalues --  -93.98814 -93.98805 -20.55443 -20.55442 -11.37566
 Alpha  occ. eigenvalues --  -11.37563 -11.26097 -11.26096 -11.24671 -11.24671
 Alpha  occ. eigenvalues --  -11.24283 -11.24282 -11.23982 -11.23981  -8.26836
 Alpha  occ. eigenvalues --   -8.26810  -6.24636  -6.24594  -6.24395  -6.24384
 Alpha  occ. eigenvalues --   -6.24187  -6.24186  -1.49738  -1.49528  -1.15251
 Alpha  occ. eigenvalues --   -1.15153  -1.11179  -1.01114  -0.95966  -0.91374
 Alpha  occ. eigenvalues --   -0.91305  -0.90588  -0.81105  -0.78417  -0.74620
 Alpha  occ. eigenvalues --   -0.74156  -0.69065  -0.68036  -0.67804  -0.67322
 Alpha  occ. eigenvalues --   -0.64588  -0.61619  -0.59111  -0.58081  -0.58022
 Alpha  occ. eigenvalues --   -0.57791  -0.55833  -0.55792  -0.51827  -0.49967
 Alpha  occ. eigenvalues --   -0.49845  -0.49421  -0.48342  -0.47382  -0.46029
 Alpha  occ. eigenvalues --   -0.45895  -0.45744  -0.42649  -0.41614  -0.38585
 Alpha  occ. eigenvalues --   -0.37111
 Alpha virt. eigenvalues --    0.03450   0.03551   0.03928   0.03986   0.04293
 Alpha virt. eigenvalues --    0.04528   0.04892   0.06067   0.06643   0.06700
 Alpha virt. eigenvalues --    0.07493   0.07569   0.08389   0.08863   0.09090

 Mulliken charges:
               1
     1  S    0.029325
     2  S    0.029331
     3  C    1.057468
     4  C    1.057486
     5  O   -1.374600
     6  O   -1.374597
     7  C    0.186389
     8  C    0.073700
     9  C   -0.163000
    10  H    0.016437
    11  H    0.040069
    12  C    0.186391
    13  C   -0.079223
    14  C   -0.163004
    15  H    0.062666
    16  C   -0.079212
    17  H    0.039414
    18  H    0.062993
    19  H    0.023642
    20  C    0.073703
    21  H    0.062993
    22  H    0.024702
    23  H    0.039413
    24  H    0.016437
    25  H    0.062666
    26  H    0.040069
    27  H    0.023644
    28  H    0.024700
 Sum of Mulliken charges =  -0.00000

 Dipole moment (field-independent basis, Debye):
    X=             -0.0001    Y=             -0.4365    Z=             -0.0001  Tot=              0.4365

 Test job not archived.
 1\1\GINC-SE322\SP\RHF\Aug-CC-pVDZ\C10H14O2S2\OHZDE\09-Apr-2025\0\\#t h
 f aug-cc-pvdz iop(5/13=1,5/36=2,99/5=2) pseudo=read geom=check guess=(
 read,tcheck) scf=(maxcycle=1)\\title\\0,1\S,0,-0.944859,1.719619,0.420
 462\S,0,0.944858,1.719625,-0.420409\C,0,1.744451,0.293659,0.418095\C,0
 ,-1.744472,0.293701,-0.418111\O,0,-1.194917,-0.378157,-1.24229\O,0,1.1
 94866,-0.378271,1.242197\C,0,-3.133494,0.050927,0.117312\C,0,-4.631563
 ,-1.523273,0.248285\C,0,-3.303692,-1.235289,0.995978\H,0,-3.338365,-1.
 085405,2.075224\H,0,-2.531306,-1.968709,0.759378\C,0,3.133498,0.050936

 Normal termination of Gaussian 16 at Wed Apr  9 00:31:45 2025.
