 Gaussian 16, Revision C.01,

 ----------------------------------------------------------------------
 #t hf aug-cc-pvdz symm=none int=(grid=ultrafine) guess=(read,tcheck) s
 table=opt
 ----------------------------------------------------------------------
 -----
 title
 -----
 Symbolic Z-matrix:
 Charge =  0 Multiplicity = 2

 SCF Done:  E(UHF) =  -576.581448013     A.U. after   16 cycles

 1\1\GINC-SE343\Stability\UHF\Aug-CC-pVDZ\C3H6Cl1\OHZDE\08-Apr-2025\0\\
 #t hf aug-cc-pvdz symm=none int=(grid=ultrafine) guess=(read,tcheck) s
 table=opt\\title\\0,2\C,0,-0.18295,0.397856,0.\C,0,0.021566,1.07472,1.
 31036\H,0,-0.492651,0.548296,2.117746\H,0,-0.358534,2.099444,1.265304\
 C,0,0.021566,1.07472,-1.31036\Cl,0,0.021566,-1.343461,0.\H,0,-0.358534
 ,2.099444,-1.265304\H,0,-0.492651,0.548296,-2.117746\H,0,1.087327,1.12
 9789,-1.583952\H,0,1.087327,1.129789,1.583952\\Version=ES64L-G16RevC.0
 1\HF=-576.581448\S2=0.766423\S2-1=0.\S2A=0.75022\RMSD=6.121e-09\Dipole

 Normal termination of Gaussian 16 at Tue Apr  8 22:38:29 2025.
 Gaussian 16:  ES64L-G16RevC.01  3-Jul-2019

 ----------------------------------------------------------------------
 #t hf aug-cc-pvdz iop(5/13=1,5/36=2,99/5=2) pseudo=read geom=check gue
 ss=(read,tcheck) scf=(maxcycle=1)
 ----------------------------------------------------------------------
 -----
 title
 -----
 Structure from the checkpoint file:  "BDE49_expt_1233_mol2.chk"
 Charge =  0 Multiplicity = 2

                         Standard orientation:
 ---------------------------------------------------------------------
 Center     Atomic      Atomic             Coordinates (Angstroms)
 Number     Number       Type             X           Y           Z
 ---------------------------------------------------------------------
      1          6           0       -0.182950    0.397856   -0.000000
      2          6           0        0.021566    1.074720    1.310360
      3          1           0       -0.492651    0.548296    2.117746
      4          1           0       -0.358534    2.099444    1.265304
      5          6           0        0.021566    1.074720   -1.310360
      6         17           0        0.021566   -1.343461    0.000000
      7          1           0       -0.358534    2.099444   -1.265304
      8          1           0       -0.492651    0.548296   -2.117746
      9          1           0        1.087327    1.129789   -1.583952
     10          1           0        1.087327    1.129789    1.583952
 ---------------------------------------------------------------------

 SCF Done:  E(UHF) =  -576.785731391     A.U. after    2 cycles

 The electronic state is 2-A'.
 Alpha  occ. eigenvalues -- -105.56120 -11.30551 -11.24521 -11.24514 -10.60947
 Alpha  occ. eigenvalues --   -7.77780  -7.77627  -7.77513  -1.14430  -1.00601
 Alpha  occ. eigenvalues --   -0.96557  -0.77601  -0.64228  -0.63364  -0.61594
 Alpha  occ. eigenvalues --   -0.56620  -0.53805  -0.52219  -0.49338  -0.44992
 Alpha  occ. eigenvalues --   -0.34166
 Alpha virt. eigenvalues --    0.03523   0.04410   0.04978   0.05571   0.06991
 Alpha virt. eigenvalues --    0.07559   0.09074   0.10704   0.13701   0.14520
 Alpha virt. eigenvalues --    0.15815   0.16262   0.16528   0.17206   0.18177

  Beta  occ. eigenvalues -- -105.56110 -11.27781 -11.24819 -11.24812 -10.60934
  Beta  occ. eigenvalues --   -7.78010  -7.77506  -7.77360  -1.10946  -0.99958
  Beta  occ. eigenvalues --   -0.96487  -0.72860  -0.62587  -0.60666  -0.59065
  Beta  occ. eigenvalues --   -0.55607  -0.53291  -0.51653  -0.46626  -0.44901
  Beta virt. eigenvalues --    0.03498   0.04430   0.04844   0.05574   0.07006
  Beta virt. eigenvalues --    0.07561   0.08992   0.10408   0.11845   0.13772
  Beta virt. eigenvalues --    0.14575   0.16195   0.16375   0.16581   0.17786

 Mulliken charges and spin densities:
               1          2
     1  C   -0.443081   1.358795
     2  C   -0.289064  -0.231033
     3  H    0.155622   0.012696
     4  H    0.185718   0.003285
     5  C   -0.289064  -0.231033
     6  Cl  -0.197080  -0.025016
     7  H    0.185718   0.003285
     8  H    0.155622   0.012696
     9  H    0.267804   0.048163
    10  H    0.267804   0.048163
 Sum of Mulliken charges =  -0.00000   1.00000

 Dipole moment (field-independent basis, Debye):
    X=              0.0978    Y=              2.0950    Z=             -0.0000  Tot=              2.0973
                          Isotropic Fermi Contact Couplings
        Atom                 a.u.       MegaHertz       Gauss      10(-4) cm-1
     1  C(13)              0.30467     342.50769     122.21526     114.24827
     2  C(13)             -0.05040     -56.65958     -20.21755     -18.89960
     3  H(1)               0.00826      36.93667      13.17992      12.32075
     4  H(1)               0.00426      19.03576       6.79243       6.34964
     5  C(13)             -0.05040     -56.65958     -20.21755     -18.89960
     6  Cl(35)             0.02100       9.20675       3.28520       3.07104
     7  H(1)               0.00426      19.03576       6.79243       6.34964
     8  H(1)               0.00826      36.93667      13.17992      12.32075

 Normal termination of Gaussian 16 at Tue Apr  8 22:38:31 2025.
