 Gaussian 16, Revision C.01,

 ----------------------------------------------------------------------
 #t hf aug-cc-pvdz symm=none int=(grid=ultrafine) guess=(read,tcheck) s
 table=(opt,rrhf)
 ----------------------------------------------------------------------
 -----
 title
 -----
 Symbolic Z-matrix:
 Charge =  0 Multiplicity = 1

 SCF Done:  E(RHF) =  -458.967948905     A.U. after   13 cycles
 Normal termination of Gaussian 16 at Tue Apr  8 23:58:22 2025.
 Gaussian 16:  ES64L-G16RevC.01  3-Jul-2019

 ----------------------------------------------------------------------
 #t hf aug-cc-pvdz iop(5/13=1,5/36=2,99/5=2) pseudo=read geom=check gue
 ss=(read,tcheck) scf=(maxcycle=1)
 ----------------------------------------------------------------------
 -----
 title
 -----
 Structure from the checkpoint file:  "BDE49_nonexpt_2064_mol1.chk"
 Charge =  0 Multiplicity = 1

                         Standard orientation:
 ---------------------------------------------------------------------
 Center     Atomic      Atomic             Coordinates (Angstroms)
 Number     Number       Type             X           Y           Z
 ---------------------------------------------------------------------
      1         14           0        1.668509    0.067536   -0.000002
      2          6           0       -0.127295   -0.470818    0.000007
      3          7           0       -1.027666    0.433895   -0.000006
      4          1           0       -0.426597   -1.524597    0.000024
      5          8           0       -2.316664   -0.110230    0.000004
      6          1           0       -2.879507    0.671712   -0.000008
      7          1           0        1.744268    1.541564   -0.000039
      8          1           0        2.346730   -0.482381   -1.197592
      9          1           0        2.346726   -0.482320    1.197618
 ---------------------------------------------------------------------

 SCF Done:  E(RHF) =  -459.170377151     A.U. after    2 cycles

 The electronic state is 1-A.
 Alpha  occ. eigenvalues --  -69.54116 -20.59340 -15.58419 -11.27312  -6.21229
 Alpha  occ. eigenvalues --   -3.96623  -3.96587  -3.96581  -1.50954  -1.18491
 Alpha  occ. eigenvalues --   -0.84684  -0.75499  -0.72277  -0.66320  -0.60930
 Alpha  occ. eigenvalues --   -0.53832  -0.50412  -0.49766  -0.46243  -0.41861
 Alpha virt. eigenvalues --    0.03672   0.04292   0.04801   0.05891   0.06409
 Alpha virt. eigenvalues --    0.07588   0.08224   0.09093   0.09125   0.13673
 Alpha virt. eigenvalues --    0.14653   0.15096   0.15655   0.16730   0.18227

 Mulliken charges:
               1
     1  Si   1.055599
     2  C   -0.832508
     3  N    1.090878
     4  H    0.002662
     5  O   -1.021938
     6  H    0.303698
     7  H   -0.160632
     8  H   -0.218879
     9  H   -0.218880
 Sum of Mulliken charges =   0.00000

 Dipole moment (field-independent basis, Debye):
    X=              0.3785    Y=             -0.4504    Z=              0.0000  Tot=              0.5884

 Test job not archived.
 1\1\GINC-SE334\SP\RHF\Aug-CC-pVDZ\C1H5N1O1Si1\OHZDE\08-Apr-2025\0\\#t
 hf aug-cc-pvdz iop(5/13=1,5/36=2,99/5=2) pseudo=read geom=check guess=
 (read,tcheck) scf=(maxcycle=1)\\title\\0,1\Si,0,1.668509,0.067536,-0.0
 00002\C,0,-0.127295,-0.470818,0.000007\N,0,-1.027666,0.433895,-0.00000
 6\H,0,-0.426597,-1.524597,0.000024\O,0,-2.316664,-0.11023,0.000004\H,0
 ,-2.879507,0.671712,-0.000008\H,0,1.744268,1.541564,-0.000039\H,0,2.34
 673,-0.482381,-1.197592\H,0,2.346726,-0.48232,1.197618\\Version=ES64L-
 G16RevC.01\State=1-A\HF=-459.1703772\RMSD=1.133e-02\Dipole=0.1489214,-

 Normal termination of Gaussian 16 at Tue Apr  8 23:58:25 2025.
