 Gaussian 16, Revision C.01,

 ----------------------------------------------------------------------
 #t hf aug-cc-pvdz symm=none int=(grid=ultrafine) guess=(read,tcheck) s
 table=(opt,rrhf)
 ----------------------------------------------------------------------
 -----
 title
 -----
 Symbolic Z-matrix:
 Charge =  0 Multiplicity = 1

 SCF Done:  E(RHF) =  -683.800963315     A.U. after   17 cycles
 Normal termination of Gaussian 16 at Tue Apr  8 23:12:53 2025.
 Gaussian 16:  ES64L-G16RevC.01  3-Jul-2019

 ----------------------------------------------------------------------
 #t hf aug-cc-pvdz iop(5/13=1,5/36=2,99/5=2) pseudo=read geom=check gue
 ss=(read,tcheck) scf=(maxcycle=1)
 ----------------------------------------------------------------------
 -----
 title
 -----
 Structure from the checkpoint file:  "BDE49_expt_718_mol1.chk"
 Charge =  0 Multiplicity = 1

                         Standard orientation:
 ---------------------------------------------------------------------
 Center     Atomic      Atomic             Coordinates (Angstroms)
 Number     Number       Type             X           Y           Z
 ---------------------------------------------------------------------
      1          6           0       -1.777152   -0.754998    0.000610
      2          6           0       -2.773480    0.220507   -0.006030
      3          6           0       -2.427830    1.570545   -0.005625
      4          6           0       -1.087723    1.974381    0.001715
      5          6           0       -0.123644    0.984022    0.002920
      6          6           0       -0.446315   -0.377447    0.000867
      7          1           0       -3.215217    2.314807   -0.011963
      8          1           0       -0.807121    3.019988    0.003203
      9          6           0        0.811599   -1.181489    0.008619
     10          7           0        1.828873   -0.200125    0.080643
     11          6           0        1.364973    1.125777    0.013009
     12          8           0        0.988239   -2.367869   -0.019601
     13          8           0        2.041404    2.119164   -0.014531
     14          8           0        3.146821   -0.517403   -0.142068
     15          1           0        3.530780   -0.663026    0.733267
     16          1           0       -3.809442   -0.094880   -0.012270
     17          9           0       -2.128377   -2.046103    0.004038
 ---------------------------------------------------------------------

 SCF Done:  E(RHF) =  -684.461227089     A.U. after    2 cycles

 The electronic state is 1-A.
 Alpha  occ. eigenvalues --  -26.50688 -20.63314 -20.56222 -20.56196 -15.61631
 Alpha  occ. eigenvalues --  -11.40709 -11.40451 -11.38305 -11.29984 -11.29848
 Alpha  occ. eigenvalues --  -11.29632 -11.29161 -11.29024  -1.63903  -1.55997
 Alpha  occ. eigenvalues --   -1.50295  -1.50077  -1.27871  -1.19638  -1.07915
 Alpha  occ. eigenvalues --   -1.07086  -0.96751  -0.91850  -0.89427  -0.83363
 Alpha  occ. eigenvalues --   -0.77907  -0.76919  -0.74661  -0.72740  -0.70738
 Alpha  occ. eigenvalues --   -0.70480  -0.70145  -0.66327  -0.65983  -0.62982
 Alpha  occ. eigenvalues --   -0.62418  -0.58879  -0.57988  -0.56982  -0.54644
 Alpha  occ. eigenvalues --   -0.54196  -0.48624  -0.45332  -0.45211  -0.39995
 Alpha  occ. eigenvalues --   -0.38516
 Alpha virt. eigenvalues --    0.02079   0.02319   0.03521   0.03836   0.05175
 Alpha virt. eigenvalues --    0.06358   0.07999   0.08137   0.08846   0.09536
 Alpha virt. eigenvalues --    0.09962   0.10347   0.11660   0.12353   0.13111

 Mulliken charges:
               1
     1  C    2.284760
     2  C   -0.150922
     3  C    0.302058
     4  C    0.510307
     5  C    1.384692
     6  C    0.418942
     7  H   -0.203961
     8  H   -0.239661
     9  C   -0.366346
    10  N    1.277202
    11  C   -0.316070
    12  O   -1.322708
    13  O   -1.367490
    14  O   -1.202703
    15  H    0.265844
    16  H   -0.208277
    17  F   -1.065664
 Sum of Mulliken charges =   0.00000

 Dipole moment (field-independent basis, Debye):
    X=             -3.4837    Y=              2.2344    Z=              1.3994  Tot=              4.3688

 Test job not archived.
 1\1\GINC-SE227\SP\RHF\Aug-CC-pVDZ\C8H4F1N1O3\OHZDE\08-Apr-2025\0\\#t h
 f aug-cc-pvdz iop(5/13=1,5/36=2,99/5=2) pseudo=read geom=check guess=(
 read,tcheck) scf=(maxcycle=1)\\title\\0,1\C,0,-1.777152,-0.754998,0.00
 061\C,0,-2.77348,0.220507,-0.00603\C,0,-2.42783,1.570545,-0.005625\C,0
 ,-1.087723,1.974381,0.001715\C,0,-0.123644,0.984022,0.00292\C,0,-0.446
 315,-0.377447,0.000867\H,0,-3.215217,2.314807,-0.011963\H,0,-0.807121,
 3.019988,0.003203\C,0,0.811599,-1.181489,0.008619\N,0,1.828873,-0.2001
 25,0.080643\C,0,1.364973,1.125777,0.013009\O,0,0.988239,-2.367869,-0.0

 Normal termination of Gaussian 16 at Tue Apr  8 23:13:05 2025.
