 Gaussian 16, Revision C.01,

 ----------------------------------------------------------------------
 #t hf aug-cc-pvdz symm=none int=(grid=ultrafine) guess=(read,tcheck) s
 table=(opt,rrhf)
 ----------------------------------------------------------------------
 -----
 title
 -----
 Symbolic Z-matrix:
 Charge =  0 Multiplicity = 1

 SCF Done:  E(RHF) =  -347.291504829     A.U. after   12 cycles
 Normal termination of Gaussian 16 at Wed Apr  9 00:39:12 2025.
 Gaussian 16:  ES64L-G16RevC.01  3-Jul-2019

 ----------------------------------------------------------------------
 #t hf aug-cc-pvdz iop(5/13=1,5/36=2,99/5=2) pseudo=read geom=check gue
 ss=(read,tcheck) scf=(maxcycle=1)
 ----------------------------------------------------------------------
 -----
 title
 -----
 Structure from the checkpoint file:  "BDE49_nonexpt_609_mol1.chk"
 Charge =  0 Multiplicity = 1

                         Standard orientation:
 ---------------------------------------------------------------------
 Center     Atomic      Atomic             Coordinates (Angstroms)
 Number     Number       Type             X           Y           Z
 ---------------------------------------------------------------------
      1          5           0        1.329143   -0.039229    0.022931
      2          8           0        1.401343    1.334978    0.101790
      3          8           0        2.481853   -0.744620   -0.227691
      4          6           0       -1.149032   -0.209128    0.555786
      5          6           0       -2.375566   -0.568309   -0.240221
      6          6           0       -1.804338    0.824263   -0.341166
      7          1           0       -3.309727   -0.707168    0.290093
      8          1           0       -2.228122   -1.222721   -1.090559
      9          1           0       -1.291403    1.079194   -1.260382
     10          1           0       -2.347987    1.638588    0.123354
     11          1           0        3.233336   -0.154050   -0.327415
     12          1           0        0.547740    1.740482    0.275516
     13          7           0        0.115016   -0.763364    0.175148
     14          1           0       -1.311677   -0.067221    1.624038
     15          1           0        0.165061   -1.771234    0.185483
 ---------------------------------------------------------------------

 SCF Done:  E(RHF) =  -347.651049313     A.U. after    2 cycles

 The electronic state is 1-A.
 Alpha  occ. eigenvalues --  -20.54532 -20.53836 -15.48108 -11.27791 -11.24444
 Alpha  occ. eigenvalues --  -11.24207  -7.63459  -1.46638  -1.42564  -1.21142
 Alpha  occ. eigenvalues --   -1.10712  -0.84207  -0.83649  -0.75994  -0.72708
 Alpha  occ. eigenvalues --   -0.71428  -0.68764  -0.65414  -0.57785  -0.56555
 Alpha  occ. eigenvalues --   -0.55032  -0.54439  -0.53201  -0.48224  -0.47786
 Alpha  occ. eigenvalues --   -0.43740  -0.40640
 Alpha virt. eigenvalues --    0.03500   0.04087   0.04178   0.04495   0.05479
 Alpha virt. eigenvalues --    0.06467   0.06572   0.06954   0.07285   0.09563
 Alpha virt. eigenvalues --    0.10581   0.11323   0.12687   0.13493   0.14803

 Mulliken charges:
               1
     1  B    1.540075
     2  O   -1.321611
     3  O   -1.267787
     4  C   -0.948051
     5  C    0.290611
     6  C    0.156100
     7  H   -0.106272
     8  H   -0.084968
     9  H   -0.121679
    10  H   -0.096221
    11  H    0.490783
    12  H    0.659859
    13  N    0.937317
    14  H   -0.134995
    15  H    0.006839
 Sum of Mulliken charges =  -0.00000

 Dipole moment (field-independent basis, Debye):
    X=             -1.8698    Y=              0.5113    Z=              0.4375  Tot=              1.9872

 Test job not archived.
 1\1\GINC-SE366\SP\RHF\Aug-CC-pVDZ\C3H8B1N1O2\OHZDE\09-Apr-2025\0\\#t h
 f aug-cc-pvdz iop(5/13=1,5/36=2,99/5=2) pseudo=read geom=check guess=(
 read,tcheck) scf=(maxcycle=1)\\title\\0,1\B,0,1.329143,-0.039229,0.022
 931\O,0,1.401343,1.334978,0.10179\O,0,2.481853,-0.74462,-0.227691\C,0,
 -1.149032,-0.209128,0.555786\C,0,-2.375566,-0.568309,-0.240221\C,0,-1.
 804338,0.824263,-0.341166\H,0,-3.309727,-0.707168,0.290093\H,0,-2.2281
 22,-1.222721,-1.090559\H,0,-1.291403,1.079194,-1.260382\H,0,-2.347987,
 1.638588,0.123354\H,0,3.233336,-0.15405,-0.327415\H,0,0.54774,1.740482

 Normal termination of Gaussian 16 at Wed Apr  9 00:39:16 2025.
