 Gaussian 16, Revision C.01,

 ----------------------------------------------------------------------
 #t hf aug-cc-pvdz symm=none int=(grid=ultrafine) guess=(read,tcheck) s
 table=(opt,rrhf)
 ----------------------------------------------------------------------
 -----
 title
 -----
 Symbolic Z-matrix:
 Charge =  0 Multiplicity = 1

 SCF Done:  E(RHF) =  -421.875416214     A.U. after   14 cycles
 Normal termination of Gaussian 16 at Wed Apr  9 00:40:05 2025.
 Gaussian 16:  ES64L-G16RevC.01  3-Jul-2019

 ----------------------------------------------------------------------
 #t hf aug-cc-pvdz iop(5/13=1,5/36=2,99/5=2) pseudo=read geom=check gue
 ss=(read,tcheck) scf=(maxcycle=1)
 ----------------------------------------------------------------------
 -----
 title
 -----
 Structure from the checkpoint file:  "BDE49_nonexpt_624_mol1.chk"
 Charge =  0 Multiplicity = 1

                         Standard orientation:
 ---------------------------------------------------------------------
 Center     Atomic      Atomic             Coordinates (Angstroms)
 Number     Number       Type             X           Y           Z
 ---------------------------------------------------------------------
      1          1           0        3.665602   -0.198026    0.016843
      2          8           0       -2.516238    1.124039    0.103296
      3          1           0       -2.030677    1.943217    0.223798
      4          8           0       -2.358912   -1.200322   -0.113675
      5          1           0       -3.317480   -1.110754   -0.089069
      6          5           0       -1.731222    0.004948   -0.004025
      7          7           0        1.897644   -1.255062    0.065751
      8          6           0        2.582429   -0.108413    0.009251
      9          6           0        1.979898    1.145718   -0.058646
     10          1           0        2.585970    2.042735   -0.107427
     11          6           0        0.591503    1.207908   -0.064333
     12          1           0        0.107843    2.179891   -0.126690
     13          6           0       -0.163231    0.029769   -0.004343
     14          6           0        0.564899   -1.170357    0.055781
     15          1           0        0.029548   -2.113855    0.099183
 ---------------------------------------------------------------------

 SCF Done:  E(RHF) =  -422.299360631     A.U. after    2 cycles

 The electronic state is 1-A.
 Alpha  occ. eigenvalues --  -20.56787 -20.55769 -15.50651 -11.28905 -11.28435
 Alpha  occ. eigenvalues --  -11.27714 -11.25294 -11.23202  -7.64978  -1.48828
 Alpha  occ. eigenvalues --   -1.44480  -1.26099  -1.09579  -1.04113  -0.88359
 Alpha  occ. eigenvalues --   -0.87481  -0.78044  -0.75430  -0.72338  -0.69388
 Alpha  occ. eigenvalues --   -0.65811  -0.62259  -0.59872  -0.58363  -0.56601
 Alpha  occ. eigenvalues --   -0.55969  -0.55727  -0.51237  -0.49834  -0.44963
 Alpha  occ. eigenvalues --   -0.40946  -0.36072
 Alpha virt. eigenvalues --    0.02600   0.03687   0.04021   0.04832   0.05285
 Alpha virt. eigenvalues --    0.05892   0.06745   0.07607   0.08361   0.08728
 Alpha virt. eigenvalues --    0.09201   0.10334   0.11866   0.12571   0.13213

 Mulliken charges:
               1
     1  H   -0.168639
     2  O   -1.433817
     3  H    0.614043
     4  O   -1.294674
     5  H    0.497865
     6  B    1.491866
     7  N    1.161545
     8  C   -0.805904
     9  C    0.686357
    10  H   -0.190894
    11  C    0.121931
    12  H   -0.375173
    13  C    1.184964
    14  C   -1.240268
    15  H   -0.249202
 Sum of Mulliken charges =  -0.00000

 Dipole moment (field-independent basis, Debye):
    X=             -0.7289    Y=              3.5385    Z=              0.0840  Tot=              3.6138

 Test job not archived.
 1\1\GINC-SE227\SP\RHF\Aug-CC-pVDZ\C5H6B1N1O2\OHZDE\09-Apr-2025\0\\#t h
 f aug-cc-pvdz iop(5/13=1,5/36=2,99/5=2) pseudo=read geom=check guess=(
 read,tcheck) scf=(maxcycle=1)\\title\\0,1\H,0,3.665602,-0.198027,0.016
 843\O,0,-2.516238,1.124039,0.103296\H,0,-2.030677,1.943217,0.223798\O,
 0,-2.358912,-1.200322,-0.113675\H,0,-3.31748,-1.110753,-0.089069\B,0,-
 1.731222,0.004948,-0.004025\N,0,1.897644,-1.255062,0.065751\C,0,2.5824
 29,-0.108413,0.009251\C,0,1.979898,1.145718,-0.058646\H,0,2.58597,2.04
 2735,-0.107427\C,0,0.591503,1.207908,-0.064333\H,0,0.107843,2.179891,-

 Normal termination of Gaussian 16 at Wed Apr  9 00:40:11 2025.
