 Gaussian 16, Revision C.01,

 ----------------------------------------------------------------------
 #t hf aug-cc-pvdz symm=none int=(grid=ultrafine) guess=(read,tcheck) s
 table=(opt,rrhf)
 ----------------------------------------------------------------------
 -----
 title
 -----
 Symbolic Z-matrix:
 Charge =  0 Multiplicity = 1

 SCF Done:  E(RHF) =  -784.890273340     A.U. after   13 cycles
 Normal termination of Gaussian 16 at Wed Apr  9 00:11:59 2025.
 Gaussian 16:  ES64L-G16RevC.01  3-Jul-2019

 ----------------------------------------------------------------------
 #t hf aug-cc-pvdz iop(5/13=1,5/36=2,99/5=2) pseudo=read geom=check gue
 ss=(read,tcheck) scf=(maxcycle=1)
 ----------------------------------------------------------------------
 -----
 title
 -----
 Structure from the checkpoint file:  "BDE49_nonexpt_2403_mol1.chk"
 Charge =  0 Multiplicity = 1

                         Standard orientation:
 ---------------------------------------------------------------------
 Center     Atomic      Atomic             Coordinates (Angstroms)
 Number     Number       Type             X           Y           Z
 ---------------------------------------------------------------------
      1         14           0       -1.846970   -0.818189    0.000001
      2         14           0       -0.515804    1.131127   -0.000001
      3          1           0       -3.264424   -0.378860   -0.000000
      4          1           0       -1.599770   -1.634641    1.210281
      5          8           0        1.146916    0.765426   -0.000006
      6          1           0       -0.767700    1.953101    1.204651
      7          1           0       -0.767704    1.953102   -1.204652
      8          7           0        1.512665   -0.644462   -0.000001
      9          8           0        2.664277   -0.781420    0.000007
     10          1           0       -1.599769   -1.634645   -1.210276
 ---------------------------------------------------------------------

 SCF Done:  E(RHF) =  -785.149982970     A.U. after    2 cycles

 The electronic state is 1-A.
 Alpha  occ. eigenvalues --  -69.57444 -69.53884 -20.66033 -20.59438 -15.74295
 Alpha  occ. eigenvalues --   -6.24137  -6.21100  -3.99579  -3.99439  -3.99418
 Alpha  occ. eigenvalues --   -3.96453  -3.96452  -3.96448  -1.69450  -1.46301
 Alpha  occ. eigenvalues --   -0.98077  -0.81863  -0.77131  -0.75294  -0.70666
 Alpha  occ. eigenvalues --   -0.67887  -0.56122  -0.55706  -0.50433  -0.50246
 Alpha  occ. eigenvalues --   -0.46830  -0.46808  -0.42341
 Alpha virt. eigenvalues --    0.03685   0.04047   0.05311   0.05415   0.05975
 Alpha virt. eigenvalues --    0.06620   0.07333   0.07612   0.08634   0.09053
 Alpha virt. eigenvalues --    0.10085   0.10145   0.12042   0.13663   0.14425

 Mulliken charges:
               1
     1  Si   0.294775
     2  Si   1.233319
     3  H   -0.128175
     4  H   -0.108814
     5  O   -1.598312
     6  H   -0.159000
     7  H   -0.158999
     8  N    1.604602
     9  O   -0.870583
    10  H   -0.108813
 Sum of Mulliken charges =  -0.00000

 Dipole moment (field-independent basis, Debye):
    X=             -1.5209    Y=              0.2031    Z=              0.0000  Tot=              1.5344

 Test job not archived.
 1\1\GINC-SE058\SP\RHF\Aug-CC-pVDZ\H5N1O2Si2\OHZDE\09-Apr-2025\0\\#t hf
  aug-cc-pvdz iop(5/13=1,5/36=2,99/5=2) pseudo=read geom=check guess=(r
 ead,tcheck) scf=(maxcycle=1)\\title\\0,1\Si,0,-1.84697,-0.81819,0.0000
 01\Si,0,-0.515804,1.131127,-0.000001\H,0,-3.264424,-0.378861,0.\H,0,-1
 .59977,-1.634641,1.210281\O,0,1.146916,0.765426,-0.000006\H,0,-0.7677,
 1.953101,1.204651\H,0,-0.767704,1.953102,-1.204652\N,0,1.512665,-0.644
 462,-0.000001\O,0,2.664277,-0.78142,0.000007\H,0,-1.599769,-1.634645,-
 1.210276\\Version=ES64L-G16RevC.01\State=1-A\HF=-785.149983\RMSD=8.734

 Normal termination of Gaussian 16 at Wed Apr  9 00:12:03 2025.
