 Gaussian 16, Revision C.01,

 ----------------------------------------------------------------------
 #t hf aug-cc-pvdz symm=none int=(grid=ultrafine) guess=(read,tcheck) s
 table=(opt,rrhf)
 ----------------------------------------------------------------------
 -----
 title
 -----
 Symbolic Z-matrix:
 Charge =  0 Multiplicity = 1

 SCF Done:  E(RHF) =  -1110.99828828     A.U. after   14 cycles
 Normal termination of Gaussian 16 at Wed Apr  9 00:03:28 2025.
 Gaussian 16:  ES64L-G16RevC.01  3-Jul-2019

 ----------------------------------------------------------------------
 #t hf aug-cc-pvdz iop(5/13=1,5/36=2,99/5=2) pseudo=read geom=check gue
 ss=(read,tcheck) scf=(maxcycle=1)
 ----------------------------------------------------------------------
 -----
 title
 -----
 Structure from the checkpoint file:  "BDE49_nonexpt_218_mol1.chk"
 Charge =  0 Multiplicity = 1

                         Standard orientation:
 ---------------------------------------------------------------------
 Center     Atomic      Atomic             Coordinates (Angstroms)
 Number     Number       Type             X           Y           Z
 ---------------------------------------------------------------------
      1         17           0        0.115207    1.655900    0.000003
      2          5           0        0.399661   -0.064734   -0.000002
      3          6           0       -1.907783   -0.664137    0.000002
      4          7           0       -3.044648   -0.465338    0.000005
      5          8           0       -0.648370   -0.968870   -0.000001
      6         17           0        1.999375   -0.754911   -0.000005
 ---------------------------------------------------------------------

 SCF Done:  E(RHF) =  -1111.32820094     A.U. after    2 cycles

 The electronic state is 1-A.
 Alpha  occ. eigenvalues -- -105.61417-105.61122 -20.68301 -15.53621 -11.37126
 Alpha  occ. eigenvalues --  -10.66444 -10.66140  -7.83347  -7.83050  -7.83031
 Alpha  occ. eigenvalues --   -7.82995  -7.82734  -7.82696  -7.79920  -1.61868
 Alpha  occ. eigenvalues --   -1.25707  -1.14616  -1.10188  -0.93014  -0.75322
 Alpha  occ. eigenvalues --   -0.71032  -0.69037  -0.63292  -0.60524  -0.56019
 Alpha  occ. eigenvalues --   -0.53892  -0.51518  -0.51400  -0.50008  -0.49984
 Alpha virt. eigenvalues --    0.03755   0.04656   0.04808   0.05241   0.06837
 Alpha virt. eigenvalues --    0.10267   0.11305   0.11655   0.12084   0.14006
 Alpha virt. eigenvalues --    0.14211   0.14852   0.16608   0.17517   0.18103

 Mulliken charges:
               1
     1  Cl  -0.236576
     2  B    0.833856
     3  C   -0.346062
     4  N    0.811553
     5  O   -0.783902
     6  Cl  -0.278869
 Sum of Mulliken charges =  -0.00000

 Dipole moment (field-independent basis, Debye):
    X=              3.6539    Y=             -0.0185    Z=             -0.0000  Tot=              3.6539

 Test job not archived.
 1\1\GINC-SE339\SP\RHF\Aug-CC-pVDZ\C1B1Cl2N1O1\OHZDE\09-Apr-2025\0\\#t
 hf aug-cc-pvdz iop(5/13=1,5/36=2,99/5=2) pseudo=read geom=check guess=
 (read,tcheck) scf=(maxcycle=1)\\title\\0,1\Cl,0,0.115207,1.6559,0.0000
 03\B,0,0.399661,-0.064734,-0.000002\C,0,-1.907783,-0.664137,0.000002\N
 ,0,-3.044648,-0.465338,0.000005\O,0,-0.64837,-0.96887,-0.000001\Cl,0,1
 .999375,-0.754911,-0.000005\\Version=ES64L-G16RevC.01\State=1-A\HF=-11
 11.3282009\RMSD=1.258e-02\Dipole=1.4375405,-0.007296,-0.0000041\Quadru
 pole=-8.1423766,3.6983398,4.4440368,-0.9042089,0.0000238,0.0000015\PG=

 Normal termination of Gaussian 16 at Wed Apr  9 00:03:30 2025.
