 Gaussian 16, Revision C.01,

 ----------------------------------------------------------------------
 #t hf aug-cc-pvdz symm=none int=(grid=ultrafine) guess=(read,tcheck) s
 table=(opt,rrhf)
 ----------------------------------------------------------------------
 -----
 title
 -----
 Symbolic Z-matrix:
 Charge =  0 Multiplicity = 1

 SCF Done:  E(RHF) =  -183.566042574     A.U. after   13 cycles
 Normal termination of Gaussian 16 at Wed Apr  9 00:41:54 2025.
 Gaussian 16:  ES64L-G16RevC.01  3-Jul-2019

 ----------------------------------------------------------------------
 #t hf aug-cc-pvdz iop(5/13=1,5/36=2,99/5=2) pseudo=read geom=check gue
 ss=(read,tcheck) scf=(maxcycle=1)
 ----------------------------------------------------------------------
 -----
 title
 -----
 Structure from the checkpoint file:  "BDE49_nonexpt_69_mol1.chk"
 Charge =  0 Multiplicity = 1

                         Standard orientation:
 ---------------------------------------------------------------------
 Center     Atomic      Atomic             Coordinates (Angstroms)
 Number     Number       Type             X           Y           Z
 ---------------------------------------------------------------------
      1          5           0       -1.753799   -0.855153    0.000168
      2          5           0       -1.281127    0.710199   -0.000175
      3          6           0        0.237289    1.177430    0.000090
      4          7           0        1.272592    0.424107    0.000104
      5          6           0        1.159464   -1.005479   -0.000176
      6          1           0        1.669101   -1.405950   -0.881685
      7          1           0        0.118616   -1.402271   -0.000415
      8          1           0        1.668818   -1.406274    0.881350
      9          1           0        0.465163    2.247578    0.000275
     10          1           0       -2.086633    1.596192   -0.000263
     11          1           0       -1.975005   -1.452122    1.014752
     12          1           0       -1.974094   -1.452838   -1.014191
 ---------------------------------------------------------------------

 SCF Done:  E(RHF) =  -183.758003932     A.U. after    2 cycles

 The electronic state is 1-A.
 Alpha  occ. eigenvalues --  -15.52244 -11.27546 -11.26522  -7.58770  -7.58714
 Alpha  occ. eigenvalues --   -1.23613  -0.98678  -0.83311  -0.74249  -0.69274
 Alpha  occ. eigenvalues --   -0.65748  -0.61702  -0.57919  -0.53183  -0.49954
 Alpha  occ. eigenvalues --   -0.45775  -0.44840  -0.42067
 Alpha virt. eigenvalues --    0.02401   0.03352   0.03367   0.03609   0.04448
 Alpha virt. eigenvalues --    0.06142   0.06312   0.06946   0.07398   0.07594
 Alpha virt. eigenvalues --    0.09452   0.09643   0.11142   0.11860   0.13347

 Mulliken charges:
               1
     1  B   -0.730069
     2  B    0.376576
     3  C   -0.790050
     4  N    0.616227
     5  C   -0.327191
     6  H    0.135525
     7  H   -0.019012
     8  H    0.135522
     9  H   -0.157284
    10  H    0.190632
    11  H    0.284647
    12  H    0.284478
 Sum of Mulliken charges =  -0.00000

 Dipole moment (field-independent basis, Debye):
    X=             -1.0697    Y=             -0.4375    Z=             -0.0006  Tot=              1.1557

 Test job not archived.
 1\1\GINC-SE070\SP\RHF\Aug-CC-pVDZ\C2H7B2N1\OHZDE\09-Apr-2025\0\\#t hf
 aug-cc-pvdz iop(5/13=1,5/36=2,99/5=2) pseudo=read geom=check guess=(re
 ad,tcheck) scf=(maxcycle=1)\\title\\0,1\B,0,-1.753799,-0.855153,0.0001
 68\B,0,-1.281127,0.710199,-0.000175\C,0,0.237289,1.17743,0.00009\N,0,1
 .272592,0.424107,0.000104\C,0,1.159464,-1.005479,-0.000176\H,0,1.66910
 1,-1.40595,-0.881685\H,0,0.118616,-1.402271,-0.000415\H,0,1.668818,-1.
 406274,0.88135\H,0,0.465163,2.247578,0.000275\H,0,-2.086633,1.596192,-
 0.000263\H,0,-1.975005,-1.452122,1.014752\H,0,-1.974094,-1.452838,-1.0

 Normal termination of Gaussian 16 at Wed Apr  9 00:41:58 2025.
