 Gaussian 16, Revision C.01,

 ----------------------------------------------------------------------
 #t hf aug-cc-pvdz symm=none int=(grid=ultrafine) guess=(read,tcheck) s
 table=(opt,rrhf)
 ----------------------------------------------------------------------
 -----
 title
 -----
 Symbolic Z-matrix:
 Charge =  0 Multiplicity = 1

 SCF Done:  E(RHF) =  -548.396451640     A.U. after   13 cycles
 Normal termination of Gaussian 16 at Tue Apr  8 22:57:34 2025.
 Gaussian 16:  ES64L-G16RevC.01  3-Jul-2019

 ----------------------------------------------------------------------
 #t hf aug-cc-pvdz iop(5/13=1,5/36=2,99/5=2) pseudo=read geom=check gue
 ss=(read,tcheck) scf=(maxcycle=1)
 ----------------------------------------------------------------------
 -----
 title
 -----
 Structure from the checkpoint file:  "BDE49_expt_1913_mol1.chk"
 Charge =  0 Multiplicity = 1

                         Standard orientation:
 ---------------------------------------------------------------------
 Center     Atomic      Atomic             Coordinates (Angstroms)
 Number     Number       Type             X           Y           Z
 ---------------------------------------------------------------------
      1          8           0        0.000000    1.315761   -0.467978
      2         16           0       -0.000000    0.000000    0.558858
      3          1           0        0.915625    1.486325   -0.727042
      4          8           0       -0.000000   -1.315761   -0.467978
      5          1           0       -0.915625   -1.486325   -0.727042
 ---------------------------------------------------------------------

 SCF Done:  E(RHF) =  -548.603299291     A.U. after    2 cycles

 The electronic state is 1-A.
 Alpha  occ. eigenvalues --  -94.05495 -20.60140 -20.60137  -8.32324  -6.30152
 Alpha  occ. eigenvalues --   -6.29926  -6.29577  -1.50818  -1.46040  -0.95667
 Alpha  occ. eigenvalues --   -0.74037  -0.66123  -0.62583  -0.60947  -0.50946
 Alpha  occ. eigenvalues --   -0.48813  -0.37638
 Alpha virt. eigenvalues --    0.03829   0.04540   0.08136   0.09194   0.12269
 Alpha virt. eigenvalues --    0.17032   0.17745   0.18253   0.20787   0.21021
 Alpha virt. eigenvalues --    0.22383   0.23128   0.24108   0.27702   0.31950

 Mulliken charges:
               1
     1  O   -1.060518
     2  S    1.319971
     3  H    0.400532
     4  O   -1.060518
     5  H    0.400532
 Sum of Mulliken charges =  -0.00000

 Dipole moment (field-independent basis, Debye):
    X=             -0.0000    Y=              0.0000    Z=             -0.5240  Tot=              0.5240

 Test job not archived.
 1\1\GINC-SE105\SP\RHF\Aug-CC-pVDZ\H2O2S1\OHZDE\08-Apr-2025\0\\#t hf au
 g-cc-pvdz iop(5/13=1,5/36=2,99/5=2) pseudo=read geom=check guess=(read
 ,tcheck) scf=(maxcycle=1)\\title\\0,1\O,0,0.,-1.315761,-0.467978\S,0,0
 .,0.,0.558858\H,0,-0.915625,-1.486325,-0.727042\O,0,0.,1.315761,-0.467
 978\H,0,0.915625,1.486325,-0.727042\\Version=ES64L-G16RevC.01\State=1-
 A\HF=-548.6032993\RMSD=5.195e-03\Dipole=0.,0.,-0.2061451\Quadrupole=0.
 8657979,-0.4541454,-0.4116525,4.0277755,0.,0.\PG=C02 [C2(S1),X(H2O2)]\
 \@

 Normal termination of Gaussian 16 at Tue Apr  8 22:57:36 2025.
