 Gaussian 16, Revision C.01,

 ----------------------------------------------------------------------
 #t hf aug-cc-pvdz symm=none int=(grid=ultrafine) guess=(read,tcheck) s
 table=(opt,rrhf)
 ----------------------------------------------------------------------
 -----
 title
 -----
 Symbolic Z-matrix:
 Charge =  0 Multiplicity = 1

 SCF Done:  E(RHF) =  -1315.46483665     A.U. after   15 cycles
 Normal termination of Gaussian 16 at Tue Apr  8 23:47:59 2025.
 Gaussian 16:  ES64L-G16RevC.01  3-Jul-2019

 ----------------------------------------------------------------------
 #t hf aug-cc-pvdz iop(5/13=1,5/36=2,99/5=2) pseudo=read geom=check gue
 ss=(read,tcheck) scf=(maxcycle=1)
 ----------------------------------------------------------------------
 -----
 title
 -----
 Structure from the checkpoint file:  "BDE49_nonexpt_1775_mol1.chk"
 Charge =  0 Multiplicity = 1

                         Standard orientation:
 ---------------------------------------------------------------------
 Center     Atomic      Atomic             Coordinates (Angstroms)
 Number     Number       Type             X           Y           Z
 ---------------------------------------------------------------------
      1          6           0        0.903724    1.857374    0.109864
      2          6           0       -0.320315    2.419344   -0.242628
      3          6           0       -1.458284    1.622434   -0.313115
      4          6           0       -1.366096    0.259578   -0.029914
      5          6           0       -0.141011   -0.303942    0.319902
      6          6           0        1.014034    0.487357    0.393155
      7          1           0        1.780983    2.494052    0.162386
      8          1           0       -0.388923    3.478042   -0.463364
      9         14           0        2.655694   -0.269619    0.854212
     10          1           0       -0.092343   -1.366176    0.529017
     11         17           0        3.746111   -0.776988   -0.852464
     12          1           0       -2.412595    2.051520   -0.592350
     13          6           0       -2.610302   -0.587295   -0.051840
     14          9           0       -3.463659   -0.203273   -1.025975
     15          9           0       -3.290519   -0.501734    1.115547
     16          9           0       -2.335370   -1.893579   -0.248764
     17          1           0        2.446227   -1.515215    1.615227
     18          1           0        3.478487    0.699417    1.602174
 ---------------------------------------------------------------------

 SCF Done:  E(RHF) =  -1316.11484738     A.U. after    2 cycles

 The electronic state is 1-A.
 Alpha  occ. eigenvalues -- -105.55978 -69.58932 -26.50925 -26.50800 -26.50403
 Alpha  occ. eigenvalues --  -11.52716 -11.28501 -11.28423 -11.28290 -11.28158
 Alpha  occ. eigenvalues --  -11.27184 -11.26181 -10.60966  -7.77854  -7.77549
 Alpha  occ. eigenvalues --   -7.77546  -6.25592  -4.01018  -4.00888  -4.00878
 Alpha  occ. eigenvalues --   -1.71405  -1.61514  -1.60996  -1.19345  -1.08124
 Alpha  occ. eigenvalues --   -1.06063  -1.04505  -0.96441  -0.87679  -0.87457
 Alpha  occ. eigenvalues --   -0.80912  -0.80719  -0.80503  -0.74115  -0.71993
 Alpha  occ. eigenvalues --   -0.69573  -0.68662  -0.66873  -0.65291  -0.63590
 Alpha  occ. eigenvalues --   -0.63345  -0.62047  -0.60021  -0.59719  -0.55693
 Alpha  occ. eigenvalues --   -0.54526  -0.53596  -0.52958  -0.51442  -0.46027
 Alpha  occ. eigenvalues --   -0.45958  -0.38326  -0.37882
 Alpha virt. eigenvalues --    0.02778   0.03477   0.04161   0.04590   0.05153
 Alpha virt. eigenvalues --    0.05732   0.06039   0.07233   0.07978   0.08474
 Alpha virt. eigenvalues --    0.09078   0.09637   0.09841   0.11038   0.12203

 Mulliken charges:
               1
     1  C    0.175281
     2  C    0.457012
     3  C   -0.137586
     4  C    0.992533
     5  C    0.177136
     6  C   -0.921419
     7  H   -0.311523
     8  H   -0.213580
     9  Si   1.045923
    10  H   -0.299731
    11  Cl  -0.606376
    12  H   -0.260025
    13  C    2.578018
    14  F   -0.825547
    15  F   -0.754937
    16  F   -0.844720
    17  H   -0.138435
    18  H   -0.112024
 Sum of Mulliken charges =  -0.00000

 Dipole moment (field-independent basis, Debye):
    X=              0.5666    Y=              2.4951    Z=              1.1345  Tot=              2.7988

 Test job not archived.
 1\1\GINC-SE341\SP\RHF\Aug-CC-pVDZ\C7H6Cl1F3Si1\OHZDE\08-Apr-2025\0\\#t
  hf aug-cc-pvdz iop(5/13=1,5/36=2,99/5=2) pseudo=read geom=check guess
 =(read,tcheck) scf=(maxcycle=1)\\title\\0,1\C,0,0.903724,1.857374,0.10
 9864\C,0,-0.320315,2.419344,-0.242628\C,0,-1.458284,1.622434,-0.313115
 \C,0,-1.366096,0.259578,-0.029914\C,0,-0.141011,-0.303942,0.319902\C,0
 ,1.014034,0.487357,0.393155\H,0,1.780983,2.494052,0.162386\H,0,-0.3889
 23,3.478042,-0.463364\Si,0,2.655694,-0.269619,0.854212\H,0,-0.092343,-
 1.366176,0.529017\Cl,0,3.746111,-0.776988,-0.852464\H,0,-2.412595,2.05

 Normal termination of Gaussian 16 at Tue Apr  8 23:48:10 2025.
