 Gaussian 16, Revision C.01,

 ----------------------------------------------------------------------
 #t hf aug-cc-pvdz symm=none int=(grid=ultrafine) guess=(read,tcheck) s
 table=opt
 ----------------------------------------------------------------------
 -----
 title
 -----
 Symbolic Z-matrix:
 Charge =  0 Multiplicity = 2

 SCF Done:  E(UHF) =  -156.684931033     A.U. after   15 cycles
 Normal termination of Gaussian 16 at Tue Apr  8 22:40:38 2025.
 Gaussian 16:  ES64L-G16RevC.01  3-Jul-2019

 ----------------------------------------------------------------------
 #t hf aug-cc-pvdz iop(5/13=1,5/36=2,99/5=2) pseudo=read geom=check gue
 ss=(read,tcheck) scf=(maxcycle=1)
 ----------------------------------------------------------------------
 -----
 title
 -----
 Structure from the checkpoint file:  "BDE49_expt_1338_mol2.chk"
 Charge =  0 Multiplicity = 2

                         Standard orientation:
 ---------------------------------------------------------------------
 Center     Atomic      Atomic             Coordinates (Angstroms)
 Number     Number       Type             X           Y           Z
 ---------------------------------------------------------------------
      1          6           0        0.000010    1.483372    0.102728
      2          6           0        0.000001    0.059637   -0.347678
      3          6           0        1.271155   -0.680749    0.101758
      4          1           0        2.171713   -0.167977   -0.247981
      5          1           0        1.291471   -1.701091   -0.291757
      6          1           0        1.320343   -0.737652    1.193668
      7          6           0       -1.271164   -0.680733    0.101751
      8          1           0        0.000005    0.053021   -1.453912
      9          1           0       -1.291489   -1.701076   -0.291761
     10          1           0       -2.171714   -0.167951   -0.247994
     11          1           0       -1.320359   -0.737633    1.193662
     12          1           0        0.928065    2.035601    0.197320
     13          1           0       -0.928043    2.035591    0.197401
 ---------------------------------------------------------------------

 SCF Done:  E(UHF) =  -156.861275534     A.U. after    2 cycles

 The electronic state is 2-A.
 Alpha  occ. eigenvalues --  -11.23618 -11.23475 -11.22246 -11.22232  -1.08810
 Alpha  occ. eigenvalues --   -0.93068  -0.92973  -0.77165  -0.63556  -0.61502
 Alpha  occ. eigenvalues --   -0.60143  -0.54320  -0.52693  -0.50085  -0.49120
 Alpha  occ. eigenvalues --   -0.47807  -0.35221
 Alpha virt. eigenvalues --    0.03940   0.04126   0.04199   0.04410   0.06548
 Alpha virt. eigenvalues --    0.06883   0.07327   0.07611   0.09588   0.12416
 Alpha virt. eigenvalues --    0.13637   0.15022   0.15449   0.16087   0.16559

  Beta  occ. eigenvalues --  -11.23936 -11.22172 -11.22157 -11.21067  -1.07374
  Beta  occ. eigenvalues --   -0.92926  -0.87439  -0.75026  -0.62333  -0.60489
  Beta  occ. eigenvalues --   -0.59762  -0.54247  -0.52319  -0.48818  -0.47615
  Beta  occ. eigenvalues --   -0.47593
  Beta virt. eigenvalues --    0.03946   0.04149   0.04213   0.04260   0.06565
  Beta virt. eigenvalues --    0.06903   0.07318   0.07624   0.09129   0.09593
  Beta virt. eigenvalues --    0.13336   0.15139   0.15526   0.15692   0.16094

 Mulliken charges and spin densities:
               1          2
     1  C    0.247586   1.418598
     2  C   -0.920796  -0.314174
     3  C   -0.182247   0.036151
     4  H    0.117693  -0.005924
     5  H    0.132150  -0.000426
     6  H    0.222446   0.001766
     7  C   -0.182241   0.036146
     8  H    0.222022   0.026055
     9  H    0.132148  -0.000427
    10  H    0.117693  -0.005923
    11  H    0.222448   0.001767
    12  H   -0.064454  -0.096804
    13  H   -0.064448  -0.096804
 Sum of Mulliken charges =   0.00000   1.00000

 Dipole moment (field-independent basis, Debye):
    X=             -0.0000    Y=             -0.1136    Z=             -0.2381  Tot=              0.2638
                          Isotropic Fermi Contact Couplings
        Atom                 a.u.       MegaHertz       Gauss      10(-4) cm-1
     1  C(13)              0.20756     233.33802      83.26081      77.83319
     2  C(13)             -0.05730     -64.41748     -22.98576     -21.48736
     3  C(13)              0.01842      20.70371       7.38760       6.90602
     4  H(1)              -0.00070      -3.13163      -1.11744      -1.04460
     5  H(1)              -0.00049      -2.19392      -0.78284      -0.73181
     6  H(1)              -0.00079      -3.53184      -1.26025      -1.17809
     7  C(13)              0.01841      20.69865       7.38579       6.90433
     8  H(1)               0.02331     104.18196      37.17471      34.75136

 Normal termination of Gaussian 16 at Tue Apr  8 22:40:42 2025.
