 Gaussian 16, Revision C.01,

 ----------------------------------------------------------------------
 #t hf aug-cc-pvdz symm=none int=(grid=ultrafine) guess=(read,tcheck) s
 table=(opt,rrhf)
 ----------------------------------------------------------------------
 -----
 title
 -----
 Symbolic Z-matrix:
 Charge =  0 Multiplicity = 1

 SCF Done:  E(RHF) =  -139.057305349     A.U. after   10 cycles
 Normal termination of Gaussian 16 at Tue Apr  8 22:36:20 2025.
 Gaussian 16:  ES64L-G16RevC.01  3-Jul-2019

 ----------------------------------------------------------------------
 #t hf aug-cc-pvdz iop(5/13=1,5/36=2,99/5=2) pseudo=read geom=check gue
 ss=(read,tcheck) scf=(maxcycle=1)
 ----------------------------------------------------------------------
 -----
 title
 -----
 Structure from the checkpoint file:  "BDE49_expt_113_mol1.chk"
 Charge =  0 Multiplicity = 1

                         Standard orientation:
 ---------------------------------------------------------------------
 Center     Atomic      Atomic             Coordinates (Angstroms)
 Number     Number       Type             X           Y           Z
 ---------------------------------------------------------------------
      1          6           0       -0.634442    0.000000   -0.000003
      2          1           0       -0.993444   -0.887233   -0.528008
      3          1           0       -0.993444    0.900890   -0.504354
      4          9           0        0.754110   -0.000000    0.000001
      5          1           0       -0.993455   -0.013657    1.032369
 ---------------------------------------------------------------------

 SCF Done:  E(RHF) =  -139.194924696     A.U. after    2 cycles

 The electronic state is 1-A.
 Alpha  occ. eigenvalues --  -26.44507 -11.32093  -1.56449  -0.95022  -0.68288
 Alpha  occ. eigenvalues --   -0.68288  -0.66307  -0.52345  -0.52345
 Alpha virt. eigenvalues --    0.03523   0.05592   0.05592   0.08936   0.14564
 Alpha virt. eigenvalues --    0.14564   0.16689   0.25107   0.27242   0.27242
 Alpha virt. eigenvalues --    0.28932   0.29159   0.29159   0.37772   0.40970

 Mulliken charges:
               1
     1  C    0.336271
     2  H    0.101934
     3  H    0.101934
     4  F   -0.642086
     5  H    0.101947
 Sum of Mulliken charges =  -0.00000

 Dipole moment (field-independent basis, Debye):
    X=             -1.9300    Y=             -0.0000    Z=             -0.0000  Tot=              1.9300

 Test job not archived.
 1\1\GINC-SE403\SP\RHF\Aug-CC-pVDZ\C1H3F1\OHZDE\08-Apr-2025\0\\#t hf au
 g-cc-pvdz iop(5/13=1,5/36=2,99/5=2) pseudo=read geom=check guess=(read
 ,tcheck) scf=(maxcycle=1)\\title\\0,1\C,0,0.634442,0.,-0.000003\H,0,0.
 993444,0.890285,-0.522846\H,0,0.993444,-0.897946,-0.509577\F,0,-0.7541
 1,0.,0.000001\H,0,0.993455,0.007661,1.032431\\Version=ES64L-G16RevC.01
 \State=1-A\HF=-139.1949247\RMSD=6.314e-03\Dipole=0.7593203,0.,-0.00000
 12\Quadrupole=-0.4327201,0.216381,0.2163391,0.0000002,0.0000085,-0.000
 0001\PG=C01 [X(C1H3F1)]\\@

 Normal termination of Gaussian 16 at Tue Apr  8 22:36:21 2025.
