 Gaussian 16, Revision C.01,

 ----------------------------------------------------------------------
 #t hf aug-cc-pvdz symm=none int=(grid=ultrafine) guess=(read,tcheck) s
 table=(opt,rrhf)
 ----------------------------------------------------------------------
 -----
 title
 -----
 Symbolic Z-matrix:
 Charge =  0 Multiplicity = 1

 SCF Done:  E(RHF) =  -2455.33302350     A.U. after   15 cycles
 Normal termination of Gaussian 16 at Tue Apr  8 23:44:53 2025.
 Gaussian 16:  ES64L-G16RevC.01  3-Jul-2019

 ----------------------------------------------------------------------
 #t hf aug-cc-pvdz iop(5/13=1,5/36=2,99/5=2) pseudo=read geom=check gue
 ss=(read,tcheck) scf=(maxcycle=1)
 ----------------------------------------------------------------------
 -----
 title
 -----
 Structure from the checkpoint file:  "BDE49_nonexpt_1727_mol1.chk"
 Charge =  0 Multiplicity = 1

                         Standard orientation:
 ---------------------------------------------------------------------
 Center     Atomic      Atomic             Coordinates (Angstroms)
 Number     Number       Type             X           Y           Z
 ---------------------------------------------------------------------
      1         16           0       -0.782496    1.213204   -0.271239
      2         15           0       -2.446420   -0.063980    0.004675
      3          8           0       -3.481101    0.854321    0.486600
      4          8           0       -1.980461   -1.308852    0.864157
      5          8           0        0.412451    0.061748   -0.811002
      6          6           0        1.558652   -0.055408   -0.093022
      7         17           0        2.540569   -1.268174   -0.951669
      8         17           0        1.279175   -0.631712    1.622311
      9         17           0        2.466657    1.506889    0.006537
     10          1           0       -1.510694   -1.069163    1.673442
     11          8           0       -2.731339   -0.860612   -1.338700
     12          1           0       -3.250210   -0.341842   -1.966076
 ---------------------------------------------------------------------

 SCF Done:  E(RHF) =  -2455.98947409     A.U. after    2 cycles

 The electronic state is 1-A.
 Alpha  occ. eigenvalues -- -105.60877-105.60858-105.60703 -94.05409 -84.47949
 Alpha  occ. eigenvalues --  -20.65308 -20.62606 -20.62519 -20.53779 -11.52080
 Alpha  occ. eigenvalues --  -10.65713 -10.65707 -10.65546  -8.32991  -7.82665
 Alpha  occ. eigenvalues --   -7.82644  -7.82486  -7.82245  -7.82222  -7.82206
 Alpha  occ. eigenvalues --   -7.82203  -7.82060  -7.82049  -6.93047  -6.30763
 Alpha  occ. eigenvalues --   -6.30513  -6.30254  -4.47194  -4.46418  -4.45247
 Alpha  occ. eigenvalues --   -1.57410  -1.56570  -1.50570  -1.42364  -1.19758
 Alpha  occ. eigenvalues --   -1.09054  -1.08090  -1.04769  -0.89139  -0.84316
 Alpha  occ. eigenvalues --   -0.75044  -0.73108  -0.71521  -0.70857  -0.68986
 Alpha  occ. eigenvalues --   -0.66180  -0.64120  -0.60045  -0.58555  -0.57151
 Alpha  occ. eigenvalues --   -0.56628  -0.52991  -0.52043  -0.51228  -0.50057
 Alpha  occ. eigenvalues --   -0.49421  -0.48532  -0.48338  -0.47176  -0.46010
 Alpha  occ. eigenvalues --   -0.42757
 Alpha virt. eigenvalues --    0.03364   0.04334   0.05378   0.06241   0.07856
 Alpha virt. eigenvalues --    0.08641   0.08743   0.09578   0.09872   0.11008
 Alpha virt. eigenvalues --    0.11371   0.11935   0.13225   0.13903   0.14421

 Mulliken charges:
               1
     1  S    0.130158
     2  P    3.698142
     3  O   -1.413343
     4  O   -1.351657
     5  O   -1.050699
     6  C   -0.037966
     7  Cl   0.162335
     8  Cl   0.110485
     9  Cl   0.172230
    10  H    0.457859
    11  O   -1.249542
    12  H    0.371997
 Sum of Mulliken charges =  -0.00000

 Dipole moment (field-independent basis, Debye):
    X=              0.4843    Y=             -0.5669    Z=             -0.7864  Tot=              1.0837

 Test job not archived.
 1\1\GINC-SE045\SP\RHF\Aug-CC-pVDZ\C1H2Cl3O4P1S1\OHZDE\08-Apr-2025\0\\#
 t hf aug-cc-pvdz iop(5/13=1,5/36=2,99/5=2) pseudo=read geom=check gues
 s=(read,tcheck) scf=(maxcycle=1)\\title\\0,1\S,0,-0.782496,1.213204,-0
 .271239\P,0,-2.44642,-0.06398,0.004675\O,0,-3.481101,0.854321,0.4866\O
 ,0,-1.980461,-1.308852,0.864157\O,0,0.412451,0.061748,-0.811002\C,0,1.
 558652,-0.055408,-0.093022\Cl,0,2.540569,-1.268174,-0.951669\Cl,0,1.27
 9175,-0.631712,1.622311\Cl,0,2.466657,1.506889,0.006537\H,0,-1.510694,
 -1.069163,1.673442\O,0,-2.731339,-0.860612,-1.3387\H,0,-3.25021,-0.341

 Normal termination of Gaussian 16 at Tue Apr  8 23:45:03 2025.
