 Gaussian 16, Revision C.01,

 ----------------------------------------------------------------------
 #t hf aug-cc-pvdz symm=none int=(grid=ultrafine) guess=(read,tcheck) s
 table=opt
 ----------------------------------------------------------------------
 -----
 title
 -----
 Symbolic Z-matrix:
 Charge =  0 Multiplicity = 2

 SCF Done:  E(UHF) =  -982.642641881     A.U. after   17 cycles
 Normal termination of Gaussian 16 at Wed Apr  9 00:35:19 2025.
 Gaussian 16:  ES64L-G16RevC.01  3-Jul-2019

 ----------------------------------------------------------------------
 #t hf aug-cc-pvdz iop(5/13=1,5/36=2,99/5=2) pseudo=read geom=check gue
 ss=(read,tcheck) scf=(maxcycle=1)
 ----------------------------------------------------------------------
 -----
 title
 -----
 Structure from the checkpoint file:  "BDE49_nonexpt_463_mol2.chk"
 Charge =  0 Multiplicity = 2

                         Standard orientation:
 ---------------------------------------------------------------------
 Center     Atomic      Atomic             Coordinates (Angstroms)
 Number     Number       Type             X           Y           Z
 ---------------------------------------------------------------------
      1          1           0       -1.456095    2.310602    0.001411
      2          5           0       -0.650073    1.528222   -0.371181
      3          6           0        0.083292    0.468649    0.465131
      4         17           0        1.630373   -0.200817   -0.098048
      5         17           0       -1.388277   -0.577159   -0.048277
      6          1           0        0.091081    0.461997    1.551238
 ---------------------------------------------------------------------

 SCF Done:  E(UHF) =  -982.856891852     A.U. after    2 cycles

 The electronic state is 2-A.
 Alpha  occ. eigenvalues -- -105.60208-105.59066 -11.37658 -10.64971 -10.63860
 Alpha  occ. eigenvalues --   -7.81871  -7.81518  -7.81500  -7.80840  -7.80395
 Alpha  occ. eigenvalues --   -7.80379  -7.64734  -1.17245  -1.06838  -0.90031
 Alpha  occ. eigenvalues --   -0.74727  -0.65426  -0.60139  -0.56518  -0.50454
 Alpha  occ. eigenvalues --   -0.49341  -0.47077  -0.45551  -0.36118
 Alpha virt. eigenvalues --    0.03337   0.04072   0.05001   0.05528   0.07863
 Alpha virt. eigenvalues --    0.08701   0.09479   0.10815   0.12661   0.12945
 Alpha virt. eigenvalues --    0.14652   0.15452   0.16417   0.17228   0.18101

  Beta  occ. eigenvalues -- -105.60211-105.59038 -11.37759 -10.64974 -10.63827
  Beta  occ. eigenvalues --   -7.81893  -7.81561  -7.81455  -7.80747  -7.80378
  Beta  occ. eigenvalues --   -7.80355  -7.62738  -1.16919  -1.06657  -0.89324
  Beta  occ. eigenvalues --   -0.71723  -0.64458  -0.59521  -0.55434  -0.50296
  Beta  occ. eigenvalues --   -0.48989  -0.46984  -0.45216
  Beta virt. eigenvalues --    0.03371   0.04113   0.04524   0.05302   0.07871
  Beta virt. eigenvalues --    0.08539   0.09025   0.09576   0.12573   0.12701
  Beta virt. eigenvalues --    0.13878   0.15636   0.15863   0.17130   0.17658

 Mulliken charges and spin densities:
               1          2
     1  H    0.332838  -0.024359
     2  B   -0.031109   1.078469
     3  C   -0.254435  -0.081317
     4  Cl  -0.080671   0.026361
     5  Cl  -0.173566  -0.012649
     6  H    0.206943   0.013496
 Sum of Mulliken charges =  -0.00000   1.00000

 Dipole moment (field-independent basis, Debye):
    X=             -0.1884    Y=              0.6507    Z=              1.5744  Tot=              1.7140
                          Isotropic Fermi Contact Couplings
        Atom                 a.u.       MegaHertz       Gauss      10(-4) cm-1
     1  H(1)               0.00255      11.38975       4.06414       3.79921
     2  B(11)              0.31112     446.25788     159.23591     148.85561
     3  C(13)             -0.01978     -22.24127      -7.93624      -7.41889
     4  Cl(35)             0.02761      12.10574       4.31963       4.03804
     5  Cl(35)             0.00310       1.35812       0.48461       0.45302
     6  H(1)               0.00822      36.73045      13.10634      12.25196
 --------------------------------------------------------
       Center         ----  Spin Dipole Couplings  ----

 Normal termination of Gaussian 16 at Wed Apr  9 00:35:22 2025.
