 Gaussian 16, Revision C.01,

 ----------------------------------------------------------------------
 #t hf aug-cc-pvdz symm=none int=(grid=ultrafine) guess=(read,tcheck) s
 table=(opt,rrhf)
 ----------------------------------------------------------------------
 -----
 title
 -----
 Symbolic Z-matrix:
 Charge =  0 Multiplicity = 1

 SCF Done:  E(RHF) =  -1088.38602701     A.U. after   15 cycles
 Normal termination of Gaussian 16 at Wed Apr  9 00:20:12 2025.
 Gaussian 16:  ES64L-G16RevC.01  3-Jul-2019

 ----------------------------------------------------------------------
 #t hf aug-cc-pvdz iop(5/13=1,5/36=2,99/5=2) pseudo=read geom=check gue
 ss=(read,tcheck) scf=(maxcycle=1)
 ----------------------------------------------------------------------
 -----
 title
 -----
 Structure from the checkpoint file:  "BDE49_nonexpt_2611_mol1.chk"
 Charge =  0 Multiplicity = 1

                         Standard orientation:
 ---------------------------------------------------------------------
 Center     Atomic      Atomic             Coordinates (Angstroms)
 Number     Number       Type             X           Y           Z
 ---------------------------------------------------------------------
      1          9           0        3.220633   -0.728555   -0.426280
      2          6           0        1.051027   -0.063196    0.216864
      3          6           0        2.520822    0.189424    0.357299
      4          1           0        2.837565    0.040448    1.395651
      5          1           0        2.769267    1.202161    0.035185
      6          7           0        0.249278    0.902277    0.012752
      7         16           0       -1.348634    0.985891   -0.139228
      8         17           0       -2.170178   -0.966996    0.046524
      9          1           0        0.702604   -1.094253    0.308185
 ---------------------------------------------------------------------

 SCF Done:  E(RHF) =  -1088.74642337     A.U. after    2 cycles

 The electronic state is 1-A.
 Alpha  occ. eigenvalues -- -105.58534 -94.05790 -26.46888 -15.57668 -11.35200
 Alpha  occ. eigenvalues --  -11.33242 -10.63232  -8.33165  -7.80149  -7.79752
 Alpha  occ. eigenvalues --   -7.79707  -6.30957  -6.30669  -6.30358  -1.58852
 Alpha  occ. eigenvalues --   -1.30943  -1.11843  -1.03924  -0.96040  -0.81607
 Alpha  occ. eigenvalues --   -0.73121  -0.71769  -0.70369  -0.67585  -0.60198
 Alpha  occ. eigenvalues --   -0.59784  -0.54863  -0.53087  -0.49752  -0.48262
 Alpha  occ. eigenvalues --   -0.47857  -0.37193
 Alpha virt. eigenvalues --    0.03457   0.03975   0.04938   0.05604   0.06333
 Alpha virt. eigenvalues --    0.08026   0.08636   0.11100   0.11402   0.12332
 Alpha virt. eigenvalues --    0.13175   0.13327   0.14311   0.15746   0.16915

 Mulliken charges:
               1
     1  F   -0.674845
     2  C   -0.851739
     3  C    0.603274
     4  H    0.183933
     5  H    0.120579
     6  N    0.379425
     7  S    0.532241
     8  Cl  -0.309966
     9  H    0.017097
 Sum of Mulliken charges =  -0.00000

 Dipole moment (field-independent basis, Debye):
    X=              1.1076    Y=              0.4154    Z=              1.3457  Tot=              1.7917

 Test job not archived.
 1\1\GINC-SE186\SP\RHF\Aug-CC-pVDZ\C2H3Cl1F1N1S1\OHZDE\09-Apr-2025\0\\#
 t hf aug-cc-pvdz iop(5/13=1,5/36=2,99/5=2) pseudo=read geom=check gues
 s=(read,tcheck) scf=(maxcycle=1)\\title\\0,1\F,0,3.220633,-0.728555,-0
 .42628\C,0,1.051027,-0.063196,0.216864\C,0,2.520822,0.189424,0.357299\
 H,0,2.837565,0.040448,1.395651\H,0,2.769267,1.202161,0.035185\N,0,0.24
 9278,0.902277,0.012752\S,0,-1.348634,0.985891,-0.139228\Cl,0,-2.170178
 ,-0.966996,0.046524\H,0,0.702604,-1.094253,0.308185\\Version=ES64L-G16
 RevC.01\State=1-A\HF=-1088.7464234\RMSD=1.441e-02\Dipole=0.4357715,0.1

 Normal termination of Gaussian 16 at Wed Apr  9 00:20:16 2025.
