 Gaussian 16, Revision C.01,

 ----------------------------------------------------------------------
 #t hf aug-cc-pvdz symm=none int=(grid=ultrafine) guess=(read,tcheck) s
 table=(opt,rrhf)
 ----------------------------------------------------------------------
 -----
 title
 -----
 Symbolic Z-matrix:
 Charge =  0 Multiplicity = 1

 SCF Done:  E(RHF) =  -916.960750255     A.U. after   14 cycles
 Normal termination of Gaussian 16 at Wed Apr  9 00:11:36 2025.
 Gaussian 16:  ES64L-G16RevC.01  3-Jul-2019

 ----------------------------------------------------------------------
 #t hf aug-cc-pvdz iop(5/13=1,5/36=2,99/5=2) pseudo=read geom=check gue
 ss=(read,tcheck) scf=(maxcycle=1)
 ----------------------------------------------------------------------
 -----
 title
 -----
 Structure from the checkpoint file:  "BDE49_nonexpt_2370_mol1.chk"
 Charge =  0 Multiplicity = 1

                         Standard orientation:
 ---------------------------------------------------------------------
 Center     Atomic      Atomic             Coordinates (Angstroms)
 Number     Number       Type             X           Y           Z
 ---------------------------------------------------------------------
      1         14           0       -1.078500   -1.150655   -0.389954
      2         14           0        1.090618   -1.128019    0.548439
      3          6           0        1.978631    0.489238   -0.031533
      4          1           0        1.912073   -2.310961    0.173883
      5          1           0        1.047981   -1.044527    2.027512
      6          8           0        1.377938    1.561194    0.042030
      7          7           0        3.247768    0.418046   -0.503965
      8          1           0        3.746592   -0.454011   -0.559553
      9          1           0        3.709839    1.268419   -0.798507
     10          6           0       -2.159450    0.410030   -0.011343
     11          1           0       -1.810264   -2.324464    0.131466
     12          1           0       -0.946860   -1.275064   -1.861997
     13          8           0       -3.371000    0.264055   -0.089057
     14          7           0       -1.551156    1.577322    0.302706
     15          1           0       -2.136648    2.391416    0.435494
     16          1           0       -0.539239    1.685444    0.275201
 ---------------------------------------------------------------------

 SCF Done:  E(RHF) =  -917.361814926     A.U. after    2 cycles

 The electronic state is 1-A.
 Alpha  occ. eigenvalues --  -69.55491 -69.54467 -20.53886 -20.50585 -15.55495
 Alpha  occ. eigenvalues --  -15.51294 -11.37252 -11.34245  -6.22706  -6.21635
 Alpha  occ. eigenvalues --   -3.98054  -3.98021  -3.97997  -3.96971  -3.96953
 Alpha  occ. eigenvalues --   -3.96949  -1.47931  -1.44636  -1.24412  -1.20681
 Alpha  occ. eigenvalues --   -0.88973  -0.85211  -0.81774  -0.77623  -0.75166
 Alpha  occ. eigenvalues --   -0.71466  -0.67328  -0.64091  -0.61263  -0.58553
 Alpha  occ. eigenvalues --   -0.57886  -0.55245  -0.51751  -0.49676  -0.46385
 Alpha  occ. eigenvalues --   -0.44411  -0.42578  -0.42210  -0.38372
 Alpha virt. eigenvalues --    0.01930   0.03851   0.04119   0.04728   0.05372
 Alpha virt. eigenvalues --    0.06546   0.06754   0.07162   0.07327   0.08409
 Alpha virt. eigenvalues --    0.08880   0.09376   0.09637   0.10563   0.11037

 Mulliken charges:
               1
     1  Si   0.678905
     2  Si   0.648744
     3  C   -0.035804
     4  H   -0.163971
     5  H   -0.170321
     6  O   -1.300135
     7  N    0.734570
     8  H    0.059810
     9  H    0.024078
    10  C    0.001749
    11  H   -0.086913
    12  H   -0.127727
    13  O   -1.162946
    14  N    0.812060
    15  H    0.111282
    16  H   -0.023382
 Sum of Mulliken charges =  -0.00000

 Dipole moment (field-independent basis, Debye):
    X=              6.1758    Y=             -1.4439    Z=             -0.3579  Tot=              6.3524

 Test job not archived.
 1\1\GINC-SE072\SP\RHF\Aug-CC-pVDZ\C2H8N2O2Si2\OHZDE\09-Apr-2025\0\\#t
 hf aug-cc-pvdz iop(5/13=1,5/36=2,99/5=2) pseudo=read geom=check guess=
 (read,tcheck) scf=(maxcycle=1)\\title\\0,1\Si,0,-1.0785,-1.150655,-0.3
 89954\Si,0,1.090618,-1.128019,0.548439\C,0,1.978631,0.489238,-0.031533
 \H,0,1.912073,-2.310961,0.173883\H,0,1.047981,-1.044527,2.027512\O,0,1
 .377938,1.561194,0.04203\N,0,3.247768,0.418046,-0.503965\H,0,3.746592,
 -0.454011,-0.559553\H,0,3.709839,1.268419,-0.798507\C,0,-2.15945,0.410
 03,-0.011343\H,0,-1.810264,-2.324464,0.131466\H,0,-0.94686,-1.275064,-

 Normal termination of Gaussian 16 at Wed Apr  9 00:11:43 2025.
