 Gaussian 16, Revision C.01,

 ----------------------------------------------------------------------
 #t hf aug-cc-pvdz symm=none int=(grid=ultrafine) guess=(read,tcheck) s
 table=(opt,rrhf)
 ----------------------------------------------------------------------
 -----
 title
 -----
 Symbolic Z-matrix:
 Charge =  0 Multiplicity = 1

 SCF Done:  E(RHF) =  -1255.96397070     A.U. after   14 cycles
 Normal termination of Gaussian 16 at Wed Apr  9 00:29:35 2025.
 Gaussian 16:  ES64L-G16RevC.01  3-Jul-2019

 ----------------------------------------------------------------------
 #t hf aug-cc-pvdz iop(5/13=1,5/36=2,99/5=2) pseudo=read geom=check gue
 ss=(read,tcheck) scf=(maxcycle=1)
 ----------------------------------------------------------------------
 -----
 title
 -----
 Structure from the checkpoint file:  "BDE49_nonexpt_2712_mol1.chk"
 Charge =  0 Multiplicity = 1

                         Standard orientation:
 ---------------------------------------------------------------------
 Center     Atomic      Atomic             Coordinates (Angstroms)
 Number     Number       Type             X           Y           Z
 ---------------------------------------------------------------------
      1         16           0       -0.913943    1.436766    0.483916
      2         16           0        0.913938    1.436761   -0.483931
      3          6           0        1.767268    0.017860    0.312089
      4          6           0       -1.767301    0.017903   -0.312141
      5          8           0       -1.278107   -0.645676   -1.177926
      6          8           0        1.278107   -0.645664    1.177933
      7          6           0        4.204658   -0.273836    0.800975
      8          6           0       -4.204694   -0.273894   -0.800945
      9          6           0       -3.141054   -0.221070    0.305903
     10          6           0        3.141050   -0.221076   -0.305907
     11          1           0       -3.969766   -1.066978   -1.513519
     12          1           0       -4.260569    0.670531   -1.347789
     13          1           0        3.969736   -1.066911    1.513561
     14          1           0        4.260484    0.670604    1.347798
     15          6           0       -3.086385   -1.524645    1.123850
     16          1           0       -3.365653    0.610001    0.983707
     17          1           0       -4.052107   -1.704773    1.602559
     18          1           0       -2.319887   -1.476358    1.900494
     19          1           0       -2.857922   -2.370238    0.471403
     20          6           0        3.086453   -1.524672   -1.123825
     21          1           0        3.365640    0.609987   -0.983723
     22          1           0        4.052196   -1.704775   -1.602501
     23          1           0        2.319976   -1.476431   -1.900493
     24          1           0        2.858001   -2.370258   -0.471365
     25          1           0        5.187215   -0.474725    0.366911
     26          1           0       -5.187230   -0.474807   -0.366846
 ---------------------------------------------------------------------

 SCF Done:  E(RHF) =  -1256.55958855     A.U. after    2 cycles

 The electronic state is 1-A.
 Alpha  occ. eigenvalues --  -93.98990 -93.98981 -20.55675 -20.55674 -11.37684
 Alpha  occ. eigenvalues --  -11.37681 -11.26740 -11.26739 -11.24031 -11.24031
 Alpha  occ. eigenvalues --  -11.23981 -11.23981  -8.27015  -8.26991  -6.24814
 Alpha  occ. eigenvalues --   -6.24772  -6.24574  -6.24563  -6.24365  -6.24364
 Alpha  occ. eigenvalues --   -1.50037  -1.49837  -1.12590  -1.10632  -1.08771
 Alpha  occ. eigenvalues --   -0.97841  -0.94823  -0.94791  -0.88586  -0.84211
 Alpha  occ. eigenvalues --   -0.74772  -0.73723  -0.68988  -0.67332  -0.65792
 Alpha  occ. eigenvalues --   -0.63491  -0.61962  -0.60728  -0.60148  -0.59718
 Alpha  occ. eigenvalues --   -0.56540  -0.56162  -0.55849  -0.54896  -0.53862
 Alpha  occ. eigenvalues --   -0.53527  -0.51083  -0.50416  -0.50021  -0.49794
 Alpha  occ. eigenvalues --   -0.47310  -0.42734  -0.41826  -0.38788  -0.37415
 Alpha virt. eigenvalues --    0.03407   0.03573   0.04126   0.04246   0.04735
 Alpha virt. eigenvalues --    0.04797   0.05202   0.06429   0.06824   0.07105
 Alpha virt. eigenvalues --    0.07792   0.07804   0.08473   0.08958   0.09810

 Mulliken charges:
               1
     1  S    0.024449
     2  S    0.024423
     3  C    1.243639
     4  C    1.243557
     5  O   -1.302552
     6  O   -1.302579
     7  C   -0.087174
     8  C   -0.087167
     9  C   -1.122306
    10  C   -1.122297
    11  H    0.243641
    12  H    0.154252
    13  H    0.243642
    14  H    0.154249
    15  C   -0.133245
    16  H    0.272801
    17  H    0.140640
    18  H    0.159594
    19  H    0.245669
    20  C   -0.133244
    21  H    0.272805
    22  H    0.140637
    23  H    0.159589
    24  H    0.245665
    25  H    0.160656
    26  H    0.160656
 Sum of Mulliken charges =  -0.00000

 Dipole moment (field-independent basis, Debye):
    X=             -0.0000    Y=             -0.0381    Z=             -0.0000  Tot=              0.0381

 Test job not archived.
 1\1\GINC-SE059\SP\RHF\Aug-CC-pVDZ\C8H14O2S2\OHZDE\09-Apr-2025\0\\#t hf
  aug-cc-pvdz iop(5/13=1,5/36=2,99/5=2) pseudo=read geom=check guess=(r
 ead,tcheck) scf=(maxcycle=1)\\title\\0,1\S,0,0.913943,1.436766,-0.4839
 16\S,0,-0.913938,1.436761,0.483931\C,0,-1.767268,0.01786,-0.312089\C,0
 ,1.767301,0.017903,0.312141\O,0,1.278107,-0.645676,1.177926\O,0,-1.278
 107,-0.645664,-1.177933\C,0,-4.204658,-0.273836,-0.800975\C,0,4.204694
 ,-0.273894,0.800945\C,0,3.141054,-0.22107,-0.305903\C,0,-3.14105,-0.22
 1076,0.305907\H,0,3.969766,-1.066978,1.513519\H,0,4.260569,0.670531,1.

 Normal termination of Gaussian 16 at Wed Apr  9 00:29:58 2025.
