 Gaussian 16, Revision C.01,

 ----------------------------------------------------------------------
 #t hf aug-cc-pvdz symm=none int=(grid=ultrafine) guess=(read,tcheck) s
 table=(opt,rrhf)
 ----------------------------------------------------------------------
 -----
 title
 -----
 Symbolic Z-matrix:
 Charge =  0 Multiplicity = 1

 SCF Done:  E(RHF) =  -1559.97167520     A.U. after   14 cycles
 Normal termination of Gaussian 16 at Wed Apr  9 00:12:54 2025.
 Gaussian 16:  ES64L-G16RevC.01  3-Jul-2019

 ----------------------------------------------------------------------
 #t hf aug-cc-pvdz iop(5/13=1,5/36=2,99/5=2) pseudo=read geom=check gue
 ss=(read,tcheck) scf=(maxcycle=1)
 ----------------------------------------------------------------------
 -----
 title
 -----
 Structure from the checkpoint file:  "BDE49_nonexpt_2428_mol1.chk"
 Charge =  0 Multiplicity = 1

                         Standard orientation:
 ---------------------------------------------------------------------
 Center     Atomic      Atomic             Coordinates (Angstroms)
 Number     Number       Type             X           Y           Z
 ---------------------------------------------------------------------
      1         14           0        0.946115    1.762175   -0.710059
      2         14           0       -0.946103    1.762171    0.710062
      3          7           0       -1.947557    0.408921    0.355988
      4          1           0       -1.737054    2.993145    0.484727
      5          1           0       -0.543185    1.682600    2.130418
      6          6           0       -2.599886   -0.547143    0.066697
      7         16           0       -3.468952   -1.807851   -0.311659
      8          7           0        1.947572    0.408925   -0.355989
      9          1           0        1.737064    2.993150   -0.484720
     10          1           0        0.543197    1.682608   -2.130415
     11          6           0        2.599900   -0.547139   -0.066701
     12         16           0        3.468928   -1.807873    0.311657
 ---------------------------------------------------------------------

 SCF Done:  E(RHF) =  -1560.32578871     A.U. after    2 cycles

 The electronic state is 1-A.
 Alpha  occ. eigenvalues --  -93.95605 -93.95605 -69.59362 -69.59362 -15.54414
 Alpha  occ. eigenvalues --  -15.54412 -11.39839 -11.39837  -8.23896  -8.23896
 Alpha  occ. eigenvalues --   -6.26086  -6.26075  -6.21793  -6.21793  -6.21348
 Alpha  occ. eigenvalues --   -6.21347  -6.21347  -6.21347  -4.01547  -4.01535
 Alpha  occ. eigenvalues --   -4.01414  -4.01382  -4.01378  -4.01339  -1.29073
 Alpha  occ. eigenvalues --   -1.28958  -1.08075  -1.08061  -0.91223  -0.88397
 Alpha  occ. eigenvalues --   -0.69756  -0.65055  -0.62577  -0.62363  -0.61980
 Alpha  occ. eigenvalues --   -0.61820  -0.61751  -0.60467  -0.52508  -0.51663
 Alpha  occ. eigenvalues --   -0.46379  -0.39502  -0.39112  -0.38998  -0.37739
 Alpha virt. eigenvalues --    0.02978   0.03383   0.03725   0.04297   0.06145
 Alpha virt. eigenvalues --    0.06387   0.06758   0.06790   0.06997   0.07202
 Alpha virt. eigenvalues --    0.07547   0.07928   0.09143   0.09411   0.10306

 Mulliken charges:
               1
     1  Si   0.354461
     2  Si   0.354460
     3  N    0.600001
     4  H   -0.096307
     5  H   -0.078847
     6  C   -1.098899
     7  S    0.319594
     8  N    0.600003
     9  H   -0.096307
    10  H   -0.078847
    11  C   -1.098904
    12  S    0.319594
 Sum of Mulliken charges =  -0.00000

 Dipole moment (field-independent basis, Debye):
    X=             -0.0000    Y=              3.2848    Z=             -0.0000  Tot=              3.2848

 Test job not archived.
 1\1\GINC-SE339\SP\RHF\Aug-CC-pVDZ\C2H4N2S2Si2\OHZDE\09-Apr-2025\0\\#t
 hf aug-cc-pvdz iop(5/13=1,5/36=2,99/5=2) pseudo=read geom=check guess=
 (read,tcheck) scf=(maxcycle=1)\\title\\0,1\Si,0,-0.946115,-1.762175,-0
 .710059\Si,0,0.946103,-1.762171,0.710062\N,0,1.947557,-0.408921,0.3559
 88\H,0,1.737054,-2.993145,0.484727\H,0,0.543185,-1.6826,2.130418\C,0,2
 .599886,0.547143,0.066697\S,0,3.468952,1.807851,-0.311659\N,0,-1.94757
 2,-0.408925,-0.355989\H,0,-1.737064,-2.99315,-0.48472\H,0,-0.543197,-1
 .682608,-2.130415\C,0,-2.5999,0.547139,-0.066701\S,0,-3.468928,1.80787

 Normal termination of Gaussian 16 at Wed Apr  9 00:13:00 2025.
