 Gaussian 16, Revision C.01,

 ----------------------------------------------------------------------
 #t hf aug-cc-pvdz symm=none int=(grid=ultrafine) guess=(read,tcheck) s
 table=opt
 ----------------------------------------------------------------------
 -----
 title
 -----
 Symbolic Z-matrix:
 Charge =  0 Multiplicity = 2

 SCF Done:  E(UHF) =  -154.496688391     A.U. after   19 cycles
 Normal termination of Gaussian 16 at Wed Apr  9 00:35:46 2025.
 Gaussian 16:  ES64L-G16RevC.01  3-Jul-2019

 ----------------------------------------------------------------------
 #t hf aug-cc-pvdz iop(5/13=1,5/36=2,99/5=2) pseudo=read geom=check gue
 ss=(read,tcheck) scf=(maxcycle=1)
 ----------------------------------------------------------------------
 -----
 title
 -----
 Structure from the checkpoint file:  "BDE49_nonexpt_493_mol2.chk"
 Charge =  0 Multiplicity = 2

                         Standard orientation:
 ---------------------------------------------------------------------
 Center     Atomic      Atomic             Coordinates (Angstroms)
 Number     Number       Type             X           Y           Z
 ---------------------------------------------------------------------
      1          1           0        0.000000    0.000000   -2.475796
      2          5           0        0.000000    0.000000   -1.313258
      3          7           0        0.000000    0.000000   -0.048566
      4          8           0        0.000000    0.000000    1.172756
 ---------------------------------------------------------------------

 SCF Done:  E(UHF) =  -154.638149458     A.U. after    2 cycles

 Unable to determine electronic state:  an orbital has unidentified symmetry.
 Alpha  occ. eigenvalues --  -20.65319 -15.58539  -7.65580  -1.61044  -1.10958
 Alpha  occ. eigenvalues --   -0.78593  -0.73141  -0.68190  -0.65484  -0.44502
 Alpha  occ. eigenvalues --   -0.40497
 Alpha virt. eigenvalues --    0.04548   0.04584   0.04765   0.05080   0.08866
 Alpha virt. eigenvalues --    0.13468   0.14420   0.17903   0.19796   0.20395
 Alpha virt. eigenvalues --    0.20477   0.23929   0.25917   0.26027   0.26105

  Beta  occ. eigenvalues --  -20.61888 -15.58902  -7.65055  -1.53679  -1.06963
  Beta  occ. eigenvalues --   -0.74864  -0.67005  -0.64991  -0.57849  -0.38616
  Beta virt. eigenvalues --    0.02825   0.04617   0.04746   0.05136   0.05923
  Beta virt. eigenvalues --    0.08983   0.14614   0.17465   0.18117   0.20655
  Beta virt. eigenvalues --    0.20982   0.23253   0.24074   0.26206   0.26550

 Mulliken charges and spin densities:
               1          2
     1  H    0.238849  -0.018692
     2  B   -0.221493   0.286227
     3  N    0.762956  -0.103435
     4  O   -0.780311   0.835900
 Sum of Mulliken charges =  -0.00000   1.00000

 Dipole moment (field-independent basis, Debye):
    X=             -0.0000    Y=             -0.0000    Z=             -2.6533  Tot=              2.6533
                          Isotropic Fermi Contact Couplings
        Atom                 a.u.       MegaHertz       Gauss      10(-4) cm-1
     1  H(1)              -0.00888     -39.67201     -14.15596     -13.23316
     2  B(11)              0.03619      51.91320      18.52392      17.31638
     3  N(14)             -0.11429     -36.92639     -13.17625     -12.31732
     4  O(17)              0.24682    -149.62365     -53.38944     -49.90908
 --------------------------------------------------------
       Center         ----  Spin Dipole Couplings  ----
                      3XX-RR        3YY-RR        3ZZ-RR
 --------------------------------------------------------

 Normal termination of Gaussian 16 at Wed Apr  9 00:35:47 2025.
