 Gaussian 16, Revision C.01,

 ----------------------------------------------------------------------
 #t hf aug-cc-pvdz symm=none int=(grid=ultrafine) guess=(read,tcheck) s
 table=(opt,rrhf)
 ----------------------------------------------------------------------
 -----
 title
 -----
 Symbolic Z-matrix:
 Charge =  0 Multiplicity = 1

 SCF Done:  E(RHF) =  -1376.44391002     A.U. after   12 cycles

 1\1\GINC-SE329\Stability\RHF\Aug-CC-pVDZ\H6S2Si2\OHZDE\09-Apr-2025\0\\
 #t hf aug-cc-pvdz symm=none int=(grid=ultrafine) guess=(read,tcheck) s
 table=(opt,rrhf)\\title\\0,1\Si,0,-2.254705,-0.716426,-0.195749\Si,0,-
 0.739718,0.963951,0.47037\S,0,1.187038,0.841571,-0.547109\H,0,-0.51545
 ,0.947908,1.93586\H,0,-1.246494,2.302289,0.073565\H,0,-3.52593,-0.5365
 88,0.548607\H,0,-1.716578,-2.065141,0.089647\S,0,1.873062,-1.025641,0.
 164426\H,0,-2.522428,-0.588897,-1.647259\H,0,2.487216,-0.57981,1.27781
 8\\Version=ES64L-G16RevC.01\HF=-1376.44391\RMSD=9.962e-09\Dipole=-0.31

 Normal termination of Gaussian 16 at Wed Apr  9 00:12:36 2025.
 Gaussian 16:  ES64L-G16RevC.01  3-Jul-2019

 ----------------------------------------------------------------------
 #t hf aug-cc-pvdz iop(5/13=1,5/36=2,99/5=2) pseudo=read geom=check gue
 ss=(read,tcheck) scf=(maxcycle=1)
 ----------------------------------------------------------------------
 -----
 title
 -----
 Structure from the checkpoint file:  "BDE49_nonexpt_2418_mol1.chk"
 Charge =  0 Multiplicity = 1

                         Standard orientation:
 ---------------------------------------------------------------------
 Center     Atomic      Atomic             Coordinates (Angstroms)
 Number     Number       Type             X           Y           Z
 ---------------------------------------------------------------------
      1         14           0       -2.254705   -0.716426   -0.195749
      2         14           0       -0.739718    0.963951    0.470370
      3         16           0        1.187038    0.841571   -0.547109
      4          1           0       -0.515450    0.947908    1.935860
      5          1           0       -1.246495    2.302289    0.073565
      6          1           0       -3.525930   -0.536588    0.548607
      7          1           0       -1.716578   -2.065141    0.089647
      8         16           0        1.873062   -1.025641    0.164426
      9          1           0       -2.522428   -0.588897   -1.647259
     10          1           0        2.487216   -0.579809    1.277818
 ---------------------------------------------------------------------

 SCF Done:  E(RHF) =  -1376.63733440     A.U. after    2 cycles

 The electronic state is 1-A.
 Alpha  occ. eigenvalues --  -93.98951 -93.97255 -69.56163 -69.53519  -8.26828
 Alpha  occ. eigenvalues --   -8.25338  -6.24654  -6.24487  -6.24232  -6.23124
 Alpha  occ. eigenvalues --   -6.23095  -6.22919  -6.22714  -6.20731  -3.98464
 Alpha  occ. eigenvalues --   -3.98378  -3.98339  -3.96086  -3.96082  -3.96077
 Alpha  occ. eigenvalues --   -1.08505  -0.91915  -0.77863  -0.69669  -0.58223
 Alpha  occ. eigenvalues --   -0.53097  -0.51792  -0.49594  -0.48908  -0.46905
 Alpha  occ. eigenvalues --   -0.44090  -0.38058  -0.37224
 Alpha virt. eigenvalues --    0.03696   0.03742   0.04410   0.05193   0.06255
 Alpha virt. eigenvalues --    0.07178   0.07201   0.07887   0.08710   0.09500
 Alpha virt. eigenvalues --    0.09782   0.10319   0.10653   0.11519   0.11981

 Mulliken charges:
               1
     1  Si   0.399576
     2  Si   0.988896
     3  S   -0.666240
     4  H   -0.122470
     5  H   -0.190020
     6  H   -0.136568
     7  H   -0.120741
     8  S   -0.411186
     9  H   -0.120332
    10  H    0.379085
 Sum of Mulliken charges =  -0.00000

 Dipole moment (field-independent basis, Debye):
    X=             -0.8070    Y=              0.1069    Z=              1.3413  Tot=              1.5690

 Test job not archived.
 1\1\GINC-SE329\SP\RHF\Aug-CC-pVDZ\H6S2Si2\OHZDE\09-Apr-2025\0\\#t hf a
 ug-cc-pvdz iop(5/13=1,5/36=2,99/5=2) pseudo=read geom=check guess=(rea
 d,tcheck) scf=(maxcycle=1)\\title\\0,1\Si,0,-2.254705,-0.716426,-0.195
 749\Si,0,-0.739718,0.963951,0.47037\S,0,1.187038,0.841571,-0.547109\H,
 0,-0.51545,0.947908,1.93586\H,0,-1.246494,2.302289,0.073565\H,0,-3.525
 93,-0.536588,0.548607\H,0,-1.716578,-2.065141,0.089647\S,0,1.873062,-1
 .025641,0.164426\H,0,-2.522428,-0.588897,-1.647259\H,0,2.487216,-0.579
 81,1.277818\\Version=ES64L-G16RevC.01\State=1-A\HF=-1376.6373344\RMSD=

 Normal termination of Gaussian 16 at Wed Apr  9 00:12:39 2025.
