 Gaussian 16, Revision C.01,

 ----------------------------------------------------------------------
 #t hf aug-cc-pvdz symm=none int=(grid=ultrafine) guess=(read,tcheck) s
 table=opt
 ----------------------------------------------------------------------
 -----
 title
 -----
 Symbolic Z-matrix:
 Charge =  0 Multiplicity = 2

 SCF Done:  E(UHF) =  -754.328505918     A.U. after   21 cycles
 Normal termination of Gaussian 16 at Tue Apr  8 23:32:34 2025.
 Gaussian 16:  ES64L-G16RevC.01  3-Jul-2019

 ----------------------------------------------------------------------
 #t hf aug-cc-pvdz iop(5/13=1,5/36=2,99/5=2) pseudo=read geom=check gue
 ss=(read,tcheck) scf=(maxcycle=1)
 ----------------------------------------------------------------------
 -----
 title
 -----
 Structure from the checkpoint file:  "BDE49_nonexpt_1399_mol2.chk"
 Charge =  0 Multiplicity = 2

                         Standard orientation:
 ---------------------------------------------------------------------
 Center     Atomic      Atomic             Coordinates (Angstroms)
 Number     Number       Type             X           Y           Z
 ---------------------------------------------------------------------
      1          6           0        1.285302   -0.527002    0.151065
      2         15           0       -0.000036   -1.859554    0.000049
      3          6           0       -1.285297   -0.526965   -0.151364
      4          7           0       -0.696781    0.728091   -0.133094
      5          7           0        0.696809    0.728064    0.132997
      6          8           0       -2.488218   -0.711207   -0.167510
      7          8           0        2.488209   -0.711315    0.167605
      8          6           0        1.457602    1.875113   -0.353973
      9          1           0        1.239899    2.062222   -1.410902
     10          1           0        2.508705    1.621118   -0.235158
     11          1           0        1.234460    2.768309    0.231059
     12          6           0       -1.457559    1.875068    0.354068
     13          1           0       -2.508667    1.621106    0.235208
     14          1           0       -1.234410    2.768357   -0.230820
     15          1           0       -1.239855    2.062005    1.411027
 ---------------------------------------------------------------------

 SCF Done:  E(UHF) =  -754.776901549     A.U. after    2 cycles

 The electronic state is 2-A.
 Alpha  occ. eigenvalues --  -84.32650 -20.55265 -20.55262 -15.58648 -15.58064
 Alpha  occ. eigenvalues --  -11.38430 -11.38413 -11.29189 -11.29187  -6.79980
 Alpha  occ. eigenvalues --   -4.32302  -4.32059  -4.31769  -1.50020  -1.49581
 Alpha  occ. eigenvalues --   -1.36164  -1.18224  -1.05764  -0.96370  -0.94798
 Alpha  occ. eigenvalues --   -0.86787  -0.76058  -0.72360  -0.72309  -0.67404
 Alpha  occ. eigenvalues --   -0.67277  -0.64240  -0.63586  -0.59724  -0.58422
 Alpha  occ. eigenvalues --   -0.57597  -0.57520  -0.52624  -0.51024  -0.42423
 Alpha  occ. eigenvalues --   -0.41233  -0.40124  -0.37733
 Alpha virt. eigenvalues --    0.03021   0.04223   0.04350   0.04886   0.05929
 Alpha virt. eigenvalues --    0.06927   0.07310   0.08067   0.08112   0.09139
 Alpha virt. eigenvalues --    0.11497   0.11628   0.12528   0.13179   0.13259

  Beta  occ. eigenvalues --  -84.31986 -20.54541 -20.54538 -15.58750 -15.58166
  Beta  occ. eigenvalues --  -11.38810 -11.38793 -11.29195 -11.29193  -6.79139
  Beta  occ. eigenvalues --   -4.31541  -4.31363  -4.29061  -1.48678  -1.48110
  Beta  occ. eigenvalues --   -1.36114  -1.18327  -1.04887  -0.96471  -0.92640
  Beta  occ. eigenvalues --   -0.85033  -0.76077  -0.72466  -0.71953  -0.67364
  Beta  occ. eigenvalues --   -0.66102  -0.64171  -0.63142  -0.58843  -0.58395
  Beta  occ. eigenvalues --   -0.56852  -0.55491  -0.50657  -0.48293  -0.41058
  Beta  occ. eigenvalues --   -0.40585  -0.38815
  Beta virt. eigenvalues --   -0.01160   0.03046   0.04236   0.04370   0.04957
  Beta virt. eigenvalues --    0.05963   0.07048   0.07372   0.08201   0.08750
  Beta virt. eigenvalues --    0.09194   0.12024   0.12499   0.13346   0.13399

 Mulliken charges and spin densities:
               1          2
     1  C    0.037479  -0.211443
     2  P    1.477676   1.090842
     3  C    0.037312  -0.211468
     4  N    0.287788  -0.028177
     5  N    0.287556  -0.028167
     6  O   -1.165759   0.181068
     7  O   -1.165821   0.181054
     8  C   -0.279609   0.011664
     9  H    0.208549   0.001091
    10  H    0.019128  -0.000278
    11  H    0.153809   0.000662
    12  C   -0.279535   0.011672
    13  H    0.019117  -0.000276
    14  H    0.153803   0.000663
    15  H    0.208507   0.001092
 Sum of Mulliken charges =  -0.00000   1.00000

 Dipole moment (field-independent basis, Debye):
    X=             -0.0000    Y=              2.5223    Z=             -0.0003  Tot=              2.5223
                          Isotropic Fermi Contact Couplings
        Atom                 a.u.       MegaHertz       Gauss      10(-4) cm-1
     1  C(13)             -0.05379     -60.47549     -21.57916     -20.17245
     2  P(31)              0.18493     334.92309     119.50889     111.71832
     3  C(13)             -0.05380     -60.48606     -21.58293     -20.17598
     4  N(14)             -0.01689      -5.45629      -1.94694      -1.82002
     5  N(14)             -0.01687      -5.45215      -1.94546      -1.81864
     6  O(17)              0.05537     -33.56698     -11.97753     -11.19674
     7  O(17)              0.05537     -33.56336     -11.97624     -11.19553
     8  C(13)             -0.00162      -1.81569      -0.64788      -0.60565

 Normal termination of Gaussian 16 at Tue Apr  8 23:32:42 2025.
