 Gaussian 16, Revision C.01,

 ----------------------------------------------------------------------
 #t hf aug-cc-pvdz symm=none int=(grid=ultrafine) guess=(read,tcheck) s
 table=(opt,rrhf)
 ----------------------------------------------------------------------
 -----
 title
 -----
 Symbolic Z-matrix:
 Charge =  0 Multiplicity = 1

 SCF Done:  E(RHF) =  -745.590631426     A.U. after   15 cycles
 Normal termination of Gaussian 16 at Wed Apr  9 00:07:44 2025.
 Gaussian 16:  ES64L-G16RevC.01  3-Jul-2019

 ----------------------------------------------------------------------
 #t hf aug-cc-pvdz iop(5/13=1,5/36=2,99/5=2) pseudo=read geom=check gue
 ss=(read,tcheck) scf=(maxcycle=1)
 ----------------------------------------------------------------------
 -----
 title
 -----
 Structure from the checkpoint file:  "BDE49_nonexpt_2247_mol1.chk"
 Charge =  0 Multiplicity = 1

                         Standard orientation:
 ---------------------------------------------------------------------
 Center     Atomic      Atomic             Coordinates (Angstroms)
 Number     Number       Type             X           Y           Z
 ---------------------------------------------------------------------
      1          8           0        0.649856   -0.669457   -0.227705
      2         14           0        2.023162    0.047369    0.352282
      3          6           0       -0.671767   -0.310949   -0.113259
      4          8           0        2.334525    1.513867   -0.294331
      5          6           0       -1.622650   -1.332038   -0.111920
      6          6           0       -1.073830    1.023466   -0.025209
      7          6           0       -2.430813    1.325527    0.072729
      8          6           0       -3.385811    0.312038    0.077780
      9          6           0       -2.974323   -1.016825   -0.017962
     10          1           0       -3.708678   -1.814590   -0.017577
     11          1           0       -1.286013   -2.359047   -0.185570
     12          1           0       -2.738467    2.362909    0.142196
     13          1           0       -4.439375    0.554087    0.152291
     14          1           0       -0.331515    1.812509   -0.050056
     15          1           0        2.656403    1.562101   -1.198419
     16          8           0        3.218117   -0.990742   -0.055627
     17          1           0        2.970681   -1.900338   -0.238118
     18          1           0        1.887874    0.282533    1.791653
 ---------------------------------------------------------------------

 SCF Done:  E(RHF) =  -746.081248976     A.U. after    2 cycles

 The electronic state is 1-A.
 Alpha  occ. eigenvalues --  -69.60908 -20.56266 -20.55728 -20.55654 -11.31462
 Alpha  occ. eigenvalues --  -11.25005 -11.24989 -11.24150 -11.24065 -11.23919
 Alpha  occ. eigenvalues --   -6.26885  -4.02433  -4.02396  -4.02190  -1.48843
 Alpha  occ. eigenvalues --   -1.45207  -1.43599  -1.15319  -1.02356  -1.01262
 Alpha  occ. eigenvalues --   -0.85655  -0.84186  -0.78757  -0.73791  -0.71347
 Alpha  occ. eigenvalues --   -0.68857  -0.66819  -0.63297  -0.62271  -0.60550
 Alpha  occ. eigenvalues --   -0.57923  -0.56711  -0.55258  -0.53972  -0.52510
 Alpha  occ. eigenvalues --   -0.52304  -0.50144  -0.48416  -0.47644  -0.35228
 Alpha  occ. eigenvalues --   -0.32936
 Alpha virt. eigenvalues --    0.03201   0.03684   0.03742   0.04772   0.05128
 Alpha virt. eigenvalues --    0.05367   0.07140   0.07866   0.08016   0.08598
 Alpha virt. eigenvalues --    0.09452   0.10098   0.11392   0.12785   0.13023

 Mulliken charges:
               1
     1  O   -2.593916
     2  Si   3.147084
     3  C    1.997410
     4  O   -1.383088
     5  C   -0.388610
     6  C   -0.097511
     7  C    0.564324
     8  C    0.040635
     9  C    0.672600
    10  H   -0.210011
    11  H   -0.274470
    12  H   -0.223484
    13  H   -0.221031
    14  H   -0.323745
    15  H    0.422102
    16  O   -1.432875
    17  H    0.473087
    18  H   -0.168503
 Sum of Mulliken charges =   0.00000

 Dipole moment (field-independent basis, Debye):
    X=             -0.6446    Y=             -0.8325    Z=             -0.8555  Tot=              1.3566

 Test job not archived.
 1\1\GINC-SE364\SP\RHF\Aug-CC-pVDZ\C6H8O3Si1\OHZDE\09-Apr-2025\0\\#t hf
  aug-cc-pvdz iop(5/13=1,5/36=2,99/5=2) pseudo=read geom=check guess=(r
 ead,tcheck) scf=(maxcycle=1)\\title\\0,1\O,0,0.649856,-0.669457,-0.227
 705\Si,0,2.023162,0.047369,0.352282\C,0,-0.671767,-0.310949,-0.113259\
 O,0,2.334525,1.513867,-0.294331\C,0,-1.62265,-1.332038,-0.11192\C,0,-1
 .07383,1.023466,-0.025209\C,0,-2.430813,1.325527,0.072729\C,0,-3.38581
 1,0.312038,0.07778\C,0,-2.974323,-1.016825,-0.017962\H,0,-3.708678,-1.
 81459,-0.017577\H,0,-1.286013,-2.359047,-0.18557\H,0,-2.738467,2.36290

 Normal termination of Gaussian 16 at Wed Apr  9 00:07:54 2025.
