 Gaussian 16, Revision C.01,

 ----------------------------------------------------------------------
 #t hf aug-cc-pvdz symm=none int=(grid=ultrafine) guess=(read,tcheck) s
 table=(opt,rrhf)
 ----------------------------------------------------------------------
 -----
 title
 -----
 Symbolic Z-matrix:
 Charge =  0 Multiplicity = 1

 SCF Done:  E(RHF) =  -3083.97436055     A.U. after   12 cycles
 Normal termination of Gaussian 16 at Tue Apr  8 23:48:27 2025.
 Gaussian 16:  ES64L-G16RevC.01  3-Jul-2019

 ----------------------------------------------------------------------
 #t hf aug-cc-pvdz iop(5/13=1,5/36=2,99/5=2) pseudo=read geom=check gue
 ss=(read,tcheck) scf=(maxcycle=1)
 ----------------------------------------------------------------------
 -----
 title
 -----
 Structure from the checkpoint file:  "BDE49_nonexpt_1815_mol1.chk"
 Charge =  0 Multiplicity = 1

                         Standard orientation:
 ---------------------------------------------------------------------
 Center     Atomic      Atomic             Coordinates (Angstroms)
 Number     Number       Type             X           Y           Z
 ---------------------------------------------------------------------
      1          6           0       -1.053879    0.000003   -0.000022
      2         14           0        0.867989    0.000003   -0.000038
      3         17           0       -1.646674    0.023507   -1.694436
      4         17           0       -1.646460    1.455698    0.867618
      5         17           0       -1.646457   -1.479208    0.826891
      6         17           0        1.532274   -1.657798   -0.987975
      7         17           0        1.532183   -0.026712    1.929660
      8         17           0        1.532276    1.684510   -0.941718
 ---------------------------------------------------------------------

 SCF Done:  E(RHF) =  -3084.49871672     A.U. after    2 cycles

 The electronic state is 1-A.
 Alpha  occ. eigenvalues -- -105.61067-105.61067-105.61066-105.59783-105.59783
 Alpha  occ. eigenvalues -- -105.59783 -69.70267 -11.45382 -10.65868 -10.65853
 Alpha  occ. eigenvalues --  -10.65853 -10.64813 -10.64798 -10.64798  -7.82808
 Alpha  occ. eigenvalues --   -7.82808  -7.82804  -7.82376  -7.82376  -7.82375
 Alpha  occ. eigenvalues --   -7.82370  -7.82367  -7.82367  -7.81706  -7.81697
 Alpha  occ. eigenvalues --   -7.81697  -7.81358  -7.81358  -7.81357  -7.81350
 Alpha  occ. eigenvalues --   -7.81350  -7.81346  -6.35926  -4.11306  -4.11306
 Alpha  occ. eigenvalues --   -4.11157  -1.22224  -1.13049  -1.08650  -1.08650
 Alpha  occ. eigenvalues --   -1.07491  -1.07491  -0.87080  -0.74050  -0.65354
 Alpha  occ. eigenvalues --   -0.65261  -0.65261  -0.60280  -0.60280  -0.53370
 Alpha  occ. eigenvalues --   -0.53369  -0.52943  -0.52157  -0.52157  -0.50691
 Alpha  occ. eigenvalues --   -0.50691  -0.48871  -0.47971  -0.47971  -0.47045
 Alpha  occ. eigenvalues --   -0.45881
 Alpha virt. eigenvalues --    0.04926   0.05826   0.06037   0.06037   0.07869
 Alpha virt. eigenvalues --    0.08732   0.08732   0.09877   0.11273   0.11273
 Alpha virt. eigenvalues --    0.12617   0.12617   0.13563   0.15587   0.16202

 Mulliken charges:
               1
     1  C   -0.892667
     2  Si   2.224467
     3  Cl   0.063028
     4  Cl   0.062999
     5  Cl   0.062999
     6  Cl  -0.506941
     7  Cl  -0.506941
     8  Cl  -0.506942
 Sum of Mulliken charges =  -0.00000

 Dipole moment (field-independent basis, Debye):
    X=              0.1452    Y=              0.0000    Z=             -0.0001  Tot=              0.1452

 Test job not archived.
 1\1\GINC-SE335\SP\RHF\Aug-CC-pVDZ\C1Cl6Si1\OHZDE\08-Apr-2025\0\\#t hf
 aug-cc-pvdz iop(5/13=1,5/36=2,99/5=2) pseudo=read geom=check guess=(re
 ad,tcheck) scf=(maxcycle=1)\\title\\0,1\C,0,-1.053879,0.000003,-0.0000
 22\Si,0,0.867989,0.000002,-0.000038\Cl,0,-1.646674,0.001696,-1.694598\
 Cl,0,-1.64646,1.466745,0.848809\Cl,0,-1.646457,-1.468442,0.845861\Cl,0
 ,1.532274,-1.670377,-0.966555\Cl,0,1.532183,-0.001873,1.929844\Cl,0,1.
 532276,1.672249,-0.963321\\Version=ES64L-G16RevC.01\State=1-A\HF=-3084
 .4987167\RMSD=3.285e-03\Dipole=0.0571196,0.0000022,-0.0000346\Quadrupo

 Normal termination of Gaussian 16 at Tue Apr  8 23:48:32 2025.
