 Gaussian 16, Revision C.01,

 ----------------------------------------------------------------------
 #t hf aug-cc-pvdz symm=none int=(grid=ultrafine) guess=(read,tcheck) s
 table=(opt,rrhf)
 ----------------------------------------------------------------------
 -----
 title
 -----
 Symbolic Z-matrix:
 Charge =  0 Multiplicity = 1

 SCF Done:  E(RHF) =  -1585.34007347     A.U. after   12 cycles
 Normal termination of Gaussian 16 at Tue Apr  8 23:52:31 2025.
 Gaussian 16:  ES64L-G16RevC.01  3-Jul-2019

 ----------------------------------------------------------------------
 #t hf aug-cc-pvdz iop(5/13=1,5/36=2,99/5=2) pseudo=read geom=check gue
 ss=(read,tcheck) scf=(maxcycle=1)
 ----------------------------------------------------------------------
 -----
 title
 -----
 Structure from the checkpoint file:  "BDE49_nonexpt_191_mol1.chk"
 Charge =  0 Multiplicity = 1

                         Standard orientation:
 ---------------------------------------------------------------------
 Center     Atomic      Atomic             Coordinates (Angstroms)
 Number     Number       Type             X           Y           Z
 ---------------------------------------------------------------------
      1         17           0        2.613832   -1.151598   -0.000955
      2         17           0        1.418865    1.646658    0.004940
      3          5           0        1.199125   -0.110217    0.008051
      4         15           0       -1.528545   -0.115250    0.113480
      5          8           0       -1.892433    0.468482    1.398574
      6          8           0       -1.680218    0.844783   -1.150195
      7          1           0       -1.583540    1.774803   -0.909179
      8          8           0       -2.263384   -1.434433   -0.357477
      9          1           0       -3.189048   -1.456502   -0.087357
     10          8           0       -0.020302   -0.685641    0.007390
 ---------------------------------------------------------------------

 SCF Done:  E(RHF) =  -1585.85062985     A.U. after    2 cycles

 The electronic state is 1-A.
 Alpha  occ. eigenvalues -- -105.59339-105.58649 -84.49118 -20.61910 -20.61755
 Alpha  occ. eigenvalues --  -20.61702 -20.53020 -10.64360 -10.63662  -7.81259
 Alpha  occ. eigenvalues --   -7.80956  -7.80936  -7.80568  -7.80264  -7.80226
 Alpha  occ. eigenvalues --   -7.77212  -6.93871  -4.48098  -4.47372  -4.47277
 Alpha  occ. eigenvalues --   -1.59321  -1.51816  -1.50427  -1.41651  -1.11936
 Alpha  occ. eigenvalues --   -1.07545  -0.92245  -0.79945  -0.75509  -0.70672
 Alpha  occ. eigenvalues --   -0.68781  -0.66312  -0.64763  -0.63524  -0.60215
 Alpha  occ. eigenvalues --   -0.57352  -0.56799  -0.53486  -0.52242  -0.51605
 Alpha  occ. eigenvalues --   -0.49353  -0.48436  -0.48168  -0.47606
 Alpha virt. eigenvalues --    0.03138   0.04316   0.05390   0.06166   0.06662
 Alpha virt. eigenvalues --    0.08367   0.09617   0.09796   0.10364   0.12223
 Alpha virt. eigenvalues --    0.13258   0.14339   0.14789   0.15809   0.17194

 Mulliken charges:
               1
     1  Cl  -0.346780
     2  Cl  -0.313211
     3  B    0.884135
     4  P    4.273646
     5  O   -1.311467
     6  O   -1.264372
     7  H    0.375553
     8  O   -1.188437
     9  H    0.356769
    10  O   -1.465836
 Sum of Mulliken charges =  -0.00000

 Dipole moment (field-independent basis, Debye):
    X=             -1.4305    Y=              0.2927    Z=             -1.7418  Tot=              2.2728

 Test job not archived.
 1\1\GINC-SE364\SP\RHF\Aug-CC-pVDZ\B1Cl2H2O4P1\OHZDE\08-Apr-2025\0\\#t
 hf aug-cc-pvdz iop(5/13=1,5/36=2,99/5=2) pseudo=read geom=check guess=
 (read,tcheck) scf=(maxcycle=1)\\title\\0,1\Cl,0,2.613832,-1.151598,-0.
 000955\Cl,0,1.418865,1.646658,0.00494\B,0,1.199125,-0.110217,0.008051\
 P,0,-1.528545,-0.11525,0.11348\O,0,-1.892433,0.468482,1.398574\O,0,-1.
 680218,0.844783,-1.150195\H,0,-1.58354,1.774803,-0.909179\O,0,-2.26338
 4,-1.434433,-0.357477\H,0,-3.189048,-1.456502,-0.087357\O,0,-0.020302,
 -0.685641,0.00739\\Version=ES64L-G16RevC.01\State=1-A\HF=-1585.8506299

 Normal termination of Gaussian 16 at Tue Apr  8 23:52:36 2025.
