 Gaussian 16, Revision C.01,

 ----------------------------------------------------------------------
 #t hf aug-cc-pvdz symm=none int=(grid=ultrafine) guess=(read,tcheck) s
 table=(opt,rrhf)
 ----------------------------------------------------------------------
 -----
 title
 -----
 Symbolic Z-matrix:
 Charge =  0 Multiplicity = 1

 SCF Done:  E(RHF) =  -1068.01068699     A.U. after   15 cycles
 Normal termination of Gaussian 16 at Wed Apr  9 00:17:02 2025.
 Gaussian 16:  ES64L-G16RevC.01  3-Jul-2019

 ----------------------------------------------------------------------
 #t hf aug-cc-pvdz iop(5/13=1,5/36=2,99/5=2) pseudo=read geom=check gue
 ss=(read,tcheck) scf=(maxcycle=1)
 ----------------------------------------------------------------------
 -----
 title
 -----
 Structure from the checkpoint file:  "BDE49_nonexpt_2510_mol1.chk"
 Charge =  0 Multiplicity = 1

                         Standard orientation:
 ---------------------------------------------------------------------
 Center     Atomic      Atomic             Coordinates (Angstroms)
 Number     Number       Type             X           Y           Z
 ---------------------------------------------------------------------
      1         16           0        1.187309    0.000000   -0.571152
      2         14           0        2.214706    0.000000    1.424868
      3          8           0        1.503084    1.271716   -1.214454
      4          8           0        1.503084   -1.271716   -1.214454
      5          6           0       -0.575240    0.000000   -0.212860
      6          6           0       -1.242259   -1.217104   -0.076793
      7          6           0       -1.242259    1.217104   -0.076792
      8          6           0       -2.604559   -1.210363    0.210466
      9          6           0       -2.604559    1.210363    0.210466
     10          6           0       -3.281727    0.000000    0.357011
     11          1           0       -0.701277   -2.144212   -0.218717
     12          1           0       -3.138340   -2.148165    0.311161
     13          1           0       -0.701277    2.144212   -0.218717
     14          1           0       -3.138340    2.148165    0.311161
     15          1           0       -4.342896    0.000000    0.578670
     16          1           0        3.650395    0.000000    1.089172
     17          1           0        1.811582   -1.220587    2.149916
     18          1           0        1.811582    1.220587    2.149916
 ---------------------------------------------------------------------

 SCF Done:  E(RHF) =  -1068.48939355     A.U. after    2 cycles

 The electronic state is 1-A.
 Alpha  occ. eigenvalues --  -94.17343 -69.58166 -20.53031 -20.53023 -11.28556
 Alpha  occ. eigenvalues --  -11.27548 -11.27544 -11.27300 -11.26708 -11.26694
 Alpha  occ. eigenvalues --   -8.42895  -6.40993  -6.40766  -6.40662  -6.25180
 Alpha  occ. eigenvalues --   -4.00575  -4.00475  -4.00475  -1.53966  -1.42564
 Alpha  occ. eigenvalues --   -1.18669  -1.06596  -1.04565  -0.94599  -0.86471
 Alpha  occ. eigenvalues --   -0.84522  -0.78247  -0.73932  -0.68063  -0.67691
 Alpha  occ. eigenvalues --   -0.65150  -0.64921  -0.62902  -0.62785  -0.55685
 Alpha  occ. eigenvalues --   -0.54438  -0.53729  -0.53268  -0.52624  -0.48889
 Alpha  occ. eigenvalues --   -0.47848  -0.45691  -0.40496  -0.37729  -0.37113
 Alpha virt. eigenvalues --    0.02590   0.02988   0.03380   0.04509   0.05265
 Alpha virt. eigenvalues --    0.05342   0.05721   0.06941   0.07526   0.07720
 Alpha virt. eigenvalues --    0.08507   0.08689   0.09392   0.10973   0.11523

 Mulliken charges:
               1
     1  S    3.251063
     2  Si   0.866249
     3  O   -1.604451
     4  O   -1.604451
     5  C    0.478421
     6  C   -0.424069
     7  C   -0.424068
     8  C    0.523954
     9  C    0.523955
    10  C   -0.052095
    11  H   -0.248423
    12  H   -0.217585
    13  H   -0.248423
    14  H   -0.217585
    15  H   -0.200860
    16  H   -0.166661
    17  H   -0.117486
    18  H   -0.117486
 Sum of Mulliken charges =  -0.00000

 Dipole moment (field-independent basis, Debye):
    X=             -2.9066    Y=             -0.0000    Z=              4.7361  Tot=              5.5569

 Test job not archived.
 1\1\GINC-SE284\SP\RHF\Aug-CC-pVDZ\C6H8O2S1Si1\OHZDE\09-Apr-2025\0\\#t
 hf aug-cc-pvdz iop(5/13=1,5/36=2,99/5=2) pseudo=read geom=check guess=
 (read,tcheck) scf=(maxcycle=1)\\title\\0,1\S,0,-1.187309,0.,-0.571152\
 Si,0,-2.214706,0.,1.424868\O,0,-1.503084,-1.271716,-1.214454\O,0,-1.50
 3084,1.271716,-1.214454\C,0,0.57524,0.,-0.21286\C,0,1.242259,1.217104,
 -0.076793\C,0,1.242259,-1.217104,-0.076792\C,0,2.604559,1.210363,0.210
 466\C,0,2.604559,-1.210363,0.210466\C,0,3.281727,0.,0.357011\H,0,0.701
 277,2.144212,-0.218717\H,0,3.13834,2.148165,0.311161\H,0,0.701277,-2.1

 Normal termination of Gaussian 16 at Wed Apr  9 00:17:12 2025.
