 Gaussian 16, Revision C.01,

 ----------------------------------------------------------------------
 #t hf aug-cc-pvdz symm=none int=(grid=ultrafine) guess=(read,tcheck) s
 table=(opt,rrhf)
 ----------------------------------------------------------------------
 -----
 title
 -----
 Symbolic Z-matrix:
 Charge =  0 Multiplicity = 1

 SCF Done:  E(RHF) =  -993.900951329     A.U. after   13 cycles
 Normal termination of Gaussian 16 at Tue Apr  8 22:58:39 2025.
 Gaussian 16:  ES64L-G16RevC.01  3-Jul-2019

 ----------------------------------------------------------------------
 #t hf aug-cc-pvdz iop(5/13=1,5/36=2,99/5=2) pseudo=read geom=check gue
 ss=(read,tcheck) scf=(maxcycle=1)
 ----------------------------------------------------------------------
 -----
 title
 -----
 Structure from the checkpoint file:  "BDE49_expt_1952_mol1.chk"
 Charge =  0 Multiplicity = 1

                         Standard orientation:
 ---------------------------------------------------------------------
 Center     Atomic      Atomic             Coordinates (Angstroms)
 Number     Number       Type             X           Y           Z
 ---------------------------------------------------------------------
      1         16           0        0.398043    0.871821   -0.411399
      2         16           0       -0.398043   -0.871821   -0.411399
      3          9           0       -0.398043    1.831015    0.731376
      4          9           0        0.398043   -1.831015    0.731376
 ---------------------------------------------------------------------

 SCF Done:  E(RHF) =  -994.195484588     A.U. after    2 cycles

 The electronic state is 1-A.
 Alpha  occ. eigenvalues --  -94.10140 -94.10116 -26.48969 -26.48969  -8.37394
 Alpha  occ. eigenvalues --   -8.37347  -6.35099  -6.35033  -6.34823  -6.34775
 Alpha  occ. eigenvalues --   -6.34504  -6.34504  -1.58797  -1.58423  -1.16745
 Alpha  occ. eigenvalues --   -0.91640  -0.72111  -0.68279  -0.68163  -0.65740
 Alpha  occ. eigenvalues --   -0.65668  -0.61776  -0.51969  -0.45120  -0.44244
 Alpha virt. eigenvalues --    0.04618   0.05401   0.06165   0.08762   0.10490
 Alpha virt. eigenvalues --    0.11040   0.12759   0.14884   0.15738   0.15771
 Alpha virt. eigenvalues --    0.23680   0.24168   0.25556   0.27498   0.31985

 Mulliken charges:
               1
     1  S    0.578975
     2  S    0.578975
     3  F   -0.578975
     4  F   -0.578975
 Sum of Mulliken charges =  -0.00000

 Dipole moment (field-independent basis, Debye):
    X=             -0.0000    Y=              0.0000    Z=             -1.6827  Tot=              1.6827

 Test job not archived.
 1\1\GINC-SE096\SP\RHF\Aug-CC-pVDZ\F2S2\OHZDE\08-Apr-2025\0\\#t hf aug-
 cc-pvdz iop(5/13=1,5/36=2,99/5=2) pseudo=read geom=check guess=(read,t
 check) scf=(maxcycle=1)\\title\\0,1\S,0,0.861086,-0.411399,0.420762\S,
 0,-0.861086,-0.411399,-0.420762\F,0,1.840821,0.731376,-0.349904\F,0,-1
 .840821,0.731376,0.349904\\Version=ES64L-G16RevC.01\State=1-A\HF=-994.
 1954846\RMSD=2.870e-03\Dipole=0.,-0.6620323,0.\Quadrupole=-1.1647148,0
 .1884084,0.9763064,0.,1.8931888,0.\PG=C02 [X(F2S2)]\\@

 Normal termination of Gaussian 16 at Tue Apr  8 22:58:41 2025.
