 Gaussian 16, Revision C.01,

 ----------------------------------------------------------------------
 #t hf aug-cc-pvdz symm=none int=(grid=ultrafine) guess=(read,tcheck) s
 table=(opt,rrhf)
 ----------------------------------------------------------------------
 -----
 title
 -----
 Symbolic Z-matrix:
 Charge =  0 Multiplicity = 1

 SCF Done:  E(RHF) =  -970.263910586     A.U. after   14 cycles
 Normal termination of Gaussian 16 at Tue Apr  8 23:17:48 2025.
 Gaussian 16:  ES64L-G16RevC.01  3-Jul-2019

 ----------------------------------------------------------------------
 #t hf aug-cc-pvdz iop(5/13=1,5/36=2,99/5=2) pseudo=read geom=check gue
 ss=(read,tcheck) scf=(maxcycle=1)
 ----------------------------------------------------------------------
 -----
 title
 -----
 Structure from the checkpoint file:  "BDE49_nonexpt_1058_mol1.chk"
 Charge =  0 Multiplicity = 1

                         Standard orientation:
 ---------------------------------------------------------------------
 Center     Atomic      Atomic             Coordinates (Angstroms)
 Number     Number       Type             X           Y           Z
 ---------------------------------------------------------------------
      1         17           0        1.585340   -0.433265   -0.000000
      2          8           0        0.591716    1.022850   -0.000000
      3          6           0       -0.732547    0.847244   -0.000000
      4         16           0       -1.634187   -0.485154   -0.000000
      5          1           0       -1.142233    1.861714    0.000001
 ---------------------------------------------------------------------

 SCF Done:  E(RHF) =  -970.502227731     A.U. after    2 cycles

 The electronic state is 1-A.
 Alpha  occ. eigenvalues -- -105.65391 -93.94839 -20.68830 -11.40810 -10.69523
 Alpha  occ. eigenvalues --   -8.23178  -7.86507  -7.85915  -7.85907  -6.21014
 Alpha  occ. eigenvalues --   -6.20754  -6.20565  -1.56129  -1.10686  -1.05944
 Alpha  occ. eigenvalues --   -0.84157  -0.73495  -0.66915  -0.64474  -0.54568
 Alpha  occ. eigenvalues --   -0.50386  -0.50065  -0.40924  -0.37653
 Alpha virt. eigenvalues --    0.03151   0.03724   0.05348   0.07508   0.08686
 Alpha virt. eigenvalues --    0.10803   0.12378   0.13599   0.14919   0.15150
 Alpha virt. eigenvalues --    0.15355   0.16071   0.17059   0.21906   0.26101

 Mulliken charges:
               1
     1  Cl   0.390941
     2  O   -0.953444
     3  C    0.224126
     4  S    0.225824
     5  H    0.112552
 Sum of Mulliken charges =   0.00000

 Dipole moment (field-independent basis, Debye):
    X=              0.7068    Y=              1.3744    Z=              0.0000  Tot=              1.5455

 Test job not archived.
 1\1\GINC-SE333\SP\RHF\Aug-CC-pVDZ\C1H1Cl1O1S1\OHZDE\08-Apr-2025\0\\#t
 hf aug-cc-pvdz iop(5/13=1,5/36=2,99/5=2) pseudo=read geom=check guess=
 (read,tcheck) scf=(maxcycle=1)\\title\\0,1\Cl,0,-1.58534,-0.433265,0.\
 O,0,-0.591716,1.02285,0.\C,0,0.732547,0.847244,0.\S,0,1.634187,-0.4851
 54,0.\H,0,1.142233,1.861714,-0.000001\\Version=ES64L-G16RevC.01\State=
 1-A\HF=-970.5022277\RMSD=6.301e-03\Dipole=-0.2780576,0.5407404,-0.0000
 003\Quadrupole=-1.5886466,2.2784773,-0.6898307,2.4287011,-0.0000006,-0
 .0000006\PG=C01 [X(C1H1Cl1O1S1)]\\@

 Normal termination of Gaussian 16 at Tue Apr  8 23:17:50 2025.
