 Gaussian 16, Revision C.01,

 ----------------------------------------------------------------------
 #t hf aug-cc-pvdz symm=none int=(grid=ultrafine) guess=(read,tcheck) s
 table=(opt,rrhf)
 ----------------------------------------------------------------------
 -----
 title
 -----
 Symbolic Z-matrix:
 Charge =  0 Multiplicity = 1

 SCF Done:  E(RHF) =  -718.833974824     A.U. after   17 cycles
 Normal termination of Gaussian 16 at Tue Apr  8 23:35:36 2025.
 Gaussian 16:  ES64L-G16RevC.01  3-Jul-2019

 ----------------------------------------------------------------------
 #t hf aug-cc-pvdz iop(5/13=1,5/36=2,99/5=2) pseudo=read geom=check gue
 ss=(read,tcheck) scf=(maxcycle=1)
 ----------------------------------------------------------------------
 -----
 title
 -----
 Structure from the checkpoint file:  "BDE49_nonexpt_1462_mol1.chk"
 Charge =  0 Multiplicity = 1

                         Standard orientation:
 ---------------------------------------------------------------------
 Center     Atomic      Atomic             Coordinates (Angstroms)
 Number     Number       Type             X           Y           Z
 ---------------------------------------------------------------------
      1          6           0       -1.109543   -1.163197   -0.120877
      2          6           0        0.271718   -1.015094   -0.155353
      3          6           0       -1.933889   -0.036488   -0.000938
      4          6           0       -1.354060    1.239115    0.083680
      5          6           0        0.025398    1.374838    0.049674
      6          6           0        0.857484    0.251851   -0.063482
      7          1           0        0.908920   -1.886661   -0.244975
      8          1           0       -1.556628   -2.147748   -0.185770
      9          1           0       -1.990072    2.110666    0.178477
     10          1           0        0.458132    2.368024    0.120286
     11         15           0        2.678639    0.486086   -0.231834
     12          7           0        3.279571   -1.017596    0.296572
     13          1           0        4.145202   -1.311143   -0.129285
     14          1           0        3.216458   -1.287632    1.268796
     15          6           0       -3.355690   -0.184132    0.037707
     16          7           0       -4.504593   -0.303360    0.069742
     17          1           0        2.805052    1.308544    0.923311
 ---------------------------------------------------------------------

 SCF Done:  E(RHF) =  -719.258501933     A.U. after    2 cycles

 The electronic state is 1-A.
 Alpha  occ. eigenvalues --  -84.31259 -15.51502 -15.51393 -11.29268 -11.28279
 Alpha  occ. eigenvalues --  -11.27811 -11.27753 -11.27438 -11.26825 -11.26379
 Alpha  occ. eigenvalues --   -6.77957  -4.30917  -4.30681  -4.29699  -1.23451
 Alpha  occ. eigenvalues --   -1.19398  -1.17804  -1.06677  -1.04662  -0.91699
 Alpha  occ. eigenvalues --   -0.86737  -0.83015  -0.77709  -0.72659  -0.68529
 Alpha  occ. eigenvalues --   -0.67047  -0.64136  -0.62880  -0.60609  -0.59684
 Alpha  occ. eigenvalues --   -0.56809  -0.53942  -0.52794  -0.50790  -0.49793
 Alpha  occ. eigenvalues --   -0.45522  -0.39961  -0.37357  -0.33069
 Alpha virt. eigenvalues --    0.02351   0.03377   0.04023   0.04621   0.05162
 Alpha virt. eigenvalues --    0.05610   0.06144   0.06984   0.07887   0.08488
 Alpha virt. eigenvalues --    0.08922   0.09541   0.10031   0.11094   0.11638

 Mulliken charges:
               1
     1  C   -0.041018
     2  C    0.171772
     3  C    2.566940
     4  C    0.300793
     5  C   -0.094151
     6  C   -0.182403
     7  H   -0.300769
     8  H   -0.323065
     9  H   -0.317254
    10  H   -0.265068
    11  P    0.250855
    12  N    0.071811
    13  H    0.008567
    14  H   -0.048732
    15  C   -3.198907
    16  N    1.075819
    17  H    0.324809
 Sum of Mulliken charges =  -0.00000

 Dipole moment (field-independent basis, Debye):
    X=              6.5536    Y=              0.1791    Z=              0.9327  Tot=              6.6220

 Test job not archived.
 1\1\GINC-SE099\SP\RHF\Aug-CC-pVDZ\C7H7N2P1\OHZDE\08-Apr-2025\0\\#t hf
 aug-cc-pvdz iop(5/13=1,5/36=2,99/5=2) pseudo=read geom=check guess=(re
 ad,tcheck) scf=(maxcycle=1)\\title\\0,1\C,0,-1.109543,-1.163197,-0.120
 877\C,0,0.271718,-1.015094,-0.155353\C,0,-1.933889,-0.036488,-0.000938
 \C,0,-1.35406,1.239115,0.08368\C,0,0.025398,1.374838,0.049674\C,0,0.85
 7484,0.251851,-0.063482\H,0,0.90892,-1.886661,-0.244975\H,0,-1.556628,
 -2.147748,-0.18577\H,0,-1.990072,2.110666,0.178477\H,0,0.458132,2.3680
 24,0.120286\P,0,2.678639,0.486086,-0.231834\N,0,3.279571,-1.017596,0.2

 Normal termination of Gaussian 16 at Tue Apr  8 23:35:46 2025.
