 Gaussian 16, Revision C.01,

 ----------------------------------------------------------------------
 #t hf aug-cc-pvdz symm=none int=(grid=ultrafine) guess=(read,tcheck) s
 table=(opt,rrhf)
 ----------------------------------------------------------------------
 -----
 title
 -----
 Symbolic Z-matrix:
 Charge =  0 Multiplicity = 1

 SCF Done:  E(RHF) =  -672.196750447     A.U. after   12 cycles
 Normal termination of Gaussian 16 at Wed Apr  9 00:04:04 2025.
 Gaussian 16:  ES64L-G16RevC.01  3-Jul-2019

 ----------------------------------------------------------------------
 #t hf aug-cc-pvdz iop(5/13=1,5/36=2,99/5=2) pseudo=read geom=check gue
 ss=(read,tcheck) scf=(maxcycle=1)
 ----------------------------------------------------------------------
 -----
 title
 -----
 Structure from the checkpoint file:  "BDE49_nonexpt_2176_mol1.chk"
 Charge =  0 Multiplicity = 1

                         Standard orientation:
 ---------------------------------------------------------------------
 Center     Atomic      Atomic             Coordinates (Angstroms)
 Number     Number       Type             X           Y           Z
 ---------------------------------------------------------------------
      1         14           0       -0.833394   -0.204691    0.018635
      2          8           0       -0.791385   -0.344284    1.655555
      3          8           0       -2.213105    0.573325   -0.426995
      4          1           0       -1.602291   -0.601068    2.101637
      5          6           0        0.706768    0.754885   -0.450784
      6          6           0        2.011618    0.231033    0.190414
      7          6           0        2.366130   -1.226007   -0.128057
      8          1           0        1.948506    0.356704    1.276242
      9          1           0        2.835252    0.873612   -0.145546
     10          1           0        1.678843   -1.926604    0.358063
     11          1           0        3.367976   -1.472613    0.233249
     12          1           0        2.348666   -1.416793   -1.206144
     13          6           0        0.516189    2.255384   -0.141603
     14          1           0        0.800329    0.644920   -1.541289
     15          1           0        0.423895    2.424286    0.935340
     16          1           0       -0.383488    2.652017   -0.616563
     17          1           0        1.374370    2.836539   -0.495997
     18          1           0       -2.719283    0.160128   -1.130504
     19          8           0       -0.967307   -1.663628   -0.748862
     20          1           0       -0.235113   -2.280529   -0.686796
 ---------------------------------------------------------------------

 SCF Done:  E(RHF) =  -672.628721612     A.U. after    2 cycles

 The electronic state is 1-A.
 Alpha  occ. eigenvalues --  -69.58254 -20.54533 -20.54250 -20.54054 -11.23180
 Alpha  occ. eigenvalues --  -11.23151 -11.22170 -11.21818  -6.24396  -3.99895
 Alpha  occ. eigenvalues --   -3.99887  -3.99666  -1.45712  -1.42301  -1.41756
 Alpha  occ. eigenvalues --   -1.07440  -0.98620  -0.86749  -0.80886  -0.75689
 Alpha  occ. eigenvalues --   -0.71354  -0.69610  -0.63428  -0.60074  -0.59434
 Alpha  occ. eigenvalues --   -0.58235  -0.57015  -0.55711  -0.54608  -0.52875
 Alpha  occ. eigenvalues --   -0.51785  -0.50369  -0.49913  -0.48499  -0.47504
 Alpha  occ. eigenvalues --   -0.46834  -0.42028
 Alpha virt. eigenvalues --    0.03393   0.03748   0.03945   0.04294   0.05937
 Alpha virt. eigenvalues --    0.06203   0.06615   0.06806   0.06996   0.09009
 Alpha virt. eigenvalues --    0.09225   0.09625   0.09655   0.10430   0.11860

 Mulliken charges:
               1
     1  Si   4.131837
     2  O   -1.537625
     3  O   -1.599032
     4  H    0.368006
     5  C   -1.106962
     6  C   -0.087423
     7  C   -0.272774
     8  H    0.130631
     9  H    0.139448
    10  H    0.100622
    11  H    0.077136
    12  H    0.156491
    13  C   -0.226723
    14  H    0.041932
    15  H    0.177496
    16  H    0.103318
    17  H    0.155392
    18  H    0.393505
    19  O   -1.596136
    20  H    0.450860
 Sum of Mulliken charges =   0.00000

 Dipole moment (field-independent basis, Debye):
    X=              0.5286    Y=             -1.1166    Z=             -0.5304  Tot=              1.3444

 Test job not archived.
 1\1\GINC-SE094\SP\RHF\Aug-CC-pVDZ\C4H12O3Si1\OHZDE\09-Apr-2025\0\\#t h
 f aug-cc-pvdz iop(5/13=1,5/36=2,99/5=2) pseudo=read geom=check guess=(
 read,tcheck) scf=(maxcycle=1)\\title\\0,1\Si,0,-0.833394,-0.204691,0.0
 18635\O,0,-0.791385,-0.344284,1.655555\O,0,-2.213105,0.573325,-0.42699
 5\H,0,-1.602291,-0.601068,2.101637\C,0,0.706768,0.754885,-0.450784\C,0
 ,2.011618,0.231033,0.190414\C,0,2.36613,-1.226007,-0.128057\H,0,1.9485
 06,0.356704,1.276242\H,0,2.835252,0.873612,-0.145546\H,0,1.678843,-1.9
 26604,0.358063\H,0,3.367976,-1.472613,0.233249\H,0,2.348666,-1.416793,

 Normal termination of Gaussian 16 at Wed Apr  9 00:04:14 2025.
