 Gaussian 16, Revision C.01,

 ----------------------------------------------------------------------
 #t hf aug-cc-pvdz symm=none int=(grid=ultrafine) guess=(read,tcheck) s
 table=(opt,rrhf)
 ----------------------------------------------------------------------
 -----
 title
 -----
 Symbolic Z-matrix:
 Charge =  0 Multiplicity = 1

 SCF Done:  E(RHF) =  -810.357124987     A.U. after   11 cycles
 Normal termination of Gaussian 16 at Tue Apr  8 22:42:47 2025.
 Gaussian 16:  ES64L-G16RevC.01  3-Jul-2019

 ----------------------------------------------------------------------
 #t hf aug-cc-pvdz iop(5/13=1,5/36=2,99/5=2) pseudo=read geom=check gue
 ss=(read,tcheck) scf=(maxcycle=1)
 ----------------------------------------------------------------------
 -----
 title
 -----
 Structure from the checkpoint file:  "BDE49_expt_143_mol1.chk"
 Charge =  0 Multiplicity = 1

                         Standard orientation:
 ---------------------------------------------------------------------
 Center     Atomic      Atomic             Coordinates (Angstroms)
 Number     Number       Type             X           Y           Z
 ---------------------------------------------------------------------
      1          6           0        1.196451    0.182962   -0.060004
      2          6           0       -0.187874   -0.494444    0.098058
      3          9           0        1.316617    1.229863    0.757633
      4          9           0        1.339840    0.609479   -1.329736
      5          9           0        2.170804   -0.687952    0.208791
      6          6           0       -1.364305    0.336780   -0.449102
      7          9           0       -0.380111   -0.770095    1.405215
      8          9           0       -0.155814   -1.660918   -0.595700
      9          9           0       -1.400605    1.537625    0.181017
     10          9           0       -2.511994   -0.329498   -0.183679
     11          1           0       -1.274252    0.491678   -1.525572
 ---------------------------------------------------------------------

 SCF Done:  E(RHF) =  -811.096316396     A.U. after    2 cycles

 The electronic state is 1-A.
 Alpha  occ. eigenvalues --  -26.54583 -26.54160 -26.54131 -26.53389 -26.53167
 Alpha  occ. eigenvalues --  -26.51935 -26.51787 -11.56502 -11.49167 -11.47172
 Alpha  occ. eigenvalues --   -1.75592  -1.70592  -1.68137  -1.65478  -1.65209
 Alpha  occ. eigenvalues --   -1.63404  -1.61910  -1.11539  -1.01485  -0.93062
 Alpha  occ. eigenvalues --   -0.87825  -0.85804  -0.85527  -0.82576  -0.81832
 Alpha  occ. eigenvalues --   -0.78418  -0.77388  -0.73005  -0.72321  -0.71733
 Alpha  occ. eigenvalues --   -0.70111  -0.69305  -0.67788  -0.67097  -0.66914
 Alpha  occ. eigenvalues --   -0.65649  -0.64990  -0.63993  -0.63597  -0.60139
 Alpha  occ. eigenvalues --   -0.54505
 Alpha virt. eigenvalues --    0.03720   0.07330   0.07867   0.08575   0.10522
 Alpha virt. eigenvalues --    0.10971   0.11274   0.12477   0.12886   0.15253
 Alpha virt. eigenvalues --    0.15817   0.19989   0.20656   0.21552   0.22173

 Mulliken charges:
               1
     1  C    2.362697
     2  C    1.394941
     3  F   -0.719473
     4  F   -0.767825
     5  F   -0.721736
     6  C    1.445323
     7  F   -0.828035
     8  F   -0.829965
     9  F   -0.707044
    10  F   -0.713672
    11  H    0.084791
 Sum of Mulliken charges =  -0.00000

 Dipole moment (field-independent basis, Debye):
    X=              0.0044    Y=              0.3649    Z=             -1.4872  Tot=              1.5313

 Test job not archived.
 1\1\GINC-SE227\SP\RHF\Aug-CC-pVDZ\C3H1F7\OHZDE\08-Apr-2025\0\\#t hf au
 g-cc-pvdz iop(5/13=1,5/36=2,99/5=2) pseudo=read geom=check guess=(read
 ,tcheck) scf=(maxcycle=1)\\title\\0,1\C,0,1.196451,0.182962,-0.060004\
 C,0,-0.187874,-0.494444,0.098058\F,0,1.316617,1.229863,0.757633\F,0,1.
 33984,0.609479,-1.329736\F,0,2.170804,-0.687952,0.208791\C,0,-1.364305
 ,0.33678,-0.449102\F,0,-0.380111,-0.770095,1.405215\F,0,-0.155814,-1.6
 60918,-0.5957\F,0,-1.400605,1.537625,0.181017\F,0,-2.511994,-0.329498,
 -0.183679\H,0,-1.274252,0.491678,-1.525572\\Version=ES64L-G16RevC.01\S

 Normal termination of Gaussian 16 at Tue Apr  8 22:42:53 2025.
