 Gaussian 16, Revision C.01,

 ----------------------------------------------------------------------
 #t hf aug-cc-pvdz symm=none int=(grid=ultrafine) guess=(read,tcheck) s
 table=(opt,rrhf)
 ----------------------------------------------------------------------
 -----
 title
 -----
 Symbolic Z-matrix:
 Charge =  0 Multiplicity = 1

 SCF Done:  E(RHF) =  -498.626962793     A.U. after   12 cycles

 1\1\GINC-SE362\Stability\RHF\Aug-CC-pVDZ\C4H11P1\OHZDE\08-Apr-2025\0\\
 #t hf aug-cc-pvdz symm=none int=(grid=ultrafine) guess=(read,tcheck) s
 table=(opt,rrhf)\\title\\0,1\P,0,-2.348068,-0.290275,-0.108809\C,0,-0.
 741296,0.669133,0.026756\C,0,3.039174,-0.405652,-0.011678\H,0,-0.73017
 7,1.285698,0.928914\H,0,-0.71599,1.350975,-0.830399\C,0,0.48606,-0.251
 226,-0.008712\C,0,1.815441,0.514342,0.018764\H,0,0.447963,-0.878294,-0
 .90781\H,0,0.451708,-0.94011,0.844616\H,0,1.851278,1.142378,0.916934\H
 ,0,1.851704,1.201225,-0.835288\H,0,3.048362,-1.022184,-0.915805\H,0,3.

 Normal termination of Gaussian 16 at Tue Apr  8 23:25:12 2025.
 Gaussian 16:  ES64L-G16RevC.01  3-Jul-2019

 ----------------------------------------------------------------------
 #t hf aug-cc-pvdz iop(5/13=1,5/36=2,99/5=2) pseudo=read geom=check gue
 ss=(read,tcheck) scf=(maxcycle=1)
 ----------------------------------------------------------------------
 -----
 title
 -----
 Structure from the checkpoint file:  "BDE49_nonexpt_1266_mol1.chk"
 Charge =  0 Multiplicity = 1

                         Standard orientation:
 ---------------------------------------------------------------------
 Center     Atomic      Atomic             Coordinates (Angstroms)
 Number     Number       Type             X           Y           Z
 ---------------------------------------------------------------------
      1         15           0       -2.348068   -0.290275   -0.108809
      2          6           0       -0.741296    0.669133    0.026756
      3          6           0        3.039174   -0.405652   -0.011678
      4          1           0       -0.730177    1.285698    0.928914
      5          1           0       -0.715990    1.350975   -0.830399
      6          6           0        0.486060   -0.251226   -0.008712
      7          6           0        1.815441    0.514342    0.018764
      8          1           0        0.447963   -0.878294   -0.907810
      9          1           0        0.451708   -0.940110    0.844616
     10          1           0        1.851278    1.142378    0.916934
     11          1           0        1.851704    1.201225   -0.835288
     12          1           0        3.048362   -1.022184   -0.915805
     13          1           0        3.047796   -1.081408    0.849165
     14          1           0        3.969293    0.168635    0.008047
     15          1           0       -3.229430    0.777029    0.209314
     16          1           0       -2.367773   -0.809400    1.213663
 ---------------------------------------------------------------------

 SCF Done:  E(RHF) =  -498.851771263     A.U. after    2 cycles

 The electronic state is 1-A.
 Alpha  occ. eigenvalues --  -84.26543 -11.24102 -11.23458 -11.23114 -11.22513
 Alpha  occ. eigenvalues --   -6.73599  -4.26214  -4.25955  -4.25270  -1.08316
 Alpha  occ. eigenvalues --   -0.99881  -0.89319  -0.80920  -0.78393  -0.65508
 Alpha  occ. eigenvalues --   -0.60047  -0.59015  -0.55784  -0.52811  -0.51713
 Alpha  occ. eigenvalues --   -0.48967  -0.47650  -0.47295  -0.43690  -0.33673
 Alpha virt. eigenvalues --    0.03802   0.03864   0.04012   0.04359   0.05855
 Alpha virt. eigenvalues --    0.06432   0.06514   0.07510   0.08739   0.09265
 Alpha virt. eigenvalues --    0.09995   0.10150   0.11458   0.13324   0.13867

 Mulliken charges:
               1
     1  P   -0.367969
     2  C   -0.591794
     3  C   -0.394003
     4  H    0.113712
     5  H    0.133345
     6  C   -0.330515
     7  C   -0.273737
     8  H    0.117217
     9  H    0.112241
    10  H    0.123879
    11  H    0.118602
    12  H    0.164602
    13  H    0.161652
    14  H    0.118523
    15  H    0.408509
    16  H    0.385734
 Sum of Mulliken charges =   0.00000

 Dipole moment (field-independent basis, Debye):
    X=              0.8077    Y=              0.6478    Z=              0.3821  Tot=              1.1036

 Test job not archived.
 1\1\GINC-SE362\SP\RHF\Aug-CC-pVDZ\C4H11P1\OHZDE\08-Apr-2025\0\\#t hf a
 ug-cc-pvdz iop(5/13=1,5/36=2,99/5=2) pseudo=read geom=check guess=(rea
 d,tcheck) scf=(maxcycle=1)\\title\\0,1\P,0,-2.348068,-0.290275,-0.1088
 09\C,0,-0.741296,0.669133,0.026756\C,0,3.039174,-0.405652,-0.011678\H,
 0,-0.730177,1.285698,0.928914\H,0,-0.71599,1.350975,-0.830399\C,0,0.48
 606,-0.251226,-0.008712\C,0,1.815441,0.514342,0.018764\H,0,0.447963,-0
 .878294,-0.90781\H,0,0.451708,-0.94011,0.844616\H,0,1.851278,1.142378,
 0.916934\H,0,1.851704,1.201225,-0.835288\H,0,3.048362,-1.022184,-0.915

 Normal termination of Gaussian 16 at Tue Apr  8 23:25:16 2025.
