 Gaussian 16, Revision C.01,

 ----------------------------------------------------------------------
 #t hf aug-cc-pvdz symm=none int=(grid=ultrafine) guess=(read,tcheck) s
 table=(opt,rrhf)
 ----------------------------------------------------------------------
 -----
 title
 -----
 Symbolic Z-matrix:
 Charge =  0 Multiplicity = 1

 SCF Done:  E(RHF) =  -948.194553166     A.U. after   17 cycles
 Normal termination of Gaussian 16 at Tue Apr  8 23:09:14 2025.
 Gaussian 16:  ES64L-G16RevC.01  3-Jul-2019

 ----------------------------------------------------------------------
 #t hf aug-cc-pvdz iop(5/13=1,5/36=2,99/5=2) pseudo=read geom=check gue
 ss=(read,tcheck) scf=(maxcycle=1)
 ----------------------------------------------------------------------
 -----
 title
 -----
 Structure from the checkpoint file:  "BDE49_expt_478_mol1.chk"
 Charge =  0 Multiplicity = 1

                         Standard orientation:
 ---------------------------------------------------------------------
 Center     Atomic      Atomic             Coordinates (Angstroms)
 Number     Number       Type             X           Y           Z
 ---------------------------------------------------------------------
      1          6           0        1.481524    1.446382   -0.000034
      2          6           0        0.223425    2.004382   -0.000009
      3          6           0       -0.954755    1.214784    0.000089
      4          6           0        1.630772    0.052603    0.000035
      5          6           0        0.521027   -0.759344    0.000131
      6          6           0       -0.761106   -0.192680    0.000168
      7          1           0        0.117493    3.083561   -0.000068
      8          7           0       -2.165149    1.821217    0.000091
      9          1           0       -2.220167    2.824449    0.000098
     10          1           0       -2.997809    1.253059    0.000214
     11          1           0        2.358204    2.081496   -0.000109
     12          1           0        0.604466   -1.835856    0.000189
     13          7           0       -1.882798   -1.123785    0.000280
     14          8           0       -3.032292   -0.661811   -0.000339
     15          8           0       -1.646831   -2.324097   -0.000312
     16         17           0        3.238889   -0.646955    0.000000
 ---------------------------------------------------------------------

 SCF Done:  E(RHF) =  -948.752019318     A.U. after    2 cycles

 The electronic state is 1-A.
 Alpha  occ. eigenvalues -- -105.58216 -20.59391 -20.59128 -15.79970 -15.54140
 Alpha  occ. eigenvalues --  -11.34885 -11.31717 -11.31496 -11.29520 -11.29234
 Alpha  occ. eigenvalues --  -11.27352 -10.62990  -7.79960  -7.79561  -7.79535
 Alpha  occ. eigenvalues --   -1.67079  -1.50554  -1.27440  -1.20087  -1.13892
 Alpha  occ. eigenvalues --   -1.09041  -1.01687  -0.98065  -0.88636  -0.86602
 Alpha  occ. eigenvalues --   -0.79839  -0.77279  -0.76419  -0.75033  -0.75003
 Alpha  occ. eigenvalues --   -0.67224  -0.66744  -0.65206  -0.60005  -0.58578
 Alpha  occ. eigenvalues --   -0.55969  -0.54703  -0.50534  -0.49156  -0.47651
 Alpha  occ. eigenvalues --   -0.47317  -0.45553  -0.39987  -0.33612
 Alpha virt. eigenvalues --    0.01631   0.02252   0.03459   0.04573   0.05833
 Alpha virt. eigenvalues --    0.07155   0.08278   0.09235   0.09512   0.10119
 Alpha virt. eigenvalues --    0.11730   0.11893   0.12130   0.13164   0.13177

 Mulliken charges:
               1
     1  C   -0.184306
     2  C    1.704665
     3  C   -2.177606
     4  C    0.096627
     5  C    0.245158
     6  C    0.210340
     7  H   -0.327502
     8  N    1.041577
     9  H   -0.012102
    10  H    0.047574
    11  H   -0.176470
    12  H   -0.130590
    13  N    3.124443
    14  O   -1.671005
    15  O   -1.451782
    16  Cl  -0.339022
 Sum of Mulliken charges =  -0.00000

 Dipole moment (field-independent basis, Debye):
    X=              0.6774    Y=              4.7869    Z=              0.0010  Tot=              4.8346

 Test job not archived.
 1\1\GINC-SE424\SP\RHF\Aug-CC-pVDZ\C6H5Cl1N2O2\OHZDE\08-Apr-2025\0\\#t
 hf aug-cc-pvdz iop(5/13=1,5/36=2,99/5=2) pseudo=read geom=check guess=
 (read,tcheck) scf=(maxcycle=1)\\title\\0,1\C,0,1.481524,1.446382,-0.00
 0034\C,0,0.223425,2.004382,-0.000009\C,0,-0.954755,1.214784,0.000089\C
 ,0,1.630772,0.052603,0.000035\C,0,0.521027,-0.759344,0.000131\C,0,-0.7
 61106,-0.19268,0.000168\H,0,0.117493,3.083561,-0.000068\N,0,-2.165149,
 1.821217,0.000091\H,0,-2.220167,2.824449,0.000098\H,0,-2.997809,1.2530
 59,0.000214\H,0,2.358204,2.081496,-0.000109\H,0,0.604466,-1.835856,0.0

 Normal termination of Gaussian 16 at Tue Apr  8 23:09:23 2025.
