 Gaussian 16, Revision C.01,

 ----------------------------------------------------------------------
 #t hf aug-cc-pvdz symm=none int=(grid=ultrafine) guess=(read,tcheck) s
 table=opt
 ----------------------------------------------------------------------
 -----
 title
 -----
 Symbolic Z-matrix:
 Charge =  0 Multiplicity = 2

 SCF Done:  E(UHF) =  -321.284334297     A.U. after   22 cycles
 Normal termination of Gaussian 16 at Tue Apr  8 23:07:08 2025.
 Gaussian 16:  ES64L-G16RevC.01  3-Jul-2019

 ----------------------------------------------------------------------
 #t hf aug-cc-pvdz iop(5/13=1,5/36=2,99/5=2) pseudo=read geom=check gue
 ss=(read,tcheck) scf=(maxcycle=1)
 ----------------------------------------------------------------------
 -----
 title
 -----
 Structure from the checkpoint file:  "BDE49_expt_428_mol2.chk"
 Charge =  0 Multiplicity = 2

                         Standard orientation:
 ---------------------------------------------------------------------
 Center     Atomic      Atomic             Coordinates (Angstroms)
 Number     Number       Type             X           Y           Z
 ---------------------------------------------------------------------
      1          6           0       -0.012361    0.114204   -0.148212
      2          7           0       -1.184714   -0.580157   -0.417603
      3          8           0        1.022864   -0.731254   -0.033264
      4          8           0        0.073157    1.324305   -0.109734
      5          6           0        2.303542   -0.110773    0.181132
      6          1           0        2.284478    0.517311    1.073318
      7          1           0        2.578063    0.500681   -0.679817
      8          1           0        3.004282   -0.932930    0.305578
      9          6           0       -2.351894   -0.119292    0.285098
     10          1           0       -2.278711    0.937040    0.565158
     11          1           0       -2.455306   -0.707580    1.211271
     12          1           0       -3.243709   -0.302660   -0.316418
 ---------------------------------------------------------------------

 SCF Done:  E(UHF) =  -321.605393698     A.U. after    2 cycles

 The electronic state is 2-A.
 Alpha  occ. eigenvalues --  -20.60005 -20.54677 -15.56068 -11.41474 -11.30342
 Alpha  occ. eigenvalues --  -11.27673  -1.55758  -1.46690  -1.26878  -1.00716
 Alpha  occ. eigenvalues --   -0.93784  -0.79164  -0.74766  -0.71680  -0.69937
 Alpha  occ. eigenvalues --   -0.65269  -0.63161  -0.61013  -0.56318  -0.54886
 Alpha  occ. eigenvalues --   -0.52169  -0.48610  -0.47417  -0.46587
 Alpha virt. eigenvalues --    0.03487   0.04323   0.05356   0.05594   0.06040
 Alpha virt. eigenvalues --    0.06620   0.08422   0.11364   0.13126   0.13420
 Alpha virt. eigenvalues --    0.13702   0.14921   0.15174   0.15948   0.16086

  Beta  occ. eigenvalues --  -20.59981 -20.54023 -15.52721 -11.41884 -11.30335
  Beta  occ. eigenvalues --  -11.27952  -1.55352  -1.45480  -1.17859  -1.00390
  Beta  occ. eigenvalues --   -0.92442  -0.78225  -0.71867  -0.69542  -0.68314
  Beta  occ. eigenvalues --   -0.62591  -0.60695  -0.58784  -0.55472  -0.54113
  Beta  occ. eigenvalues --   -0.48905  -0.45373  -0.44838
  Beta virt. eigenvalues --    0.03501   0.03747   0.04440   0.05381   0.05635
  Beta virt. eigenvalues --    0.06089   0.06641   0.08497   0.11383   0.13203
  Beta virt. eigenvalues --    0.13533   0.13762   0.14985   0.15537   0.16001

 Mulliken charges and spin densities:
               1          2
     1  C    1.170741  -0.189043
     2  N    0.530300   1.078631
     3  O   -1.257321   0.010956
     4  O   -1.000018   0.144665
     5  C    0.176205   0.001821
     6  H    0.157292   0.000643
     7  H    0.161118   0.000395
     8  H    0.004016   0.000150
     9  C   -0.399026  -0.145470
    10  H    0.145907   0.024035
    11  H    0.220157   0.058995
    12  H    0.090629   0.014223
 Sum of Mulliken charges =   0.00000   1.00000

 Dipole moment (field-independent basis, Debye):
    X=              0.2638    Y=             -0.5835    Z=              1.4461  Tot=              1.5815
                          Isotropic Fermi Contact Couplings
        Atom                 a.u.       MegaHertz       Gauss      10(-4) cm-1
     1  C(13)             -0.05924     -66.59643     -23.76326     -22.21418
     2  N(14)              0.32271     104.27059      37.20634      34.78093
     3  O(17)              0.00677      -4.10411      -1.46445      -1.36898
     4  O(17)              0.05124     -31.06137     -11.08347     -10.36096
     5  C(13)              0.00129       1.45479       0.51910       0.48527
     6  H(1)               0.00016       0.73254       0.26139       0.24435
     7  H(1)               0.00014       0.61381       0.21902       0.20474
     8  H(1)               0.00012       0.54591       0.19479       0.18209

 Normal termination of Gaussian 16 at Tue Apr  8 23:07:13 2025.
