 Gaussian 16, Revision C.01,

 ----------------------------------------------------------------------
 #t hf aug-cc-pvdz symm=none int=(grid=ultrafine) guess=(read,tcheck) s
 table=(opt,rrhf)
 ----------------------------------------------------------------------
 -----
 title
 -----
 Symbolic Z-matrix:
 Charge =  0 Multiplicity = 1

 SCF Done:  E(RHF) =  -1215.82327233     A.U. after   20 cycles
 Normal termination of Gaussian 16 at Tue Apr  8 22:54:41 2025.
 Gaussian 16:  ES64L-G16RevC.01  3-Jul-2019

 ----------------------------------------------------------------------
 #t hf aug-cc-pvdz iop(5/13=1,5/36=2,99/5=2) pseudo=read geom=check gue
 ss=(read,tcheck) scf=(maxcycle=1)
 ----------------------------------------------------------------------
 -----
 title
 -----
 Structure from the checkpoint file:  "BDE49_expt_1825_mol1.chk"
 Charge =  0 Multiplicity = 1

                         Standard orientation:
 ---------------------------------------------------------------------
 Center     Atomic      Atomic             Coordinates (Angstroms)
 Number     Number       Type             X           Y           Z
 ---------------------------------------------------------------------
      1          7           0       -2.458404   -0.699309    0.773779
      2          8           0       -1.800531   -0.428793    1.690451
      3         16           0       -1.527086   -0.815935   -0.947204
      4          6           0        0.134605   -0.526510   -0.439582
      5          6           0        1.007579   -1.619662   -0.310709
      6          6           0        2.323737   -1.446462    0.095573
      7          6           0        2.791545   -0.168842    0.398385
      8          6           0        1.944477    0.928993    0.293049
      9          6           0        0.626909    0.751573   -0.120961
     10          1           0        3.816137   -0.022325    0.719526
     11          1           0        2.295305    1.925242    0.528691
     12          1           0        0.630830   -2.608449   -0.541288
     13          1           0        2.979592   -2.304577    0.180831
     14         17           0       -0.391090    2.169178   -0.245122
 ---------------------------------------------------------------------

 SCF Done:  E(RHF) =  -1216.30287622     A.U. after    2 cycles

 The electronic state is 1-A.
 Alpha  occ. eigenvalues -- -105.58059 -93.98220 -20.66929 -15.71124 -11.33162
 Alpha  occ. eigenvalues --  -11.29640 -11.27511 -11.27429 -11.26953 -11.26502
 Alpha  occ. eigenvalues --  -10.62864  -8.26149  -7.79833  -7.79426  -7.79414
 Alpha  occ. eigenvalues --   -6.23908  -6.23745  -6.23518  -1.67818  -1.20450
 Alpha  occ. eigenvalues --   -1.11101  -1.09727  -1.02839  -1.00059  -0.93129
 Alpha  occ. eigenvalues --   -0.85855  -0.83022  -0.74574  -0.73160  -0.70978
 Alpha  occ. eigenvalues --   -0.68936  -0.67134  -0.65270  -0.61719  -0.58655
 Alpha  occ. eigenvalues --   -0.56610  -0.53893  -0.51264  -0.48976  -0.47454
 Alpha  occ. eigenvalues --   -0.41767  -0.39125  -0.36310  -0.35528
 Alpha virt. eigenvalues --    0.02976   0.03525   0.03779   0.04621   0.05176
 Alpha virt. eigenvalues --    0.06111   0.07699   0.07810   0.08938   0.09673
 Alpha virt. eigenvalues --    0.10369   0.11524   0.12427   0.12646   0.13214

 Mulliken charges:
               1
     1  N    0.692487
     2  O   -0.870291
     3  S    0.306045
     4  C    0.935122
     5  C   -0.203249
     6  C   -0.010870
     7  C    0.297299
     8  C    0.193824
     9  C   -0.203747
    10  H   -0.194098
    11  H   -0.167425
    12  H   -0.197203
    13  H   -0.201453
    14  Cl  -0.376442
 Sum of Mulliken charges =  -0.00000

 Dipole moment (field-independent basis, Debye):
    X=              3.4467    Y=             -1.0016    Z=              0.4712  Tot=              3.6201

 Test job not archived.
 1\1\GINC-SE338\SP\RHF\Aug-CC-pVDZ\C6H4Cl1N1O1S1\OHZDE\08-Apr-2025\0\\#
 t hf aug-cc-pvdz iop(5/13=1,5/36=2,99/5=2) pseudo=read geom=check gues
 s=(read,tcheck) scf=(maxcycle=1)\\title\\0,1\N,0,-2.458404,-0.699309,0
 .773779\O,0,-1.800531,-0.428793,1.690451\S,0,-1.527086,-0.815935,-0.94
 7204\C,0,0.134605,-0.52651,-0.439582\C,0,1.007579,-1.619662,-0.310709\
 C,0,2.323737,-1.446462,0.095573\C,0,2.791545,-0.168842,0.398385\C,0,1.
 944477,0.928993,0.293049\C,0,0.626909,0.751573,-0.120961\H,0,3.816137,
 -0.022325,0.719526\H,0,2.295305,1.925242,0.528691\H,0,0.63083,-2.60844

 Normal termination of Gaussian 16 at Tue Apr  8 22:54:48 2025.
