 Gaussian 16, Revision C.01,

 ----------------------------------------------------------------------
 #t hf aug-cc-pvdz symm=none int=(grid=ultrafine) guess=(read,tcheck) s
 table=(opt,rrhf)
 ----------------------------------------------------------------------
 -----
 title
 -----
 Symbolic Z-matrix:
 Charge =  0 Multiplicity = 1

 SCF Done:  E(RHF) =  -497.523427954     A.U. after   12 cycles
 Normal termination of Gaussian 16 at Tue Apr  8 22:57:34 2025.
 Gaussian 16:  ES64L-G16RevC.01  3-Jul-2019

 ----------------------------------------------------------------------
 #t hf aug-cc-pvdz iop(5/13=1,5/36=2,99/5=2) pseudo=read geom=check gue
 ss=(read,tcheck) scf=(maxcycle=1)
 ----------------------------------------------------------------------
 -----
 title
 -----
 Structure from the checkpoint file:  "BDE49_expt_1933_mol1.chk"
 Charge =  0 Multiplicity = 1

                         Standard orientation:
 ---------------------------------------------------------------------
 Center     Atomic      Atomic             Coordinates (Angstroms)
 Number     Number       Type             X           Y           Z
 ---------------------------------------------------------------------
      1         16           0        0.051548   -0.571098    0.000000
      2          9           0        0.051548    1.094082    0.000000
      3          1           0       -1.288704   -0.709166    0.000000
 ---------------------------------------------------------------------

 SCF Done:  E(RHF) =  -497.671656359     A.U. after    2 cycles

 The electronic state is 1-A'.
 Alpha  occ. eigenvalues --  -94.05109 -26.48135  -8.32357  -6.30190  -6.29902
 Alpha  occ. eigenvalues --   -6.29604  -1.58097  -1.01132  -0.69253  -0.66154
 Alpha  occ. eigenvalues --   -0.64721  -0.52809  -0.40522
 Alpha virt. eigenvalues --    0.03558   0.05029   0.10128   0.11175   0.15907
 Alpha virt. eigenvalues --    0.17686   0.19213   0.26057   0.27703   0.29190
 Alpha virt. eigenvalues --    0.29501   0.37583   0.42797   0.44734   0.46887

 Mulliken charges:
               1
     1  S    0.308904
     2  F   -0.629247
     3  H    0.320342
 Sum of Mulliken charges =  -0.00000

 Dipole moment (field-independent basis, Debye):
    X=             -1.0566    Y=             -1.4119    Z=              0.0000  Tot=              1.7635

 Test job not archived.
 1\1\GINC-SE461\SP\RHF\Aug-CC-pVDZ\F1H1S1\OHZDE\08-Apr-2025\0\\#t hf au
 g-cc-pvdz iop(5/13=1,5/36=2,99/5=2) pseudo=read geom=check guess=(read
 ,tcheck) scf=(maxcycle=1)\\title\\0,1\S,0,0.051548,-0.571098,0.\F,0,0.
 051548,1.094082,0.\H,0,-1.288704,-0.709166,0.\\Version=ES64L-G16RevC.0
 1\State=1-A'\HF=-497.6716564\RMSD=4.268e-03\Dipole=-0.4157098,-0.55548
 92,0.\Quadrupole=1.5151006,-0.1306407,-1.38446,0.8199329,0.,0.\PG=CS [
 SG(F1H1S1)]\\@

 Normal termination of Gaussian 16 at Tue Apr  8 22:57:35 2025.
