 Gaussian 16, Revision C.01,

 ----------------------------------------------------------------------
 #t hf aug-cc-pvdz symm=none int=(grid=ultrafine) guess=(read,tcheck) s
 table=(opt,rrhf)
 ----------------------------------------------------------------------
 -----
 title
 -----
 Symbolic Z-matrix:
 Charge =  0 Multiplicity = 1

 SCF Done:  E(RHF) =  -705.142571772     A.U. after   15 cycles
 Normal termination of Gaussian 16 at Tue Apr  8 23:39:14 2025.
 Gaussian 16:  ES64L-G16RevC.01  3-Jul-2019

 ----------------------------------------------------------------------
 #t hf aug-cc-pvdz iop(5/13=1,5/36=2,99/5=2) pseudo=read geom=check gue
 ss=(read,tcheck) scf=(maxcycle=1)
 ----------------------------------------------------------------------
 -----
 title
 -----
 Structure from the checkpoint file:  "BDE49_nonexpt_1535_mol1.chk"
 Charge =  0 Multiplicity = 1

                         Standard orientation:
 ---------------------------------------------------------------------
 Center     Atomic      Atomic             Coordinates (Angstroms)
 Number     Number       Type             X           Y           Z
 ---------------------------------------------------------------------
      1          7           0       -1.674780   -0.006783    0.207379
      2          6           0        0.747564   -0.288822   -0.323025
      3          6           0        1.080568    1.057282   -0.142318
      4          6           0        1.763181   -1.245390   -0.266088
      5          6           0        3.087104   -0.868738   -0.043957
      6          6           0        3.409266    0.474260    0.131312
      7          6           0        2.400444    1.436197    0.083748
      8          1           0        4.437261    0.770168    0.308094
      9          1           0        2.643860    2.484006    0.222132
     10          1           0        0.292729    1.801390   -0.169538
     11          1           0        1.516720   -2.294944   -0.395112
     12          1           0        3.863400   -1.624777   -0.001483
     13         15           0       -3.176483    0.349902   -0.544254
     14          6           0       -1.651075   -0.395253    1.615655
     15          1           0       -0.624510   -0.373669    1.990420
     16          1           0       -2.059193   -1.406141    1.776926
     17          1           0       -2.242009    0.308382    2.204511
     18          6           0       -0.684584   -0.700594   -0.622155
     19          1           0       -0.910275   -0.468654   -1.668362
     20          1           0       -0.768448   -1.794515   -0.519339
     21          1           0       -3.659192    1.276272    0.417274
     22          1           0       -4.034446   -0.692223   -0.052391
 ---------------------------------------------------------------------

 SCF Done:  E(RHF) =  -705.567697986     A.U. after    2 cycles

 The electronic state is 1-A.
 Alpha  occ. eigenvalues --  -84.29035 -15.49775 -11.27337 -11.26023 -11.24577
 Alpha  occ. eigenvalues --  -11.24315 -11.24244 -11.24061 -11.24041 -11.23682
 Alpha  occ. eigenvalues --   -6.75744  -4.28812  -4.27970  -4.27718  -1.22075
 Alpha  occ. eigenvalues --   -1.15207  -1.03849  -1.01493  -0.95814  -0.91514
 Alpha  occ. eigenvalues --   -0.83773  -0.82365  -0.78544  -0.71162  -0.66673
 Alpha  occ. eigenvalues --   -0.65109  -0.64361  -0.62263  -0.61894  -0.59624
 Alpha  occ. eigenvalues --   -0.57120  -0.54811  -0.53275  -0.51284  -0.50246
 Alpha  occ. eigenvalues --   -0.49891  -0.48974  -0.39747  -0.34908  -0.34507
 Alpha  occ. eigenvalues --   -0.33824
 Alpha virt. eigenvalues --    0.03453   0.03617   0.03739   0.04884   0.05019
 Alpha virt. eigenvalues --    0.05206   0.05807   0.06597   0.06780   0.07230
 Alpha virt. eigenvalues --    0.07774   0.09534   0.10222   0.10520   0.11026

 Mulliken charges:
               1
     1  N    0.813051
     2  C    1.796680
     3  C    0.088289
     4  C    0.230495
     5  C    0.132910
     6  C    0.156210
     7  C   -0.213093
     8  H   -0.221318
     9  H   -0.248697
    10  H   -0.322914
    11  H   -0.317143
    12  H   -0.239562
    13  P   -0.465862
    14  C   -0.413703
    15  H    0.086686
    16  H    0.145231
    17  H    0.050019
    18  C   -1.581571
    19  H    0.058921
    20  H   -0.025663
    21  H    0.201288
    22  H    0.289746
 Sum of Mulliken charges =  -0.00000

 Dipole moment (field-independent basis, Debye):
    X=              0.1971    Y=             -0.6733    Z=              0.7139  Tot=              1.0009

 Test job not archived.
 1\1\GINC-SE227\SP\RHF\Aug-CC-pVDZ\C8H12N1P1\OHZDE\08-Apr-2025\0\\#t hf
  aug-cc-pvdz iop(5/13=1,5/36=2,99/5=2) pseudo=read geom=check guess=(r
 ead,tcheck) scf=(maxcycle=1)\\title\\0,1\N,0,-1.67478,-0.006783,0.2073
 79\C,0,0.747564,-0.288822,-0.323025\C,0,1.080568,1.057282,-0.142318\C,
 0,1.763181,-1.24539,-0.266088\C,0,3.087104,-0.868738,-0.043957\C,0,3.4
 09266,0.47426,0.131312\C,0,2.400444,1.436197,0.083748\H,0,4.437261,0.7
 70168,0.308094\H,0,2.64386,2.484006,0.222132\H,0,0.292729,1.80139,-0.1
 69538\H,0,1.51672,-2.294944,-0.395112\H,0,3.8634,-1.624777,-0.001483\P

 Normal termination of Gaussian 16 at Tue Apr  8 23:39:28 2025.
