 Gaussian 16, Revision C.01,

 ----------------------------------------------------------------------
 #t hf aug-cc-pvdz symm=none int=(grid=ultrafine) guess=(read,tcheck) s
 table=(opt,rrhf)
 ----------------------------------------------------------------------
 -----
 title
 -----
 Symbolic Z-matrix:
 Charge =  0 Multiplicity = 1

 SCF Done:  E(RHF) =  -735.904464456     A.U. after   12 cycles
 Normal termination of Gaussian 16 at Tue Apr  8 22:39:25 2025.
 Gaussian 16:  ES64L-G16RevC.01  3-Jul-2019

 ----------------------------------------------------------------------
 #t hf aug-cc-pvdz iop(5/13=1,5/36=2,99/5=2) pseudo=read geom=check gue
 ss=(read,tcheck) scf=(maxcycle=1)
 ----------------------------------------------------------------------
 -----
 title
 -----
 Structure from the checkpoint file:  "BDE49_expt_129_mol1.chk"
 Charge =  0 Multiplicity = 1

                         Standard orientation:
 ---------------------------------------------------------------------
 Center     Atomic      Atomic             Coordinates (Angstroms)
 Number     Number       Type             X           Y           Z
 ---------------------------------------------------------------------
      1          6           0       -0.357411    0.005640    0.000000
      2          6           0       -0.818638    1.438155    0.000000
      3          9           0       -0.818638   -0.653639    1.087666
      4         17           0        1.447318   -0.131400    0.000000
      5          9           0       -0.818638   -0.653639   -1.087666
      6          1           0       -0.451028    1.946672    0.890162
      7          1           0       -1.910576    1.443185    0.000000
      8          1           0       -0.451028    1.946672   -0.890162
 ---------------------------------------------------------------------

 SCF Done:  E(RHF) =  -736.242823211     A.U. after    2 cycles

 The electronic state is 1-A'.
 Alpha  occ. eigenvalues -- -105.58466 -26.50425 -26.50422 -11.49772 -11.27331
 Alpha  occ. eigenvalues --  -10.63351  -7.80286  -7.79880  -7.79879  -1.67882
 Alpha  occ. eigenvalues --   -1.60634  -1.12591  -1.03604  -0.88502  -0.78244
 Alpha  occ. eigenvalues --   -0.75454  -0.75018  -0.67044  -0.63509  -0.63072
 Alpha  occ. eigenvalues --   -0.59286  -0.58694  -0.53325  -0.48569  -0.48211
 Alpha virt. eigenvalues --    0.03487   0.05381   0.05398   0.08057   0.09470
 Alpha virt. eigenvalues --    0.11898   0.12293   0.13043   0.14364   0.15260
 Alpha virt. eigenvalues --    0.16240   0.17844   0.18079   0.19899   0.23124

 Mulliken charges:
               1
     1  C    1.370448
     2  C   -0.406881
     3  F   -0.722050
     4  Cl  -0.133853
     5  F   -0.722050
     6  H    0.208413
     7  H    0.197560
     8  H    0.208413
 Sum of Mulliken charges =  -0.00000

 Dipole moment (field-independent basis, Debye):
    X=             -0.8519    Y=              2.1948    Z=              0.0000  Tot=              2.3543

 Test job not archived.
 1\1\GINC-SE364\SP\RHF\Aug-CC-pVDZ\C2H3Cl1F2\OHZDE\08-Apr-2025\0\\#t hf
  aug-cc-pvdz iop(5/13=1,5/36=2,99/5=2) pseudo=read geom=check guess=(r
 ead,tcheck) scf=(maxcycle=1)\\title\\0,1\C,0,-0.357411,0.00564,0.\C,0,
 -0.818638,1.438155,0.\F,0,-0.818638,-0.653639,1.087666\Cl,0,1.447318,-
 0.1314,0.\F,0,-0.818638,-0.653639,-1.087666\H,0,-0.451028,1.946672,0.8
 90162\H,0,-1.910576,1.443185,0.\H,0,-0.451028,1.946672,-0.890162\\Vers
 ion=ES64L-G16RevC.01\State=1-A'\HF=-736.2428232\RMSD=6.096e-03\Dipole=
 -0.3351826,0.8634999,0.\Quadrupole=0.1021469,1.1065544,-1.2087012,-1.4

 Normal termination of Gaussian 16 at Tue Apr  8 22:39:28 2025.
