 Gaussian 16, Revision C.01,

 ----------------------------------------------------------------------
 #t hf aug-cc-pvdz symm=none int=(grid=ultrafine) guess=(read,tcheck) s
 table=(opt,rrhf)
 ----------------------------------------------------------------------
 -----
 title
 -----
 Symbolic Z-matrix:
 Charge =  0 Multiplicity = 1

 SCF Done:  E(RHF) =  -624.033245560     A.U. after   13 cycles
 Normal termination of Gaussian 16 at Tue Apr  8 23:38:16 2025.
 Gaussian 16:  ES64L-G16RevC.01  3-Jul-2019

 ----------------------------------------------------------------------
 #t hf aug-cc-pvdz iop(5/13=1,5/36=2,99/5=2) pseudo=read geom=check gue
 ss=(read,tcheck) scf=(maxcycle=1)
 ----------------------------------------------------------------------
 -----
 title
 -----
 Structure from the checkpoint file:  "BDE49_nonexpt_1562_mol1.chk"
 Charge =  0 Multiplicity = 1

                         Standard orientation:
 ---------------------------------------------------------------------
 Center     Atomic      Atomic             Coordinates (Angstroms)
 Number     Number       Type             X           Y           Z
 ---------------------------------------------------------------------
      1          6           0        1.391852   -0.014692    0.600959
      2          7           0       -1.283331   -0.134303   -0.250247
      3          8           0       -1.274406    1.178769   -0.781461
      4          8           0       -1.518930   -0.030182    1.158649
      5          6           0        2.450566    0.659462    0.147543
      6          1           0        3.110765    1.207503    0.813730
      7          1           0        2.702888    0.678218   -0.908975
      8          1           0       -2.480929   -0.089513    1.216991
      9          1           0       -0.581894    1.663726   -0.298820
     10         15           0        0.290932   -0.902781   -0.566530
     11          1           0        1.154640   -0.017719    1.660819
     12          1           0        0.006059   -2.017688    0.257422
 ---------------------------------------------------------------------

 SCF Done:  E(RHF) =  -624.361652868     A.U. after    2 cycles

 The electronic state is 1-A.
 Alpha  occ. eigenvalues --  -84.30530 -20.59380 -20.59072 -15.61113 -11.27004
 Alpha  occ. eigenvalues --  -11.25777  -6.77333  -4.30157  -4.29751  -4.29150
 Alpha  occ. eigenvalues --   -1.53922  -1.44250  -1.08499  -1.04743  -0.86865
 Alpha  occ. eigenvalues --   -0.77372  -0.75356  -0.67420  -0.66758  -0.64785
 Alpha  occ. eigenvalues --   -0.62561  -0.58281  -0.51052  -0.49660  -0.47897
 Alpha  occ. eigenvalues --   -0.44083  -0.40838  -0.35756
 Alpha virt. eigenvalues --    0.03504   0.04309   0.04902   0.05826   0.06401
 Alpha virt. eigenvalues --    0.06796   0.08369   0.08982   0.09351   0.11822
 Alpha virt. eigenvalues --    0.13800   0.14097   0.15613   0.16105   0.16771

 Mulliken charges:
               1
     1  C    0.063614
     2  N    1.282926
     3  O   -1.167692
     4  O   -1.184786
     5  C   -0.174689
     6  H   -0.049949
     7  H   -0.026971
     8  H    0.348798
     9  H    0.370760
    10  P    0.358038
    11  H   -0.216514
    12  H    0.396464
 Sum of Mulliken charges =   0.00000

 Dipole moment (field-independent basis, Debye):
    X=              1.6752    Y=              0.3233    Z=              1.6411  Tot=              2.3673

 Test job not archived.
 1\1\GINC-SE128\SP\RHF\Aug-CC-pVDZ\C2H6N1O2P1\OHZDE\08-Apr-2025\0\\#t h
 f aug-cc-pvdz iop(5/13=1,5/36=2,99/5=2) pseudo=read geom=check guess=(
 read,tcheck) scf=(maxcycle=1)\\title\\0,1\C,0,1.391852,-0.014692,0.600
 959\N,0,-1.283331,-0.134303,-0.250247\O,0,-1.274406,1.178769,-0.781461
 \O,0,-1.51893,-0.030182,1.158649\C,0,2.450566,0.659462,0.147543\H,0,3.
 110765,1.207503,0.81373\H,0,2.702888,0.678218,-0.908975\H,0,-2.480929,
 -0.089513,1.216991\H,0,-0.581894,1.663726,-0.29882\P,0,0.290932,-0.902
 781,-0.56653\H,0,1.15464,-0.017719,1.660819\H,0,0.006059,-2.017688,0.2

 Normal termination of Gaussian 16 at Tue Apr  8 23:38:21 2025.
