 Gaussian 16, Revision C.01,

 ----------------------------------------------------------------------
 #t hf aug-cc-pvdz symm=none int=(grid=ultrafine) guess=(read,tcheck) s
 table=opt
 ----------------------------------------------------------------------
 -----
 title
 -----
 Symbolic Z-matrix:
 Charge =  0 Multiplicity = 2

 SCF Done:  E(UHF) =  -562.742457714     A.U. after   15 cycles
 Normal termination of Gaussian 16 at Wed Apr  9 00:01:59 2025.
 Gaussian 16:  ES64L-G16RevC.01  3-Jul-2019

 ----------------------------------------------------------------------
 #t hf aug-cc-pvdz iop(5/13=1,5/36=2,99/5=2) pseudo=read geom=check gue
 ss=(read,tcheck) scf=(maxcycle=1)
 ----------------------------------------------------------------------
 -----
 title
 -----
 Structure from the checkpoint file:  "BDE49_nonexpt_2088_mol2.chk"
 Charge =  0 Multiplicity = 2

                         Standard orientation:
 ---------------------------------------------------------------------
 Center     Atomic      Atomic             Coordinates (Angstroms)
 Number     Number       Type             X           Y           Z
 ---------------------------------------------------------------------
      1          6           0        0.901894    1.382272   -0.133799
      2          6           0        2.286856    0.975750    0.390208
      3          6           0        2.714835   -0.395048   -0.150897
      4          6           0        1.654898   -1.465101    0.144113
      5          6           0        0.272143   -1.050754   -0.378744
      6          6           0       -1.548834    0.745178   -0.382484
      7          6           0       -0.173378    0.319081    0.165269
      8         14           0       -3.031040   -0.313071    0.147162
      9          1           0        0.953939    1.533972   -1.220702
     10          1           0        0.601768    2.342736    0.299358
     11          1           0        2.260805    0.938605    1.487017
     12          1           0        3.026511    1.737767    0.123733
     13          1           0        3.679042   -0.688103    0.276953
     14          1           0        2.863663   -0.324215   -1.236279
     15          1           0        1.596803   -1.626450    1.228312
     16          1           0        1.949345   -2.423207   -0.296205
     17          1           0       -0.470160   -1.815940   -0.123907
     18          1           0        0.298052   -1.001604   -1.476211
     19          1           0       -1.519956    0.781106   -1.478608
     20          1           0       -1.775813    1.769705   -0.054510
     21          1           0       -0.251388    0.232875    1.259116
     22          1           0       -4.296891    0.244674   -0.401573
     23          1           0       -3.131649   -0.387190    1.631234
 ---------------------------------------------------------------------

 SCF Done:  E(UHF) =  -563.073802176     A.U. after    2 cycles

 The electronic state is 2-A.
 Alpha  occ. eigenvalues --  -69.52753 -11.23599 -11.22508 -11.22474 -11.22439
 Alpha  occ. eigenvalues --  -11.22411 -11.22386 -11.22368  -6.19879  -3.95840
 Alpha  occ. eigenvalues --   -3.94937  -3.94916  -1.12395  -1.03363  -1.00269
 Alpha  occ. eigenvalues --   -0.92404  -0.83638  -0.81050  -0.75763  -0.71183
 Alpha  occ. eigenvalues --   -0.65374  -0.61815  -0.61106  -0.60198  -0.56601
 Alpha  occ. eigenvalues --   -0.54473  -0.53438  -0.51774  -0.49048  -0.48641
 Alpha  occ. eigenvalues --   -0.47960  -0.46245  -0.45576  -0.43625  -0.42460
 Alpha  occ. eigenvalues --   -0.32203
 Alpha virt. eigenvalues --    0.03209   0.03355   0.03493   0.03896   0.05023
 Alpha virt. eigenvalues --    0.05544   0.05659   0.06114   0.06233   0.08014
 Alpha virt. eigenvalues --    0.08433   0.08655   0.09267   0.09441   0.10003

  Beta  occ. eigenvalues --  -69.52198 -11.23607 -11.22488 -11.22472 -11.22439
  Beta  occ. eigenvalues --  -11.22408 -11.22382 -11.22319  -6.19040  -3.94557
  Beta  occ. eigenvalues --   -3.94539  -3.93681  -1.12360  -1.03239  -1.00241
  Beta  occ. eigenvalues --   -0.92000  -0.83584  -0.80788  -0.75738  -0.67285
  Beta  occ. eigenvalues --   -0.65304  -0.61536  -0.61008  -0.59937  -0.56226
  Beta  occ. eigenvalues --   -0.54302  -0.53381  -0.51498  -0.49027  -0.48405
  Beta  occ. eigenvalues --   -0.47277  -0.45966  -0.45465  -0.43553  -0.41831
  Beta virt. eigenvalues --    0.02794   0.03229   0.03530   0.03820   0.04452
  Beta virt. eigenvalues --    0.05121   0.05595   0.05957   0.06254   0.06883
  Beta virt. eigenvalues --    0.08137   0.08681   0.08932   0.09418   0.09893

 Mulliken charges and spin densities:
               1          2
     1  C   -0.040858   0.008272
     2  C   -0.258336  -0.001773
     3  C   -0.244770  -0.000323
     4  C   -0.246344  -0.008327
     5  C   -0.059951  -0.020341
     6  C   -0.623922   0.024721
     7  C   -0.535894  -0.009454
     8  Si   0.477820   1.001156
     9  H    0.184191  -0.000864
    10  H    0.082974  -0.000132
    11  H    0.162870  -0.000093
    12  H    0.107741  -0.000137
    13  H    0.100259   0.000176
    14  H    0.150753  -0.000061
    15  H    0.163193  -0.001472
    16  H    0.105677  -0.000952
    17  H    0.099997   0.004367
    18  H    0.163016  -0.000707
    19  H    0.161231   0.000939
    20  H    0.147088   0.001821
    21  H    0.132793  -0.006503
    22  H   -0.122681   0.014867
    23  H   -0.106847  -0.005183
 Sum of Mulliken charges =  -0.00000   1.00000

 Dipole moment (field-independent basis, Debye):
    X=              0.9420    Y=              0.4596    Z=             -0.1798  Tot=              1.0635
                          Isotropic Fermi Contact Couplings
        Atom                 a.u.       MegaHertz       Gauss      10(-4) cm-1
     1  C(13)              0.00090       1.00859       0.35989       0.33643
     2  C(13)             -0.00015      -0.16536      -0.05901      -0.05516
     3  C(13)              0.00044       0.49587       0.17694       0.16540
     4  C(13)             -0.00033      -0.37470      -0.13370      -0.12499
     5  C(13)              0.00284       3.19242       1.13913       1.06488
     6  C(13)              0.00636       7.14569       2.54976       2.38355
     7  C(13)             -0.00154      -1.73323      -0.61846      -0.57814
     8  Si(29)             0.56023    -497.88795    -177.65880    -166.07754

 Normal termination of Gaussian 16 at Wed Apr  9 00:02:13 2025.
