 Gaussian 16, Revision C.01,

 ----------------------------------------------------------------------
 #t hf aug-cc-pvdz symm=none int=(grid=ultrafine) guess=(read,tcheck) s
 table=(opt,rrhf)
 ----------------------------------------------------------------------
 -----
 title
 -----
 Symbolic Z-matrix:
 Charge =  0 Multiplicity = 1

 SCF Done:  E(RHF) =  -772.400578017     A.U. after   12 cycles
 Normal termination of Gaussian 16 at Tue Apr  8 22:50:34 2025.
 Gaussian 16:  ES64L-G16RevC.01  3-Jul-2019

 ----------------------------------------------------------------------
 #t hf aug-cc-pvdz iop(5/13=1,5/36=2,99/5=2) pseudo=read geom=check gue
 ss=(read,tcheck) scf=(maxcycle=1)
 ----------------------------------------------------------------------
 -----
 title
 -----
 Structure from the checkpoint file:  "BDE49_expt_1668_mol1.chk"
 Charge =  0 Multiplicity = 1

                         Standard orientation:
 ---------------------------------------------------------------------
 Center     Atomic      Atomic             Coordinates (Angstroms)
 Number     Number       Type             X           Y           Z
 ---------------------------------------------------------------------
      1          6           0        2.523090   -0.350406    0.399227
      2          6           0        1.184682   -0.812304   -0.168962
      3          6           0       -0.039480   -0.030691    0.316833
      4          1           0        1.072862   -1.867608    0.114768
      5          1           0        1.238963   -0.789170   -1.263066
      6          6           0        3.688328   -1.252123    0.022301
      7          1           0        3.515045   -2.256974    0.421205
      8          1           0        4.627181   -0.876910    0.431653
      9          1           0        3.789205   -1.324918   -1.062986
     10         17           0        2.898161    1.362599   -0.177174
     11          1           0        2.457974   -0.242514    1.483109
     12          6           0       -1.356728   -0.572025   -0.250866
     13          1           0        0.070977    1.022895    0.042546
     14          1           0       -0.076331   -0.062760    1.413396
     15          6           0       -2.590284    0.200156    0.230019
     16          1           0       -1.464692   -1.630427    0.020222
     17          1           0       -1.316591   -0.541612   -1.347220
     18          6           0       -3.909825   -0.334824   -0.337947
     19          1           0       -2.482969    1.258186   -0.041159
     20          1           0       -2.631578    0.171024    1.326640
     21          6           0       -5.136847    0.442114    0.147655
     22          1           0       -4.016726   -1.392330   -0.067189
     23          1           0       -3.868886   -0.304791   -1.433503
     24          1           0       -5.224964    0.401189    1.237859
     25          1           0       -6.060013    0.036478   -0.275149
     26          1           0       -5.075815    1.496669   -0.138729
 ---------------------------------------------------------------------

 SCF Done:  E(RHF) =  -772.828236496     A.U. after    2 cycles

 The electronic state is 1-A.
 Alpha  occ. eigenvalues -- -105.54188 -11.30785 -11.24227 -11.24131 -11.22919
 Alpha  occ. eigenvalues --  -11.22781 -11.22655 -11.22495 -11.22197 -10.58993
 Alpha  occ. eigenvalues --   -7.75917  -7.75582  -7.75571  -1.13187  -1.08534
 Alpha  occ. eigenvalues --   -1.03491  -0.98669  -0.96315  -0.89037  -0.81982
 Alpha  occ. eigenvalues --   -0.79489  -0.78895  -0.66937  -0.64581  -0.62324
 Alpha  occ. eigenvalues --   -0.61040  -0.59958  -0.58793  -0.56502  -0.55704
 Alpha  occ. eigenvalues --   -0.52708  -0.52603  -0.51796  -0.49723  -0.48921
 Alpha  occ. eigenvalues --   -0.47711  -0.47149  -0.46758  -0.45730  -0.43286
 Alpha  occ. eigenvalues --   -0.43239
 Alpha virt. eigenvalues --    0.03084   0.03231   0.03484   0.04181   0.04703
 Alpha virt. eigenvalues --    0.04913   0.05388   0.06446   0.07058   0.07357
 Alpha virt. eigenvalues --    0.07615   0.08752   0.09718   0.10444   0.10480

 Mulliken charges:
               1
     1  C   -0.456433
     2  C   -0.323363
     3  C   -0.152181
     4  H    0.179651
     5  H    0.126876
     6  C   -0.223568
     7  H    0.198953
     8  H    0.133677
     9  H    0.223518
    10  Cl  -0.141911
    11  H    0.156494
    12  C   -0.227867
    13  H    0.153088
    14  H    0.112158
    15  C   -0.278638
    16  H    0.105104
    17  H    0.115631
    18  C   -0.189926
    19  H    0.110514
    20  H    0.109641
    21  C   -0.402381
    22  H    0.117650
    23  H    0.117081
    24  H    0.161335
    25  H    0.112677
    26  H    0.162222
 Sum of Mulliken charges =  -0.00000

 Dipole moment (field-independent basis, Debye):
    X=             -0.7200    Y=             -2.3511    Z=              0.6208  Tot=              2.5361

 Test job not archived.
 1\1\GINC-SE195\SP\RHF\Aug-CC-pVDZ\C8H17Cl1\OHZDE\08-Apr-2025\0\\#t hf
 aug-cc-pvdz iop(5/13=1,5/36=2,99/5=2) pseudo=read geom=check guess=(re
 ad,tcheck) scf=(maxcycle=1)\\title\\0,1\C,0,2.52309,-0.350406,0.399227
 \C,0,1.184682,-0.812304,-0.168962\C,0,-0.03948,-0.030691,0.316833\H,0,
 1.072862,-1.867608,0.114768\H,0,1.238963,-0.78917,-1.263066\C,0,3.6883
 28,-1.252123,0.022301\H,0,3.515045,-2.256974,0.421205\H,0,4.627181,-0.
 87691,0.431653\H,0,3.789205,-1.324918,-1.062986\Cl,0,2.898161,1.362599
 ,-0.177174\H,0,2.457974,-0.242514,1.483109\C,0,-1.356728,-0.572025,-0.

 Normal termination of Gaussian 16 at Tue Apr  8 22:50:51 2025.
