 Gaussian 16, Revision C.01,

 ----------------------------------------------------------------------
 #t hf aug-cc-pvdz symm=none int=(grid=ultrafine) guess=(read,tcheck) s
 table=(opt,rrhf)
 ----------------------------------------------------------------------
 -----
 title
 -----
 Symbolic Z-matrix:
 Charge =  0 Multiplicity = 1

 SCF Done:  E(RHF) =  -576.063014661     A.U. after   14 cycles
 Normal termination of Gaussian 16 at Wed Apr  9 00:01:04 2025.
 Gaussian 16:  ES64L-G16RevC.01  3-Jul-2019

 ----------------------------------------------------------------------
 #t hf aug-cc-pvdz iop(5/13=1,5/36=2,99/5=2) pseudo=read geom=check gue
 ss=(read,tcheck) scf=(maxcycle=1)
 ----------------------------------------------------------------------
 -----
 title
 -----
 Structure from the checkpoint file:  "BDE49_nonexpt_2116_mol1.chk"
 Charge =  0 Multiplicity = 1

                         Standard orientation:
 ---------------------------------------------------------------------
 Center     Atomic      Atomic             Coordinates (Angstroms)
 Number     Number       Type             X           Y           Z
 ---------------------------------------------------------------------
      1          6           0       -0.939851   -0.127232    0.000012
      2          7           0        2.245411    0.288666   -0.000021
      3          8           0        2.309882   -0.924164   -0.000017
      4          6           0       -2.229962    0.721867    0.000020
      5          1           0       -2.300703    1.361650   -0.885177
      6          1           0       -2.300679    1.361671    0.885203
      7          6           0       -0.900126   -1.013616    1.263329
      8          1           0       -0.927252   -0.417511    2.180780
      9          1           0       -0.003804   -1.637806    1.287885
     10          1           0       -1.771459   -1.679377    1.279624
     11          1           0       -3.108169    0.064518    0.000039
     12          6           0       -0.900161   -1.013648   -1.263284
     13          1           0       -1.771494   -1.679409   -1.279538
     14          1           0       -0.003839   -1.637837   -1.287850
     15          1           0       -0.927314   -0.417565   -2.180749
     16         14           0        0.539814    1.058689   -0.000022
     17          1           0        0.590500    1.914247    1.210057
     18          1           0        0.590484    1.914197   -1.210138
 ---------------------------------------------------------------------

 SCF Done:  E(RHF) =  -576.391325941     A.U. after    2 cycles

 The electronic state is 1-A.
 Alpha  occ. eigenvalues --  -69.55463 -20.61772 -15.61020 -11.24927 -11.24288
 Alpha  occ. eigenvalues --  -11.23644 -11.23628  -6.22503  -3.97847  -3.97785
 Alpha  occ. eigenvalues --   -3.97748  -1.57362  -1.10026  -0.98173  -0.94706
 Alpha  occ. eigenvalues --   -0.94420  -0.80098  -0.74350  -0.67426  -0.66098
 Alpha  occ. eigenvalues --   -0.61880  -0.61526  -0.59976  -0.59641  -0.55765
 Alpha  occ. eigenvalues --   -0.55591  -0.53449  -0.50108  -0.49035  -0.48554
 Alpha  occ. eigenvalues --   -0.43391  -0.38093
 Alpha virt. eigenvalues --    0.03283   0.03854   0.04067   0.04255   0.05712
 Alpha virt. eigenvalues --    0.05983   0.06053   0.06464   0.06925   0.07281
 Alpha virt. eigenvalues --    0.09470   0.09619   0.09770   0.09848   0.11576

 Mulliken charges:
               1
     1  C   -2.267109
     2  N    0.679926
     3  O   -0.970174
     4  C    0.107580
     5  H    0.158296
     6  H    0.158294
     7  C    0.135048
     8  H    0.141193
     9  H    0.157870
    10  H    0.205163
    11  H    0.210424
    12  C    0.135050
    13  H    0.205162
    14  H    0.157869
    15  H    0.141193
    16  Si   0.749077
    17  H   -0.052431
    18  H   -0.052432
 Sum of Mulliken charges =  -0.00000

 Dipole moment (field-independent basis, Debye):
    X=             -3.1302    Y=              0.3407    Z=              0.0000  Tot=              3.1487

 Test job not archived.
 1\1\GINC-SE362\SP\RHF\Aug-CC-pVDZ\C4H11N1O1Si1\OHZDE\09-Apr-2025\0\\#t
  hf aug-cc-pvdz iop(5/13=1,5/36=2,99/5=2) pseudo=read geom=check guess
 =(read,tcheck) scf=(maxcycle=1)\\title\\0,1\C,0,-0.939851,-0.127232,0.
 000012\N,0,2.245411,0.288666,-0.000021\O,0,2.309882,-0.924164,-0.00001
 7\C,0,-2.229962,0.721867,0.00002\H,0,-2.300703,1.36165,-0.885177\H,0,-
 2.300679,1.361671,0.885203\C,0,-0.900126,-1.013616,1.263329\H,0,-0.927
 252,-0.417511,2.18078\H,0,-0.003804,-1.637806,1.287885\H,0,-1.771459,-
 1.679377,1.279624\H,0,-3.108169,0.064518,0.000039\C,0,-0.900161,-1.013

 Normal termination of Gaussian 16 at Wed Apr  9 00:01:11 2025.
