 Gaussian 16, Revision C.01,

 ----------------------------------------------------------------------
 #t hf aug-cc-pvdz symm=none int=(grid=ultrafine) guess=(read,tcheck) s
 table=(opt,rrhf)
 ----------------------------------------------------------------------
 -----
 title
 -----
 Symbolic Z-matrix:
 Charge =  0 Multiplicity = 1

 SCF Done:  E(RHF) =  -990.248319769     A.U. after   13 cycles

 1\1\GINC-SE186\Stability\RHF\Aug-CC-pVDZ\C5H10S2\OHZDE\08-Apr-2025\0\\
 #t hf aug-cc-pvdz symm=none int=(grid=ultrafine) guess=(read,tcheck) s
 table=(opt,rrhf)\\title\\0,1\S,0,0.24843,1.510373,0.006939\C,0,1.84607
 6,0.655027,-0.258562\C,0,1.747864,-0.72878,0.368305\H,0,2.617229,1.262
 254,0.222431\H,0,2.0595,0.584133,-1.325867\S,0,0.203111,-1.484749,-0.2
 38147\H,0,1.745659,-0.672449,1.458508\H,0,2.567458,-1.377769,0.049914\
 C,0,-0.872166,0.005209,0.025583\C,0,-1.584872,-0.057071,1.381828\H,0,-
 0.873284,-0.172513,2.199568\H,0,-2.280768,-0.900637,1.40373\H,0,-2.153

 Normal termination of Gaussian 16 at Tue Apr  8 23:05:32 2025.
 Gaussian 16:  ES64L-G16RevC.01  3-Jul-2019

 ----------------------------------------------------------------------
 #t hf aug-cc-pvdz iop(5/13=1,5/36=2,99/5=2) pseudo=read geom=check gue
 ss=(read,tcheck) scf=(maxcycle=1)
 ----------------------------------------------------------------------
 -----
 title
 -----
 Structure from the checkpoint file:  "BDE49_expt_379_mol1.chk"
 Charge =  0 Multiplicity = 1

                         Standard orientation:
 ---------------------------------------------------------------------
 Center     Atomic      Atomic             Coordinates (Angstroms)
 Number     Number       Type             X           Y           Z
 ---------------------------------------------------------------------
      1         16           0        0.248430    1.510373    0.006939
      2          6           0        1.846076    0.655027   -0.258562
      3          6           0        1.747864   -0.728780    0.368305
      4          1           0        2.617229    1.262253    0.222431
      5          1           0        2.059500    0.584133   -1.325867
      6         16           0        0.203111   -1.484749   -0.238147
      7          1           0        1.745659   -0.672449    1.458508
      8          1           0        2.567458   -1.377770    0.049914
      9          6           0       -0.872166    0.005209    0.025583
     10          6           0       -1.584872   -0.057071    1.381828
     11          1           0       -0.873284   -0.172513    2.199568
     12          1           0       -2.280768   -0.900636    1.403730
     13          1           0       -2.153613    0.862148    1.555048
     14          6           0       -1.883064    0.078130   -1.124656
     15          1           0       -1.379247    0.166919   -2.086608
     16          1           0       -2.540466    0.942130   -0.994252
     17          1           0       -2.510147   -0.819289   -1.138126
 ---------------------------------------------------------------------

 SCF Done:  E(RHF) =  -990.581227846     A.U. after    2 cycles

 The electronic state is 1-A.
 Alpha  occ. eigenvalues --  -93.94527 -93.94201 -11.31093 -11.27911 -11.27723
 Alpha  occ. eigenvalues --  -11.23696 -11.23581  -8.22618  -8.22279  -6.20421
 Alpha  occ. eigenvalues --   -6.20287  -6.20085  -6.20063  -6.19947  -6.19729
 Alpha  occ. eigenvalues --   -1.15594  -1.06717  -1.00366  -0.94772  -0.91595
 Alpha  occ. eigenvalues --   -0.81474  -0.73912  -0.66238  -0.63265  -0.60460
 Alpha  occ. eigenvalues --   -0.60220  -0.58888  -0.56272  -0.55028  -0.51247
 Alpha  occ. eigenvalues --   -0.48721  -0.47397  -0.47055  -0.41569  -0.35425
 Alpha  occ. eigenvalues --   -0.35067
 Alpha virt. eigenvalues --    0.03424   0.04016   0.04217   0.04704   0.05752
 Alpha virt. eigenvalues --    0.05805   0.05980   0.07600   0.08453   0.09186
 Alpha virt. eigenvalues --    0.09513   0.11295   0.11489   0.13307   0.13718

 Mulliken charges:
               1
     1  S    0.402771
     2  C   -0.703601
     3  C   -0.595227
     4  H    0.201677
     5  H    0.167403
     6  S    0.395768
     7  H    0.154355
     8  H    0.170586
     9  C   -1.092741
    10  C   -0.189465
    11  H    0.139661
    12  H    0.203569
    13  H    0.205110
    14  C   -0.051474
    15  H    0.172184
    16  H    0.209788
    17  H    0.209634
 Sum of Mulliken charges =  -0.00000

 Dipole moment (field-independent basis, Debye):
    X=              0.8225    Y=             -0.1799    Z=              0.4160  Tot=              0.9391

 Test job not archived.
 1\1\GINC-SE186\SP\RHF\Aug-CC-pVDZ\C5H10S2\OHZDE\08-Apr-2025\0\\#t hf a
 ug-cc-pvdz iop(5/13=1,5/36=2,99/5=2) pseudo=read geom=check guess=(rea
 d,tcheck) scf=(maxcycle=1)\\title\\0,1\S,0,0.24843,1.510373,0.006939\C
 ,0,1.846076,0.655027,-0.258562\C,0,1.747864,-0.72878,0.368305\H,0,2.61
 7229,1.262254,0.222431\H,0,2.0595,0.584133,-1.325867\S,0,0.203111,-1.4
 84749,-0.238147\H,0,1.745659,-0.672449,1.458508\H,0,2.567458,-1.377769
 ,0.049914\C,0,-0.872166,0.005209,0.025583\C,0,-1.584872,-0.057071,1.38
 1828\H,0,-0.873284,-0.172513,2.199568\H,0,-2.280768,-0.900637,1.40373\

 Normal termination of Gaussian 16 at Tue Apr  8 23:05:40 2025.
