 Gaussian 16, Revision C.01,

 ----------------------------------------------------------------------
 #t hf aug-cc-pvdz symm=none int=(grid=ultrafine) guess=(read,tcheck) s
 table=(opt,rrhf)
 ----------------------------------------------------------------------
 -----
 title
 -----
 Symbolic Z-matrix:
 Charge =  0 Multiplicity = 1

 SCF Done:  E(RHF) =  -1190.24504015     A.U. after   15 cycles
 Normal termination of Gaussian 16 at Wed Apr  9 00:27:52 2025.
 Gaussian 16:  ES64L-G16RevC.01  3-Jul-2019

 ----------------------------------------------------------------------
 #t hf aug-cc-pvdz iop(5/13=1,5/36=2,99/5=2) pseudo=read geom=check gue
 ss=(read,tcheck) scf=(maxcycle=1)
 ----------------------------------------------------------------------
 -----
 title
 -----
 Structure from the checkpoint file:  "BDE49_nonexpt_2463_mol1.chk"
 Charge =  0 Multiplicity = 1

                         Standard orientation:
 ---------------------------------------------------------------------
 Center     Atomic      Atomic             Coordinates (Angstroms)
 Number     Number       Type             X           Y           Z
 ---------------------------------------------------------------------
      1         14           0        1.139236    2.110817    0.320296
      2         14           0       -1.139236    2.110817   -0.320296
      3          6           0       -1.956881    0.422112   -0.167308
      4          1           0       -1.284129    2.524571   -1.738354
      5          1           0       -1.861066    3.109147    0.511379
      6          6           0       -1.922388   -0.278541    1.048050
      7          6           0       -2.600588   -0.193378   -1.248134
      8          6           0       -3.190095   -1.451850   -1.132549
      9          6           0       -3.139393   -2.121369    0.086853
     10          6           0       -2.505718   -1.537877    1.181285
     11          1           0       -2.640424    0.325159   -2.200444
     12          1           0       -3.684535   -1.903540   -1.984600
     13          6           0        1.956881    0.422112    0.167308
     14          1           0        1.284129    2.524571    1.738354
     15          1           0        1.861066    3.109147   -0.511379
     16          6           0        1.922388   -0.278541   -1.048050
     17          6           0        2.600587   -0.193379    1.248134
     18          6           0        3.190095   -1.451850    1.132549
     19          6           0        3.139393   -2.121369   -0.086853
     20          6           0        2.505718   -1.537877   -1.181285
     21          1           0        2.640424    0.325159    2.200444
     22          1           0        3.684534   -1.903541    1.984600
     23          8           0       -1.289269    0.344665    2.092414
     24          8           0        1.289269    0.344666   -2.092414
     25          1           0       -3.592748   -3.100600    0.192871
     26          1           0        3.592748   -3.100600   -0.192871
     27          1           0       -2.465199   -2.058542    2.133936
     28          1           0        2.465199   -2.058542   -2.133936
     29          1           0       -1.263328   -0.239537    2.857118
     30          1           0        1.263328   -0.239537   -2.857118
 ---------------------------------------------------------------------

 SCF Done:  E(RHF) =  -1190.92848810     A.U. after    2 cycles

 The electronic state is 1-A.
 Alpha  occ. eigenvalues --  -69.51320 -69.51320 -20.58507 -20.58505 -11.31327
 Alpha  occ. eigenvalues --  -11.31325 -11.25324 -11.25323 -11.25046 -11.25042
 Alpha  occ. eigenvalues --  -11.24287 -11.24287 -11.23543 -11.23542 -11.22457
 Alpha  occ. eigenvalues --  -11.22451  -6.18397  -6.18385  -3.93759  -3.93756
 Alpha  occ. eigenvalues --   -3.93749  -3.93729  -3.93725  -3.93667  -1.49811
 Alpha  occ. eigenvalues --   -1.49779  -1.15035  -1.15010  -1.02247  -1.02092
 Alpha  occ. eigenvalues --   -1.00848  -1.00781  -0.85949  -0.85648  -0.83666
 Alpha  occ. eigenvalues --   -0.83178  -0.75867  -0.74531  -0.73307  -0.70418
 Alpha  occ. eigenvalues --   -0.68305  -0.66788  -0.65447  -0.64790  -0.61481
 Alpha  occ. eigenvalues --   -0.61365  -0.59756  -0.58960  -0.58776  -0.58398
 Alpha  occ. eigenvalues --   -0.55349  -0.54649  -0.52395  -0.52337  -0.49433
 Alpha  occ. eigenvalues --   -0.48983  -0.47984  -0.46992  -0.45575  -0.45200
 Alpha  occ. eigenvalues --   -0.40649  -0.35175  -0.34309  -0.32321  -0.32095
 Alpha virt. eigenvalues --    0.02663   0.02770   0.03485   0.03717   0.04451
 Alpha virt. eigenvalues --    0.04693   0.04883   0.05293   0.06478   0.06705
 Alpha virt. eigenvalues --    0.07104   0.07589   0.08045   0.09141   0.09327

 Mulliken charges:
               1
     1  Si   0.115432
     2  Si   0.115432
     3  C   -0.921750
     4  H   -0.061529
     5  H   -0.095841
     6  C    2.454151
     7  C    0.627630
     8  C    0.110208
     9  C    0.396708
    10  C    0.032888
    11  H   -0.375524
    12  H   -0.251276
    13  C   -0.921751
    14  H   -0.061529
    15  H   -0.095841
    16  C    2.454149
    17  C    0.627628
    18  C    0.110212
    19  C    0.396706
    20  C    0.032890
    21  H   -0.375523
    22  H   -0.251276
    23  O   -1.957161
    24  O   -1.957162
    25  H   -0.222969
    26  H   -0.222969
    27  H   -0.381686
    28  H   -0.381685
    29  H    0.530719
    30  H    0.530720
 Sum of Mulliken charges =  -0.00000

 Dipole moment (field-independent basis, Debye):
    X=              0.0000    Y=             -3.6674    Z=              0.0000  Tot=              3.6674

 Test job not archived.
 1\1\GINC-SE073\SP\RHF\Aug-CC-pVDZ\C12H14O2Si2\OHZDE\09-Apr-2025\0\\#t
 hf aug-cc-pvdz iop(5/13=1,5/36=2,99/5=2) pseudo=read geom=check guess=
 (read,tcheck) scf=(maxcycle=1)\\title\\0,1\Si,0,-1.139236,2.110817,-0.
 320296\Si,0,1.139236,2.110817,0.320296\C,0,1.956881,0.422112,0.167308\
 H,0,1.284129,2.524571,1.738354\H,0,1.861066,3.109147,-0.511379\C,0,1.9
 22388,-0.278541,-1.04805\C,0,2.600588,-0.193378,1.248134\C,0,3.190095,
 -1.45185,1.132549\C,0,3.139393,-2.121369,-0.086853\C,0,2.505718,-1.537
 877,-1.181285\H,0,2.640424,0.325159,2.200444\H,0,3.684535,-1.90354,1.9

 Normal termination of Gaussian 16 at Wed Apr  9 00:28:37 2025.
