 Gaussian 16, Revision C.01,

 ----------------------------------------------------------------------
 #t hf aug-cc-pvdz symm=none int=(grid=ultrafine) guess=(read,tcheck) s
 table=(opt,rrhf)
 ----------------------------------------------------------------------
 -----
 title
 -----
 Symbolic Z-matrix:
 Charge =  0 Multiplicity = 1

 SCF Done:  E(RHF) =  -629.683418004     A.U. after   14 cycles
 Normal termination of Gaussian 16 at Tue Apr  8 23:22:20 2025.
 Gaussian 16:  ES64L-G16RevC.01  3-Jul-2019

 ----------------------------------------------------------------------
 #t hf aug-cc-pvdz iop(5/13=1,5/36=2,99/5=2) pseudo=read geom=check gue
 ss=(read,tcheck) scf=(maxcycle=1)
 ----------------------------------------------------------------------
 -----
 title
 -----
 Structure from the checkpoint file:  "BDE49_nonexpt_1208_mol1.chk"
 Charge =  0 Multiplicity = 1

                         Standard orientation:
 ---------------------------------------------------------------------
 Center     Atomic      Atomic             Coordinates (Angstroms)
 Number     Number       Type             X           Y           Z
 ---------------------------------------------------------------------
      1          6           0        2.155480    1.301322   -0.248945
      2          6           0        1.768225    0.117678    0.632655
      3          1           0        2.723456    0.970069   -1.120839
      4          1           0        2.764133    2.017442    0.312110
      5          1           0        1.261326    1.815870   -0.605282
      6          6           0       -2.841169    0.701591   -0.056119
      7          6           0       -1.688051   -0.127578    0.477884
      8          1           0       -3.650108    0.737444    0.678922
      9          1           0       -3.229662    0.266833   -0.979423
     10          1           0       -2.518960    1.723826   -0.266187
     11         16           0        0.685218   -1.092974   -0.193993
     12          1           0        1.296523    0.444401    1.563057
     13          1           0        2.641766   -0.483463    0.910516
     14          8           0       -0.666171   -0.139091   -0.539599
     15          1           0       -2.001568   -1.154755    0.692101
     16          1           0       -1.287938    0.304564    1.402847
 ---------------------------------------------------------------------

 SCF Done:  E(RHF) =  -629.992960611     A.U. after    2 cycles

 The electronic state is 1-A.
 Alpha  occ. eigenvalues --  -93.98516 -20.56684 -11.29024 -11.27016 -11.23209
 Alpha  occ. eigenvalues --  -11.22963  -8.25982  -6.23828  -6.23584  -6.23353
 Alpha  occ. eigenvalues --   -1.45580  -1.08048  -1.02267  -0.93719  -0.85098
 Alpha  occ. eigenvalues --   -0.81022  -0.66729  -0.65313  -0.62100  -0.60701
 Alpha  occ. eigenvalues --   -0.58086  -0.55197  -0.53924  -0.53296  -0.51615
 Alpha  occ. eigenvalues --   -0.48990  -0.47667  -0.41462  -0.35148
 Alpha virt. eigenvalues --    0.03522   0.03934   0.04176   0.04677   0.05820
 Alpha virt. eigenvalues --    0.06015   0.06560   0.07692   0.09359   0.09610
 Alpha virt. eigenvalues --    0.09923   0.11727   0.12521   0.13409   0.15196

 Mulliken charges:
               1
     1  C   -0.403271
     2  C   -0.744187
     3  H    0.169739
     4  H    0.132515
     5  H    0.190366
     6  C   -0.474187
     7  C    0.413284
     8  H    0.166066
     9  H    0.160179
    10  H    0.139647
    11  S    0.863906
    12  H    0.178348
    13  H    0.258305
    14  O   -1.288545
    15  H    0.116833
    16  H    0.121001
 Sum of Mulliken charges =   0.00000

 Dipole moment (field-independent basis, Debye):
    X=              0.0441    Y=              1.0872    Z=              1.7532  Tot=              2.0634

 Test job not archived.
 1\1\GINC-SE069\SP\RHF\Aug-CC-pVDZ\C4H10O1S1\OHZDE\08-Apr-2025\0\\#t hf
  aug-cc-pvdz iop(5/13=1,5/36=2,99/5=2) pseudo=read geom=check guess=(r
 ead,tcheck) scf=(maxcycle=1)\\title\\0,1\C,0,2.15548,1.301322,-0.24894
 5\C,0,1.768225,0.117678,0.632655\H,0,2.723456,0.970069,-1.120839\H,0,2
 .764133,2.017442,0.31211\H,0,1.261326,1.81587,-0.605282\C,0,-2.841169,
 0.701591,-0.056119\C,0,-1.688051,-0.127578,0.477884\H,0,-3.650108,0.73
 7444,0.678922\H,0,-3.229662,0.266833,-0.979423\H,0,-2.51896,1.723826,-
 0.266187\S,0,0.685218,-1.092974,-0.193993\H,0,1.296523,0.444401,1.5630

 Normal termination of Gaussian 16 at Tue Apr  8 23:22:25 2025.
