 Gaussian 16, Revision C.01,

 ----------------------------------------------------------------------
 #t hf aug-cc-pvdz symm=none int=(grid=ultrafine) guess=(read,tcheck) s
 table=(opt,rrhf)
 ----------------------------------------------------------------------
 -----
 title
 -----
 Symbolic Z-matrix:
 Charge =  0 Multiplicity = 1

 SCF Done:  E(RHF) =  -1049.76144537     A.U. after   14 cycles
 Normal termination of Gaussian 16 at Tue Apr  8 22:49:31 2025.
 Gaussian 16:  ES64L-G16RevC.01  3-Jul-2019

 ----------------------------------------------------------------------
 #t hf aug-cc-pvdz iop(5/13=1,5/36=2,99/5=2) pseudo=read geom=check gue
 ss=(read,tcheck) scf=(maxcycle=1)
 ----------------------------------------------------------------------
 -----
 title
 -----
 Structure from the checkpoint file:  "BDE49_expt_1707_mol1.chk"
 Charge =  0 Multiplicity = 1

                         Standard orientation:
 ---------------------------------------------------------------------
 Center     Atomic      Atomic             Coordinates (Angstroms)
 Number     Number       Type             X           Y           Z
 ---------------------------------------------------------------------
      1          6           0        1.432586   -0.010476    0.087056
      2          6           0        0.034492   -0.000440    0.483609
      3          7           0        2.548145   -0.017003   -0.200066
      4         17           0       -0.792514   -1.482420   -0.105624
      5         17           0       -0.771261    1.493264   -0.105539
      6          1           0       -0.055297    0.000170    1.566249
 ---------------------------------------------------------------------

 SCF Done:  E(RHF) =  -1050.03820267     A.U. after    2 cycles

 The electronic state is 1-A.
 Alpha  occ. eigenvalues -- -105.61466-105.61465 -15.55528 -11.44183 -11.31969
 Alpha  occ. eigenvalues --  -10.66239 -10.66237  -7.83191  -7.83187  -7.82754
 Alpha  occ. eigenvalues --   -7.82752  -7.82744  -7.82743  -1.27512  -1.20413
 Alpha  occ. eigenvalues --   -1.08440  -0.97342  -0.78061  -0.68377  -0.65040
 Alpha  occ. eigenvalues --   -0.64071  -0.54500  -0.54149  -0.51175  -0.50552
 Alpha  occ. eigenvalues --   -0.49387  -0.48597
 Alpha virt. eigenvalues --    0.03048   0.05820   0.06333   0.07335   0.09400
 Alpha virt. eigenvalues --    0.10567   0.10997   0.13082   0.13150   0.13709
 Alpha virt. eigenvalues --    0.14140   0.14762   0.16246   0.17626   0.17721

 Mulliken charges:
               1
     1  C   -0.757642
     2  C   -0.485458
     3  N    0.684810
     4  Cl   0.084126
     5  Cl   0.083950
     6  H    0.390214
 Sum of Mulliken charges =   0.00000

 Dipole moment (field-independent basis, Debye):
    X=             -2.7278    Y=              0.0169    Z=              1.8830  Tot=              3.3147

 Test job not archived.
 1\1\GINC-SE048\SP\RHF\Aug-CC-pVDZ\C2H1Cl2N1\OHZDE\08-Apr-2025\0\\#t hf
  aug-cc-pvdz iop(5/13=1,5/36=2,99/5=2) pseudo=read geom=check guess=(r
 ead,tcheck) scf=(maxcycle=1)\\title\\0,1\C,0,1.432586,-0.010471,0.0870
 56\C,0,0.034492,-0.00044,0.483609\N,0,2.548145,-0.016993,-0.200066\Cl,
 0,-0.792509,-1.482423,-0.105624\Cl,0,-0.771267,1.493261,-0.105539\H,0,
 -0.055297,0.00017,1.566249\\Version=ES64L-G16RevC.01\State=1-A\HF=-105
 0.0382027\RMSD=1.451e-02\Dipole=-1.0732016,0.00664,0.7408326\Quadrupol
 e=-6.0605931,2.2794324,3.7811607,0.0544197,1.2596571,-0.009031\PG=C01

 Normal termination of Gaussian 16 at Tue Apr  8 22:49:33 2025.
