 Gaussian 16, Revision C.01,

 ----------------------------------------------------------------------
 #t hf aug-cc-pvdz symm=none int=(grid=ultrafine) guess=(read,tcheck) s
 table=(opt,rrhf)
 ----------------------------------------------------------------------
 -----
 title
 -----
 Symbolic Z-matrix:
 Charge =  0 Multiplicity = 1

 SCF Done:  E(RHF) =  -379.633366097     A.U. after   13 cycles
 Normal termination of Gaussian 16 at Tue Apr  8 23:01:57 2025.
 Gaussian 16:  ES64L-G16RevC.01  3-Jul-2019

 ----------------------------------------------------------------------
 #t hf aug-cc-pvdz iop(5/13=1,5/36=2,99/5=2) pseudo=read geom=check gue
 ss=(read,tcheck) scf=(maxcycle=1)
 ----------------------------------------------------------------------
 -----
 title
 -----
 Structure from the checkpoint file:  "BDE49_expt_267_mol1.chk"
 Charge =  0 Multiplicity = 1

                         Standard orientation:
 ---------------------------------------------------------------------
 Center     Atomic      Atomic             Coordinates (Angstroms)
 Number     Number       Type             X           Y           Z
 ---------------------------------------------------------------------
      1          6           0        2.342799   -0.767077    0.328269
      2          6           0        1.207731    0.090691   -0.157385
      3          1           0        3.289590   -0.298291    0.068633
      4          1           0        2.277208   -1.765105   -0.109109
      5          1           0        2.269947   -0.879626    1.413282
      6          8           0        1.284112    1.172900   -0.648197
      7          8           0       -0.000009   -0.595522   -0.000061
      8          6           0       -1.207718    0.090735    0.157298
      9          8           0       -1.284059    1.172889    0.648237
     10          6           0       -2.342841   -0.767046   -0.328204
     11          1           0       -2.277171   -1.765084    0.109140
     12          1           0       -2.270143   -0.879566   -1.413230
     13          1           0       -3.289603   -0.298283   -0.068420
 ---------------------------------------------------------------------

 SCF Done:  E(RHF) =  -380.011115547     A.U. after    2 cycles

 The electronic state is 1-A.
 Alpha  occ. eigenvalues --  -20.61039 -20.55418 -20.55416 -11.40998 -11.40958
 Alpha  occ. eigenvalues --  -11.26484 -11.26483  -1.57270  -1.50185  -1.46379
 Alpha  occ. eigenvalues --   -1.06434  -1.02313  -0.87836  -0.74861  -0.71091
 Alpha  occ. eigenvalues --   -0.70854  -0.68912  -0.63672  -0.63014  -0.60640
 Alpha  occ. eigenvalues --   -0.58491  -0.58467  -0.56150  -0.52543  -0.47731
 Alpha  occ. eigenvalues --   -0.46988  -0.44104
 Alpha virt. eigenvalues --    0.02968   0.03889   0.04669   0.05088   0.06138
 Alpha virt. eigenvalues --    0.06609   0.08071   0.11395   0.12287   0.12471
 Alpha virt. eigenvalues --    0.13077   0.13122   0.14096   0.14859   0.15436

 Mulliken charges:
               1
     1  C   -0.610359
     2  C    1.775424
     3  H    0.189659
     4  H    0.227263
     5  H    0.251504
     6  O   -1.134714
     7  O   -1.397506
     8  C    1.775409
     9  O   -1.134727
    10  C   -0.610367
    11  H    0.227257
    12  H    0.251495
    13  H    0.189661
 Sum of Mulliken charges =  -0.00000

 Dipole moment (field-independent basis, Debye):
    X=             -0.0001    Y=             -4.2563    Z=             -0.0001  Tot=              4.2563

 Test job not archived.
 1\1\GINC-SE455\SP\RHF\Aug-CC-pVDZ\C4H6O3\OHZDE\08-Apr-2025\0\\#t hf au
 g-cc-pvdz iop(5/13=1,5/36=2,99/5=2) pseudo=read geom=check guess=(read
 ,tcheck) scf=(maxcycle=1)\\title\\0,1\C,0,-2.342799,-0.767077,-0.32826
 9\C,0,-1.207731,0.090691,0.157385\H,0,-3.28959,-0.298291,-0.068633\H,0
 ,-2.277208,-1.765105,0.109109\H,0,-2.269947,-0.879626,-1.413282\O,0,-1
 .284112,1.1729,0.648197\O,0,0.000009,-0.595522,0.000061\C,0,1.207718,0
 .090735,-0.157298\O,0,1.284059,1.172889,-0.648237\C,0,2.342841,-0.7670
 46,0.328204\H,0,2.277171,-1.765084,-0.10914\H,0,2.270143,-0.879566,1.4

 Normal termination of Gaussian 16 at Tue Apr  8 23:02:00 2025.
