 Gaussian 16, Revision C.01,

 ----------------------------------------------------------------------
 #t hf aug-cc-pvdz symm=none int=(grid=ultrafine) guess=(read,tcheck) s
 table=(opt,rrhf)
 ----------------------------------------------------------------------
 -----
 title
 -----
 Symbolic Z-matrix:
 Charge =  0 Multiplicity = 1

 SCF Done:  E(RHF) =  -1000.25779606     A.U. after   17 cycles
 Normal termination of Gaussian 16 at Tue Apr  8 23:30:51 2025.
 Gaussian 16:  ES64L-G16RevC.01  3-Jul-2019

 ----------------------------------------------------------------------
 #t hf aug-cc-pvdz iop(5/13=1,5/36=2,99/5=2) pseudo=read geom=check gue
 ss=(read,tcheck) scf=(maxcycle=1)
 ----------------------------------------------------------------------
 -----
 title
 -----
 Structure from the checkpoint file:  "BDE49_nonexpt_1326_mol1.chk"
 Charge =  0 Multiplicity = 1

                         Standard orientation:
 ---------------------------------------------------------------------
 Center     Atomic      Atomic             Coordinates (Angstroms)
 Number     Number       Type             X           Y           Z
 ---------------------------------------------------------------------
      1          6           0        1.346569   -1.205676    0.015972
      2          6           0       -0.041670   -1.181738    0.007467
      3          6           0        2.033361    0.004307   -0.000719
      4          6           0        1.382490    1.230741   -0.027214
      5          6           0       -0.008704    1.244070   -0.036887
      6          6           0       -0.722496    0.041930   -0.020556
      7          1           0       -0.550981    2.181009   -0.060097
      8          1           0        1.901889   -2.132711    0.035557
      9          1           0       -0.594961   -2.112337    0.020209
     10         15           0       -2.522491    0.124180   -0.012794
     11          8           0       -3.070024    1.485306    0.016881
     12          8           0       -3.015276   -0.803183    1.212753
     13          7           0        3.517623   -0.017796    0.010539
     14          8           0        4.064682   -1.110891    0.033327
     15          8           0        4.097613    1.057985   -0.003114
     16          1           0        1.962043    2.142940   -0.040856
     17          1           0       -3.276921   -0.269559    1.973094
     18          8           0       -2.870352   -0.812580   -1.260200
     19          1           0       -3.817506   -0.882365   -1.435319
 ---------------------------------------------------------------------

 SCF Done:  E(RHF) =  -1000.94847048     A.U. after    2 cycles

 The electronic state is 1-A.
 Alpha  occ. eigenvalues --  -84.44853 -20.61072 -20.60786 -20.60053 -20.60047
 Alpha  occ. eigenvalues --  -20.51937 -15.80302 -11.33318 -11.29278 -11.29230
 Alpha  occ. eigenvalues --  -11.29194 -11.29121 -11.28894  -6.90103  -4.44278
 Alpha  occ. eigenvalues --   -4.43520  -4.43187  -1.68060  -1.55120  -1.51783
 Alpha  occ. eigenvalues --   -1.48939  -1.40521  -1.21852  -1.12478  -1.06850
 Alpha  occ. eigenvalues --   -1.00525  -0.89602  -0.88963  -0.84212  -0.81295
 Alpha  occ. eigenvalues --   -0.76030  -0.75751  -0.75565  -0.72255  -0.69489
 Alpha  occ. eigenvalues --   -0.68035  -0.67062  -0.64892  -0.63961  -0.60962
 Alpha  occ. eigenvalues --   -0.57444  -0.56538  -0.55710  -0.55118  -0.52246
 Alpha  occ. eigenvalues --   -0.50738  -0.49790  -0.47398  -0.46989  -0.46028
 Alpha  occ. eigenvalues --   -0.40415  -0.38864
 Alpha virt. eigenvalues --    0.00741   0.02571   0.03803   0.03993   0.04300
 Alpha virt. eigenvalues --    0.06135   0.06493   0.07352   0.07522   0.09113
 Alpha virt. eigenvalues --    0.10172   0.10327   0.10555   0.12125   0.12627

 Mulliken charges:
               1
     1  C    0.334916
     2  C    0.777245
     3  C    0.013631
     4  C    0.139311
     5  C   -0.072167
     6  C   -0.969575
     7  H   -0.362549
     8  H   -0.212812
     9  H   -0.377519
    10  P    4.332781
    11  O   -1.458425
    12  O   -1.267843
    13  N    2.982108
    14  O   -1.474066
    15  O   -1.475314
    16  H   -0.203429
    17  H    0.280681
    18  O   -1.353083
    19  H    0.366107
 Sum of Mulliken charges =  -0.00000

 Dipole moment (field-independent basis, Debye):
    X=             -3.7875    Y=             -1.9200    Z=              0.7238  Tot=              4.3076

 Test job not archived.
 1\1\GINC-SE341\SP\RHF\Aug-CC-pVDZ\C6H6N1O5P1\OHZDE\08-Apr-2025\0\\#t h
 f aug-cc-pvdz iop(5/13=1,5/36=2,99/5=2) pseudo=read geom=check guess=(
 read,tcheck) scf=(maxcycle=1)\\title\\0,1\C,0,1.346569,-1.205676,0.015
 972\C,0,-0.04167,-1.181738,0.007467\C,0,2.033361,0.004307,-0.000719\C,
 0,1.38249,1.230741,-0.027214\C,0,-0.008704,1.24407,-0.036887\C,0,-0.72
 2496,0.04193,-0.020556\H,0,-0.550981,2.181009,-0.060097\H,0,1.901889,-
 2.132711,0.035557\H,0,-0.594961,-2.112337,0.020209\P,0,-2.522491,0.124
 18,-0.012794\O,0,-3.070024,1.485306,0.016881\O,0,-3.015276,-0.803183,1

 Normal termination of Gaussian 16 at Tue Apr  8 23:31:04 2025.
