 Gaussian 16, Revision C.01,

 ----------------------------------------------------------------------
 #t hf aug-cc-pvdz symm=none int=(grid=ultrafine) guess=(read,tcheck) s
 table=opt
 ----------------------------------------------------------------------
 -----
 title
 -----
 Symbolic Z-matrix:
 Charge =  0 Multiplicity = 2

 SCF Done:  E(UHF) =  -1606.17308585     A.U. after   31 cycles
 Normal termination of Gaussian 16 at Wed Apr  9 00:16:38 2025.
 Gaussian 16:  ES64L-G16RevC.01  3-Jul-2019

 ----------------------------------------------------------------------
 #t hf aug-cc-pvdz iop(5/13=1,5/36=2,99/5=2) pseudo=read geom=check gue
 ss=(read,tcheck) scf=(maxcycle=1)
 ----------------------------------------------------------------------
 -----
 title
 -----
 Structure from the checkpoint file:  "BDE49_nonexpt_2532_mol2.chk"
 Charge =  0 Multiplicity = 2

                         Standard orientation:
 ---------------------------------------------------------------------
 Center     Atomic      Atomic             Coordinates (Angstroms)
 Number     Number       Type             X           Y           Z
 ---------------------------------------------------------------------
      1         16           0        0.965329    1.746006   -0.177498
      2         14           0       -0.032947    0.007382    0.524358
      3         17           0       -1.963724   -0.066418   -0.198253
      4         17           0        1.089533   -1.576249   -0.183112
      5          1           0       -0.122772   -0.114095    1.982151
 ---------------------------------------------------------------------

 SCF Done:  E(UHF) =  -1606.41334801     A.U. after    2 cycles

 The electronic state is 2-A.
 Alpha  occ. eigenvalues -- -105.58456-105.58271 -93.99708 -69.66143 -10.63481
 Alpha  occ. eigenvalues --  -10.63306  -8.27940  -7.80391  -7.80194  -7.80060
 Alpha  occ. eigenvalues --   -7.80023  -7.79877  -7.79853  -6.32148  -6.27068
 Alpha  occ. eigenvalues --   -6.25311  -6.25032  -4.07554  -4.07480  -4.07320
 Alpha  occ. eigenvalues --   -1.10721  -1.06418  -1.03239  -0.73400  -0.59189
 Alpha  occ. eigenvalues --   -0.58579  -0.55639  -0.51468  -0.49950  -0.48874
 Alpha  occ. eigenvalues --   -0.47325  -0.46924  -0.42861
 Alpha virt. eigenvalues --    0.04954   0.05205   0.05482   0.05648   0.08648
 Alpha virt. eigenvalues --    0.10887   0.11499   0.12088   0.12716   0.12765
 Alpha virt. eigenvalues --    0.13800   0.14541   0.17275   0.17313   0.18810

  Beta  occ. eigenvalues -- -105.58417-105.58262 -93.98839 -69.66176 -10.63438
  Beta  occ. eigenvalues --  -10.63297  -8.26944  -7.80306  -7.80180  -7.80000
  Beta  occ. eigenvalues --   -7.79969  -7.79852  -7.79844  -6.32197  -6.24812
  Beta  occ. eigenvalues --   -6.24503  -6.23176  -4.07585  -4.07556  -4.07367
  Beta  occ. eigenvalues --   -1.10065  -1.06219  -0.94396  -0.72555  -0.58615
  Beta  occ. eigenvalues --   -0.57956  -0.54776  -0.49987  -0.49483  -0.48496
  Beta  occ. eigenvalues --   -0.46173  -0.40621
  Beta virt. eigenvalues --   -0.04206   0.04998   0.05361   0.05667   0.05961
  Beta virt. eigenvalues --    0.08748   0.11113   0.12150   0.12368   0.12804
  Beta virt. eigenvalues --    0.13136   0.13986   0.15625   0.17516   0.17970

 Mulliken charges and spin densities:
               1          2
     1  S   -0.501016   1.075601
     2  Si   1.617048  -0.094162
     3  Cl  -0.493813   0.004215
     4  Cl  -0.495088   0.020307
     5  H   -0.127131  -0.005961
 Sum of Mulliken charges =  -0.00000   1.00000

 Dipole moment (field-independent basis, Debye):
    X=              0.1326    Y=              0.4771    Z=              1.0551  Tot=              1.1655
                          Isotropic Fermi Contact Couplings
        Atom                 a.u.       MegaHertz       Gauss      10(-4) cm-1
     1  S(33)              0.14810      50.86905      18.15134      16.96809
     2  Si(29)            -0.04267      37.91822      13.53016      12.64816
     3  Cl(35)             0.00411       1.80377       0.64363       0.60167
     4  Cl(35)             0.02340      10.26212       3.66178       3.42307
     5  H(1)              -0.00065      -2.88332      -1.02884      -0.96177
 --------------------------------------------------------
       Center         ----  Spin Dipole Couplings  ----
                      3XX-RR        3YY-RR        3ZZ-RR

 Normal termination of Gaussian 16 at Wed Apr  9 00:16:40 2025.
