 Gaussian 16, Revision C.01,

 ----------------------------------------------------------------------
 #t hf aug-cc-pvdz symm=none int=(grid=ultrafine) guess=(read,tcheck) s
 table=(opt,rrhf)
 ----------------------------------------------------------------------
 -----
 title
 -----
 Symbolic Z-matrix:
 Charge =  0 Multiplicity = 1

 SCF Done:  E(RHF) =  -1914.04736455     A.U. after   14 cycles
 Normal termination of Gaussian 16 at Tue Apr  8 23:48:21 2025.
 Gaussian 16:  ES64L-G16RevC.01  3-Jul-2019

 ----------------------------------------------------------------------
 #t hf aug-cc-pvdz iop(5/13=1,5/36=2,99/5=2) pseudo=read geom=check gue
 ss=(read,tcheck) scf=(maxcycle=1)
 ----------------------------------------------------------------------
 -----
 title
 -----
 Structure from the checkpoint file:  "BDE49_nonexpt_1785_mol1.chk"
 Charge =  0 Multiplicity = 1

                         Standard orientation:
 ---------------------------------------------------------------------
 Center     Atomic      Atomic             Coordinates (Angstroms)
 Number     Number       Type             X           Y           Z
 ---------------------------------------------------------------------
      1         14           0       -0.724830    0.009431   -0.000001
      2          6           0        1.050679    0.767751    0.000002
      3         17           0       -1.082042   -1.145734    1.679139
      4         17           0       -1.082033   -1.145742   -1.679137
      5         17           0       -2.060438    1.554111   -0.000007
      6          7           0        2.168839   -0.008363    0.000004
      7          6           0        2.179937   -1.461941    0.000002
      8          8           0        1.068459    1.990132    0.000001
      9          1           0        2.695933   -1.838557   -0.889072
     10          1           0        1.171010   -1.866963    0.000015
     11          1           0        2.695953   -1.838557    0.889064
     12          6           0        3.478035    0.640035    0.000003
     13          1           0        3.332037    1.717121    0.000000
     14          1           0        4.043985    0.346269   -0.889598
     15          1           0        4.043984    0.346274    0.889606
 ---------------------------------------------------------------------

 SCF Done:  E(RHF) =  -1914.56049200     A.U. after    2 cycles

 The electronic state is 1-A.
 Alpha  occ. eigenvalues -- -105.58857-105.58857-105.57846 -69.68375 -20.53430
 Alpha  occ. eigenvalues --  -15.55199 -11.37455 -11.29685 -11.27995 -10.63843
 Alpha  occ. eigenvalues --  -10.63832 -10.62868  -7.80735  -7.80728  -7.80407
 Alpha  occ. eigenvalues --   -7.80404  -7.80404  -7.80400  -7.79767  -7.79423
 Alpha  occ. eigenvalues --   -7.79416  -6.34111  -4.09473  -4.09462  -4.09303
 Alpha  occ. eigenvalues --   -1.47892  -1.27425  -1.11825  -1.06735  -1.06163
 Alpha  occ. eigenvalues --   -1.00521  -0.98432  -0.81347  -0.75856  -0.69156
 Alpha  occ. eigenvalues --   -0.69004  -0.68086  -0.60265  -0.60016  -0.59728
 Alpha  occ. eigenvalues --   -0.58699  -0.58496  -0.56477  -0.55543  -0.52239
 Alpha  occ. eigenvalues --   -0.51580  -0.50766  -0.48976  -0.48301  -0.47413
 Alpha  occ. eigenvalues --   -0.42015  -0.41615
 Alpha virt. eigenvalues --    0.03047   0.04234   0.04376   0.05475   0.06252
 Alpha virt. eigenvalues --    0.06371   0.06838   0.07148   0.07535   0.09187
 Alpha virt. eigenvalues --    0.09391   0.10431   0.12393   0.12985   0.13116

 Mulliken charges:
               1
     1  Si   1.943227
     2  C   -0.352410
     3  Cl  -0.540603
     4  Cl  -0.540602
     5  Cl  -0.483154
     6  N    1.042872
     7  C   -0.395531
     8  O   -1.121767
     9  H    0.172703
    10  H   -0.054245
    11  H    0.172701
    12  C   -0.232587
    13  H   -0.009689
    14  H    0.199544
    15  H    0.199541
 Sum of Mulliken charges =  -0.00000

 Dipole moment (field-independent basis, Debye):
    X=              2.9163    Y=             -2.7028    Z=             -0.0000  Tot=              3.9761

 Test job not archived.
 1\1\GINC-SE094\SP\RHF\Aug-CC-pVDZ\C3H6Cl3N1O1Si1\OHZDE\08-Apr-2025\0\\
 #t hf aug-cc-pvdz iop(5/13=1,5/36=2,99/5=2) pseudo=read geom=check gue
 ss=(read,tcheck) scf=(maxcycle=1)\\title\\0,1\Si,0,-0.72483,0.009431,-
 0.000001\C,0,1.050679,0.767751,0.000002\Cl,0,-1.082042,-1.145734,1.679
 139\Cl,0,-1.082033,-1.145742,-1.679137\Cl,0,-2.060438,1.554111,-0.0000
 07\N,0,2.168839,-0.008363,0.000004\C,0,2.179937,-1.461941,0.000002\O,0
 ,1.068459,1.990132,0.000001\H,0,2.695933,-1.838557,-0.889072\H,0,1.171
 01,-1.866963,0.000015\H,0,2.695953,-1.838557,0.889064\C,0,3.478035,0.6

 Normal termination of Gaussian 16 at Tue Apr  8 23:48:29 2025.
