 Gaussian 16, Revision C.01,

 ----------------------------------------------------------------------
 #t hf aug-cc-pvdz symm=none int=(grid=ultrafine) guess=(read,tcheck) s
 table=(opt,rrhf)
 ----------------------------------------------------------------------
 -----
 title
 -----
 Symbolic Z-matrix:
 Charge =  0 Multiplicity = 1

 SCF Done:  E(RHF) =  -447.400507221     A.U. after   11 cycles
 Normal termination of Gaussian 16 at Tue Apr  8 23:57:40 2025.
 Gaussian 16:  ES64L-G16RevC.01  3-Jul-2019

 ----------------------------------------------------------------------
 #t hf aug-cc-pvdz iop(5/13=1,5/36=2,99/5=2) pseudo=read geom=check gue
 ss=(read,tcheck) scf=(maxcycle=1)
 ----------------------------------------------------------------------
 -----
 title
 -----
 Structure from the checkpoint file:  "BDE49_nonexpt_2032_mol1.chk"
 Charge =  0 Multiplicity = 1

                         Standard orientation:
 ---------------------------------------------------------------------
 Center     Atomic      Atomic             Coordinates (Angstroms)
 Number     Number       Type             X           Y           Z
 ---------------------------------------------------------------------
      1         14           0       -1.142833   -1.089937    0.055675
      2          6           0       -0.161874    0.485181   -0.351520
      3          6           0        1.225178    0.553052    0.324934
      4          6           0       -1.000047    1.732216   -0.005318
      5          1           0       -1.202284    1.790432    1.069441
      6          1           0       -1.962848    1.736806   -0.523406
      7          1           0       -0.468037    2.647807   -0.285862
      8          1           0       -0.005249    0.474210   -1.439650
      9          6           0        2.221861   -0.520937   -0.122740
     10          1           0        1.099855    0.506581    1.414007
     11          1           0        1.655931    1.541382    0.118096
     12          1           0        1.888120   -1.528329    0.139542
     13          1           0        3.197096   -0.365877    0.346502
     14          1           0        2.367953   -0.494781   -1.207186
     15          1           0       -1.318582   -1.211747    1.525596
     16          1           0       -0.477689   -2.320381   -0.436606
     17          1           0       -2.485311   -1.014061   -0.572068
 ---------------------------------------------------------------------

 SCF Done:  E(RHF) =  -447.614916894     A.U. after    2 cycles

 The electronic state is 1-A.
 Alpha  occ. eigenvalues --  -69.51738 -11.23383 -11.23008 -11.22592 -11.22527
 Alpha  occ. eigenvalues --   -6.18879  -3.94246  -3.94240  -3.94211  -1.07679
 Alpha  occ. eigenvalues --   -0.98704  -0.86793  -0.80550  -0.71615  -0.62814
 Alpha  occ. eigenvalues --   -0.59729  -0.59134  -0.57316  -0.52782  -0.50553
 Alpha  occ. eigenvalues --   -0.49039  -0.48366  -0.46695  -0.46341  -0.41864
 Alpha virt. eigenvalues --    0.03687   0.03836   0.03889   0.04077   0.06098
 Alpha virt. eigenvalues --    0.06445   0.06465   0.06536   0.07556   0.09107
 Alpha virt. eigenvalues --    0.09619   0.10308   0.10657   0.11128   0.12542

 Mulliken charges:
               1
     1  Si   0.662535
     2  C   -0.808758
     3  C   -0.138310
     4  C   -0.279490
     5  H    0.190129
     6  H    0.106883
     7  H    0.141021
     8  H    0.146285
     9  C   -0.356336
    10  H    0.112527
    11  H    0.147427
    12  H    0.167118
    13  H    0.121046
    14  H    0.145411
    15  H   -0.078851
    16  H   -0.132960
    17  H   -0.145676
 Sum of Mulliken charges =   0.00000

 Dipole moment (field-independent basis, Debye):
    X=              0.5252    Y=              0.6652    Z=             -0.2288  Tot=              0.8779

 Test job not archived.
 1\1\GINC-SE419\SP\RHF\Aug-CC-pVDZ\C4H12Si1\OHZDE\08-Apr-2025\0\\#t hf
 aug-cc-pvdz iop(5/13=1,5/36=2,99/5=2) pseudo=read geom=check guess=(re
 ad,tcheck) scf=(maxcycle=1)\\title\\0,1\Si,0,-1.142833,-1.089937,0.055
 675\C,0,-0.161874,0.485181,-0.35152\C,0,1.225178,0.553052,0.324934\C,0
 ,-1.000048,1.732216,-0.005318\H,0,-1.202285,1.790432,1.069441\H,0,-1.9
 62849,1.736806,-0.523406\H,0,-0.468038,2.647807,-0.285862\H,0,-0.00524
 9,0.47421,-1.43965\C,0,2.221861,-0.520936,-0.12274\H,0,1.099855,0.5065
 81,1.414007\H,0,1.65593,1.541382,0.118096\H,0,1.88812,-1.528328,0.1395

 Normal termination of Gaussian 16 at Tue Apr  8 23:57:45 2025.
