 Gaussian 16, Revision C.01,

 ----------------------------------------------------------------------
 #t hf aug-cc-pvdz symm=none int=(grid=ultrafine) guess=(read,tcheck) s
 table=(opt,rrhf)
 ----------------------------------------------------------------------
 -----
 title
 -----
 Symbolic Z-matrix:
 Charge =  0 Multiplicity = 1

 SCF Done:  E(RHF) =  -369.327742256     A.U. after   11 cycles

 1\1\GINC-SE393\Stability\RHF\Aug-CC-pVDZ\C2H8Si1\OHZDE\08-Apr-2025\0\\
 #t hf aug-cc-pvdz symm=none int=(grid=ultrafine) guess=(read,tcheck) s
 table=(opt,rrhf)\\title\\0,1\Si,0,-1.153943,-0.122962,0.\C,0,0.560496,
 0.665168,0.\C,0,1.722347,-0.344075,0.\H,0,0.631996,1.321967,-0.874631\
 H,0,1.690787,-0.990687,0.881677\H,0,2.691385,0.163331,0.\H,0,1.690787,
 -0.990688,-0.881676\H,0,0.631995,1.321967,0.874629\H,0,-1.334807,-0.97
 544,-1.201523\H,0,-2.209187,0.9199,-0.000001\H,0,-1.334808,-0.975438,1
 .201524\\Version=ES64L-G16RevC.01\HF=-369.3277423\RMSD=2.740e-09\Dipol

 Normal termination of Gaussian 16 at Tue Apr  8 23:57:22 2025.
 Gaussian 16:  ES64L-G16RevC.01  3-Jul-2019

 ----------------------------------------------------------------------
 #t hf aug-cc-pvdz iop(5/13=1,5/36=2,99/5=2) pseudo=read geom=check gue
 ss=(read,tcheck) scf=(maxcycle=1)
 ----------------------------------------------------------------------
 -----
 title
 -----
 Structure from the checkpoint file:  "BDE49_nonexpt_2030_mol1.chk"
 Charge =  0 Multiplicity = 1

                         Standard orientation:
 ---------------------------------------------------------------------
 Center     Atomic      Atomic             Coordinates (Angstroms)
 Number     Number       Type             X           Y           Z
 ---------------------------------------------------------------------
      1         14           0       -1.153943   -0.122962    0.000000
      2          6           0        0.560496    0.665168    0.000000
      3          6           0        1.722347   -0.344075    0.000000
      4          1           0        0.631996    1.321967   -0.874631
      5          1           0        1.690787   -0.990687    0.881677
      6          1           0        2.691385    0.163331    0.000000
      7          1           0        1.690787   -0.990688   -0.881676
      8          1           0        0.631995    1.321967    0.874629
      9          1           0       -1.334807   -0.975440   -1.201523
     10          1           0       -2.209187    0.919900   -0.000001
     11          1           0       -1.334808   -0.975438    1.201524
 ---------------------------------------------------------------------

 SCF Done:  E(RHF) =  -369.455494279     A.U. after    2 cycles

 The electronic state is 1-A.
 Alpha  occ. eigenvalues --  -69.52007 -11.23313 -11.22430  -6.19123  -3.94494
 Alpha  occ. eigenvalues --   -3.94488  -3.94472  -1.02709  -0.85508  -0.71836
 Alpha  occ. eigenvalues --   -0.61548  -0.58390  -0.53093  -0.50890  -0.47317
 Alpha  occ. eigenvalues --   -0.47096  -0.43796
 Alpha virt. eigenvalues --    0.03735   0.04262   0.04426   0.04513   0.06380
 Alpha virt. eigenvalues --    0.07269   0.07644   0.08505   0.09600   0.10320
 Alpha virt. eigenvalues --    0.11243   0.13823   0.15228   0.15649   0.16632

 Mulliken charges:
               1
     1  Si   1.005622
     2  C   -0.600678
     3  C   -0.404042
     4  H    0.103291
     5  H    0.140226
     6  H    0.111629
     7  H    0.140226
     8  H    0.103287
     9  H   -0.192734
    10  H   -0.214092
    11  H   -0.192734
 Sum of Mulliken charges =  -0.00000

 Dipole moment (field-independent basis, Debye):
    X=              0.7225    Y=              0.3586    Z=              0.0000  Tot=              0.8066

 Test job not archived.
 1\1\GINC-SE393\SP\RHF\Aug-CC-pVDZ\C2H8Si1\OHZDE\08-Apr-2025\0\\#t hf a
 ug-cc-pvdz iop(5/13=1,5/36=2,99/5=2) pseudo=read geom=check guess=(rea
 d,tcheck) scf=(maxcycle=1)\\title\\0,1\Si,0,-1.153943,-0.122962,0.\C,0
 ,0.560496,0.665168,0.\C,0,1.722347,-0.344075,0.\H,0,0.631996,1.321967,
 -0.874631\H,0,1.690787,-0.990687,0.881677\H,0,2.691385,0.163331,0.\H,0
 ,1.690787,-0.990688,-0.881676\H,0,0.631995,1.321967,0.874629\H,0,-1.33
 4807,-0.97544,-1.201523\H,0,-2.209187,0.9199,-0.000001\H,0,-1.334808,-
 0.975438,1.201524\\Version=ES64L-G16RevC.01\State=1-A\HF=-369.4554943\

 Normal termination of Gaussian 16 at Tue Apr  8 23:57:25 2025.
