 Gaussian 16, Revision C.01,

 ----------------------------------------------------------------------
 #t hf aug-cc-pvdz symm=none int=(grid=ultrafine) guess=(read,tcheck) s
 table=(opt,rrhf)
 ----------------------------------------------------------------------
 -----
 title
 -----
 Symbolic Z-matrix:
 Charge =  0 Multiplicity = 1

 SCF Done:  E(RHF) =  -1287.84865991     A.U. after   16 cycles
 Normal termination of Gaussian 16 at Wed Apr  9 00:14:16 2025.
 Gaussian 16:  ES64L-G16RevC.01  3-Jul-2019

 ----------------------------------------------------------------------
 #t hf aug-cc-pvdz iop(5/13=1,5/36=2,99/5=2) pseudo=read geom=check gue
 ss=(read,tcheck) scf=(maxcycle=1)
 ----------------------------------------------------------------------
 -----
 title
 -----
 Structure from the checkpoint file:  "BDE49_nonexpt_242_mol1.chk"
 Charge =  0 Multiplicity = 1

                         Standard orientation:
 ---------------------------------------------------------------------
 Center     Atomic      Atomic             Coordinates (Angstroms)
 Number     Number       Type             X           Y           Z
 ---------------------------------------------------------------------
      1         17           0       -3.053354   -1.365233   -0.000082
      2         17           0       -2.808040    1.638382   -0.000056
      3          5           0       -1.991917    0.059322    0.000099
      4          6           0       -0.465517   -0.066422    0.000071
      5          6           0        0.175416   -1.327938    0.000047
      6          6           0        1.550138   -1.443495    0.000025
      7          6           0        2.352916   -0.291298    0.000024
      8          6           0        0.365292    1.069986    0.000068
      9          1           0       -0.084649    2.055535    0.000085
     10          6           0        1.750240    0.973579    0.000046
     11          1           0        2.347235    1.875260    0.000045
     12          1           0       -0.426071   -2.228870    0.000048
     13          8           0        3.687959   -0.506577    0.000001
     14          6           0        4.569453    0.613495   -0.000003
     15          1           0        4.431109    1.228549   -0.894838
     16          1           0        5.574257    0.195962   -0.000024
     17          1           0        4.431139    1.228532    0.894848
     18          1           0        2.038972   -2.409941    0.000007
 ---------------------------------------------------------------------

 SCF Done:  E(RHF) =  -1288.37484096     A.U. after    2 cycles

 The electronic state is 1-A.
 Alpha  occ. eigenvalues -- -105.56508-105.56487 -20.59341 -11.33501 -11.31090
 Alpha  occ. eigenvalues --  -11.27142 -11.26750 -11.25149 -11.24630 -11.23321
 Alpha  occ. eigenvalues --  -10.61523 -10.61487  -7.78417  -7.78386  -7.78131
 Alpha  occ. eigenvalues --   -7.78110  -7.78102  -7.78080  -7.70492  -1.51911
 Alpha  occ. eigenvalues --   -1.16788  -1.09901  -1.05017  -1.03855  -1.03044
 Alpha  occ. eigenvalues --   -0.96375  -0.85835  -0.83850  -0.75227  -0.71369
 Alpha  occ. eigenvalues --   -0.69541  -0.67349  -0.64812  -0.63813  -0.61665
 Alpha  occ. eigenvalues --   -0.60836  -0.56459  -0.55272  -0.54903  -0.53581
 Alpha  occ. eigenvalues --   -0.52324  -0.50132  -0.48000  -0.47103  -0.46829
 Alpha  occ. eigenvalues --   -0.45240  -0.36656  -0.33821
 Alpha virt. eigenvalues --    0.02775   0.03457   0.03918   0.04438   0.04947
 Alpha virt. eigenvalues --    0.05415   0.05577   0.06015   0.07148   0.07781
 Alpha virt. eigenvalues --    0.08231   0.09605   0.09844   0.10573   0.12256

 Mulliken charges:
               1
     1  Cl  -0.380040
     2  Cl  -0.395242
     3  B    0.467042
     4  C    0.346248
     5  C    0.624053
     6  C    0.030690
     7  C    2.043645
     8  C    0.074835
     9  H   -0.345006
    10  C   -0.023586
    11  H   -0.420121
    12  H   -0.370506
    13  O   -1.865181
    14  C    0.163020
    15  H    0.179599
    16  H   -0.033782
    17  H    0.179597
    18  H   -0.275264
 Sum of Mulliken charges =  -0.00000

 Dipole moment (field-independent basis, Debye):
    X=              4.1487    Y=              1.0200    Z=              0.0002  Tot=              4.2722

 Test job not archived.
 1\1\GINC-SE343\SP\RHF\Aug-CC-pVDZ\C7H7B1Cl2O1\OHZDE\09-Apr-2025\0\\#t
 hf aug-cc-pvdz iop(5/13=1,5/36=2,99/5=2) pseudo=read geom=check guess=
 (read,tcheck) scf=(maxcycle=1)\\title\\0,1\Cl,0,3.053354,-1.365233,0.0
 00082\Cl,0,2.80804,1.638382,0.000056\B,0,1.991917,0.059322,-0.000099\C
 ,0,0.465517,-0.066422,-0.000071\C,0,-0.175416,-1.327938,-0.000047\C,0,
 -1.550138,-1.443495,-0.000025\C,0,-2.352916,-0.291298,-0.000024\C,0,-0
 .365292,1.069986,-0.000068\H,0,0.084649,2.055535,-0.000085\C,0,-1.7502
 4,0.973579,-0.000046\H,0,-2.347235,1.87526,-0.000045\H,0,0.426071,-2.2

 Normal termination of Gaussian 16 at Wed Apr  9 00:14:27 2025.
