 Gaussian 16, Revision C.01,

 ----------------------------------------------------------------------
 #t hf aug-cc-pvdz symm=none int=(grid=ultrafine) guess=(read,tcheck) s
 table=(opt,rrhf)
 ----------------------------------------------------------------------
 -----
 title
 -----
 Symbolic Z-matrix:
 Charge =  0 Multiplicity = 1

 SCF Done:  E(RHF) =  -912.844833640     A.U. after   16 cycles
 Normal termination of Gaussian 16 at Tue Apr  8 23:12:39 2025.
 Gaussian 16:  ES64L-G16RevC.01  3-Jul-2019

 ----------------------------------------------------------------------
 #t hf aug-cc-pvdz iop(5/13=1,5/36=2,99/5=2) pseudo=read geom=check gue
 ss=(read,tcheck) scf=(maxcycle=1)
 ----------------------------------------------------------------------
 -----
 title
 -----
 Structure from the checkpoint file:  "BDE49_expt_446_mol1.chk"
 Charge =  0 Multiplicity = 1

                         Standard orientation:
 ---------------------------------------------------------------------
 Center     Atomic      Atomic             Coordinates (Angstroms)
 Number     Number       Type             X           Y           Z
 ---------------------------------------------------------------------
      1          6           0       -4.114190   -0.369617   -0.652157
      2          6           0       -2.992786    0.342491   -1.062531
      3          6           0       -4.112377   -1.057058    0.559952
      4          6           0       -2.967950   -1.023986    1.353895
      5          6           0       -1.836337   -0.321230    0.951587
      6          6           0       -1.840867    0.370571   -0.264266
      7          7           0       -0.708594    1.065797   -0.733803
      8         16           0        0.538302    1.648835    0.244926
      9          6           0        1.847351    0.440997    0.027262
     10          6           0        1.727472   -0.674079   -0.800009
     11          6           0        3.031668    0.664405    0.736583
     12          6           0        4.090830   -0.228958    0.613078
     13          6           0        2.794172   -1.563631   -0.914260
     14          6           0        3.977582   -1.347257   -0.212354
     15          1           0        0.807156   -0.839928   -1.345376
     16          1           0        2.695187   -2.431172   -1.557440
     17          1           0        4.803626   -2.042487   -0.305703
     18          1           0        3.126285    1.531886    1.382028
     19          1           0        5.006921   -0.049767    1.164841
     20          1           0       -3.006759    0.881423   -2.005106
     21          1           0       -4.996075   -0.379709   -1.283127
     22          1           0       -4.988505   -1.607885    0.880450
     23          1           0       -2.949129   -1.554677    2.299422
     24          1           0       -0.950065   -0.304927    1.572871
     25          1           0       -0.828733    1.559396   -1.605749
 ---------------------------------------------------------------------

 SCF Done:  E(RHF) =  -913.433525654     A.U. after    2 cycles

 The electronic state is 1-A.
 Alpha  occ. eigenvalues --  -93.99199 -15.53917 -11.29239 -11.27789 -11.25063
 Alpha  occ. eigenvalues --  -11.24958 -11.24920 -11.24727 -11.24567 -11.24497
 Alpha  occ. eigenvalues --  -11.24341 -11.23943 -11.23420 -11.23239  -8.26874
 Alpha  occ. eigenvalues --   -6.24711  -6.24491  -6.24286  -1.26032  -1.16670
 Alpha  occ. eigenvalues --   -1.14262  -1.06220  -1.02325  -1.01936  -1.00728
 Alpha  occ. eigenvalues --   -0.94594  -0.84904  -0.84452  -0.83421  -0.80783
 Alpha  occ. eigenvalues --   -0.74359  -0.72251  -0.69130  -0.66917  -0.64941
 Alpha  occ. eigenvalues --   -0.63852  -0.62163  -0.61898  -0.60750  -0.59909
 Alpha  occ. eigenvalues --   -0.58293  -0.54361  -0.52980  -0.52615  -0.51285
 Alpha  occ. eigenvalues --   -0.50457  -0.50096  -0.44712  -0.42316  -0.35307
 Alpha  occ. eigenvalues --   -0.34914  -0.32161  -0.31284
 Alpha virt. eigenvalues --    0.03277   0.03442   0.03732   0.03788   0.04200
 Alpha virt. eigenvalues --    0.05054   0.05380   0.05920   0.07523   0.07749
 Alpha virt. eigenvalues --    0.08248   0.08891   0.09660   0.10399   0.10683

 Mulliken charges:
               1
     1  C    0.439002
     2  C    0.251353
     3  C    0.030710
     4  C    0.461598
     5  C    0.399193
     6  C   -1.301427
     7  N    0.940985
     8  S    0.444210
     9  C    0.622256
    10  C    0.013763
    11  C   -0.359981
    12  C    0.413519
    13  C    0.368055
    14  C    0.051574
    15  H   -0.400899
    16  H   -0.243811
    17  H   -0.216830
    18  H   -0.231371
    19  H   -0.225880
    20  H   -0.338280
    21  H   -0.227650
    22  H   -0.226848
    23  H   -0.232552
    24  H   -0.307522
    25  H   -0.123167
 Sum of Mulliken charges =  -0.00000

 Dipole moment (field-independent basis, Debye):
    X=              0.3101    Y=             -0.4560    Z=             -0.7406  Tot=              0.9233

 Test job not archived.
 1\1\GINC-SE334\SP\RHF\Aug-CC-pVDZ\C12H11N1S1\OHZDE\08-Apr-2025\0\\#t h
 f aug-cc-pvdz iop(5/13=1,5/36=2,99/5=2) pseudo=read geom=check guess=(
 read,tcheck) scf=(maxcycle=1)\\title\\0,1\C,0,-4.11419,-0.369617,-0.65
 2157\C,0,-2.992786,0.342491,-1.062531\C,0,-4.112377,-1.057058,0.559952
 \C,0,-2.96795,-1.023986,1.353895\C,0,-1.836337,-0.32123,0.951587\C,0,-
 1.840867,0.370571,-0.264266\N,0,-0.708594,1.065797,-0.733803\S,0,0.538
 302,1.648835,0.244926\C,0,1.847351,0.440997,0.027262\C,0,1.727472,-0.6
 74079,-0.800009\C,0,3.031668,0.664405,0.736583\C,0,4.09083,-0.228958,0

 Normal termination of Gaussian 16 at Tue Apr  8 23:13:01 2025.
