 Gaussian 16, Revision C.01,

 ----------------------------------------------------------------------
 #t hf aug-cc-pvdz symm=none int=(grid=ultrafine) guess=(read,tcheck) s
 table=(opt,rrhf)
 ----------------------------------------------------------------------
 -----
 title
 -----
 Symbolic Z-matrix:
 Charge =  0 Multiplicity = 1

 SCF Done:  E(RHF) =  -1212.98978630     A.U. after   15 cycles
 Normal termination of Gaussian 16 at Wed Apr  9 00:14:51 2025.
 Gaussian 16:  ES64L-G16RevC.01  3-Jul-2019

 ----------------------------------------------------------------------
 #t hf aug-cc-pvdz iop(5/13=1,5/36=2,99/5=2) pseudo=read geom=check gue
 ss=(read,tcheck) scf=(maxcycle=1)
 ----------------------------------------------------------------------
 -----
 title
 -----
 Structure from the checkpoint file:  "BDE49_nonexpt_244_mol1.chk"
 Charge =  0 Multiplicity = 1

                         Standard orientation:
 ---------------------------------------------------------------------
 Center     Atomic      Atomic             Coordinates (Angstroms)
 Number     Number       Type             X           Y           Z
 ---------------------------------------------------------------------
      1         17           0        2.753131   -1.109053   -0.000001
      2         17           0        2.008517    1.807216   -0.000004
      3          5           0        1.471785    0.116792    0.000004
      4          6           0       -0.021638   -0.265447    0.000003
      5          6           0       -1.025004    0.725146    0.000001
      6          6           0       -2.381394    0.408408    0.000000
      7          6           0       -2.741959   -0.945454    0.000000
      8          6           0       -0.426059   -1.613334    0.000002
      9          1           0        0.320316   -2.398031    0.000003
     10          6           0       -1.775108   -1.946829    0.000001
     11          1           0       -2.076222   -2.988324    0.000000
     12          6           0       -3.439632    1.485319    0.000002
     13          1           0       -3.793442   -1.216441   -0.000002
     14          1           0       -4.083750    1.406618   -0.881044
     15          1           0       -2.992621    2.480858   -0.000032
     16          1           0       -4.083704    1.406659    0.881085
     17          1           0       -0.732763    1.769071    0.000001
 ---------------------------------------------------------------------

 SCF Done:  E(RHF) =  -1213.44484228     A.U. after    2 cycles

 The electronic state is 1-A.
 Alpha  occ. eigenvalues -- -105.56907-105.56883 -11.26175 -11.26044 -11.25926
 Alpha  occ. eigenvalues --  -11.25822 -11.25320 -11.24460 -11.24137 -10.61925
 Alpha  occ. eigenvalues --  -10.61886  -7.78818  -7.78784  -7.78533  -7.78508
 Alpha  occ. eigenvalues --   -7.78502  -7.78475  -7.71084  -1.17164  -1.10431
 Alpha  occ. eigenvalues --   -1.06082  -1.04814  -1.02735  -0.94881  -0.85478
 Alpha  occ. eigenvalues --   -0.82549  -0.72869  -0.68881  -0.66960  -0.63552
 Alpha  occ. eigenvalues --   -0.60562  -0.59478  -0.59319  -0.57196  -0.55418
 Alpha  occ. eigenvalues --   -0.53460  -0.51865  -0.50993  -0.50070  -0.47189
 Alpha  occ. eigenvalues --   -0.47162  -0.45580  -0.36257  -0.34888
 Alpha virt. eigenvalues --    0.03056   0.03271   0.03711   0.04030   0.04449
 Alpha virt. eigenvalues --    0.05359   0.05491   0.06214   0.06715   0.08044
 Alpha virt. eigenvalues --    0.08708   0.10190   0.10219   0.11888   0.12770

 Mulliken charges:
               1
     1  Cl  -0.371888
     2  Cl  -0.364668
     3  B    0.440753
     4  C    0.689133
     5  C   -0.049564
     6  C    0.589834
     7  C    0.757991
     8  C   -0.293528
     9  H   -0.351854
    10  C    0.035025
    11  H   -0.229337
    12  C   -0.744344
    13  H   -0.295568
    14  H    0.243946
    15  H    0.036537
    16  H    0.243958
    17  H   -0.336425
 Sum of Mulliken charges =  -0.00000

 Dipole moment (field-independent basis, Debye):
    X=             -3.1479    Y=             -0.4307    Z=              0.0000  Tot=              3.1772

 Test job not archived.
 1\1\GINC-SE453\SP\RHF\Aug-CC-pVDZ\C7H7B1Cl2\OHZDE\09-Apr-2025\0\\#t hf
  aug-cc-pvdz iop(5/13=1,5/36=2,99/5=2) pseudo=read geom=check guess=(r
 ead,tcheck) scf=(maxcycle=1)\\title\\0,1\Cl,0,2.753131,-1.109053,-0.00
 0001\Cl,0,2.008517,1.807216,-0.000004\B,0,1.471785,0.116792,0.000004\C
 ,0,-0.021638,-0.265447,0.000003\C,0,-1.025004,0.725146,0.000001\C,0,-2
 .381394,0.408408,0.\C,0,-2.741959,-0.945454,0.\C,0,-0.426059,-1.613334
 ,0.000002\H,0,0.320316,-2.398031,0.000003\C,0,-1.775108,-1.946829,0.00
 0001\H,0,-2.076222,-2.988324,0.\C,0,-3.439632,1.485319,0.000002\H,0,-3

 Normal termination of Gaussian 16 at Wed Apr  9 00:14:59 2025.
