 Gaussian 16, Revision C.01,

 ----------------------------------------------------------------------
 #t hf aug-cc-pvdz symm=none int=(grid=ultrafine) guess=(read,tcheck) s
 table=(opt,rrhf)
 ----------------------------------------------------------------------
 -----
 title
 -----
 Symbolic Z-matrix:
 Charge =  0 Multiplicity = 1

 SCF Done:  E(RHF) =  -976.901417369     A.U. after   13 cycles
 Normal termination of Gaussian 16 at Wed Apr  9 00:06:36 2025.
 Gaussian 16:  ES64L-G16RevC.01  3-Jul-2019

 ----------------------------------------------------------------------
 #t hf aug-cc-pvdz iop(5/13=1,5/36=2,99/5=2) pseudo=read geom=check gue
 ss=(read,tcheck) scf=(maxcycle=1)
 ----------------------------------------------------------------------
 -----
 title
 -----
 Structure from the checkpoint file:  "BDE49_nonexpt_2236_mol1.chk"
 Charge =  0 Multiplicity = 1

                         Standard orientation:
 ---------------------------------------------------------------------
 Center     Atomic      Atomic             Coordinates (Angstroms)
 Number     Number       Type             X           Y           Z
 ---------------------------------------------------------------------
      1          8           0       -0.029318   -0.707442    0.048743
      2          6           0        0.812533    0.280334   -0.186437
      3         14           0       -1.709622   -0.595218   -0.310402
      4          8           0        0.571803    1.356221   -0.634621
      5         17           0        2.466649   -0.204944    0.274555
      6          6           0       -2.519508    0.714147    0.731463
      7          1           0       -2.377686    0.516420    1.797083
      8          1           0       -3.595710    0.730052    0.531411
      9          1           0       -2.113606    1.701149    0.500664
     10          1           0       -2.170971   -1.953737    0.022238
     11          1           0       -1.838379   -0.333888   -1.756337
 ---------------------------------------------------------------------

 SCF Done:  E(RHF) =  -977.234966062     A.U. after    2 cycles

 The electronic state is 1-A.
 Alpha  occ. eigenvalues -- -105.58978 -69.58548 -20.60954 -20.57517 -11.47183
 Alpha  occ. eigenvalues --  -11.23846 -10.63821  -7.80763  -7.80360  -7.80335
 Alpha  occ. eigenvalues --   -6.25148  -4.00627  -4.00453  -4.00434  -1.57608
 Alpha  occ. eigenvalues --   -1.49121  -1.10069  -0.97898  -0.86910  -0.74397
 Alpha  occ. eigenvalues --   -0.72025  -0.68396  -0.66892  -0.59464  -0.58759
 Alpha  occ. eigenvalues --   -0.56063  -0.53185  -0.49932  -0.49707  -0.48191
 Alpha  occ. eigenvalues --   -0.47678  -0.46423
 Alpha virt. eigenvalues --    0.03093   0.04188   0.04414   0.05169   0.07407
 Alpha virt. eigenvalues --    0.07582   0.08104   0.08906   0.10494   0.11737
 Alpha virt. eigenvalues --    0.12837   0.13659   0.14094   0.14465   0.15420

 Mulliken charges:
               1
     1  O   -1.280693
     2  C    1.246271
     3  Si   1.791632
     4  O   -0.833160
     5  Cl  -0.070413
     6  C   -0.674450
     7  H    0.116250
     8  H    0.020349
     9  H    0.103393
    10  H   -0.225229
    11  H   -0.193949
 Sum of Mulliken charges =  -0.00000

 Dipole moment (field-independent basis, Debye):
    X=             -2.8472    Y=             -0.9583    Z=              0.6037  Tot=              3.0642

 Test job not archived.
 1\1\GINC-SE097\SP\RHF\Aug-CC-pVDZ\C2H5Cl1O2Si1\OHZDE\09-Apr-2025\0\\#t
  hf aug-cc-pvdz iop(5/13=1,5/36=2,99/5=2) pseudo=read geom=check guess
 =(read,tcheck) scf=(maxcycle=1)\\title\\0,1\O,0,-0.029318,-0.707442,0.
 048743\C,0,0.812533,0.280334,-0.186437\Si,0,-1.709622,-0.595218,-0.310
 402\O,0,0.571803,1.356221,-0.634621\Cl,0,2.466649,-0.204944,0.274555\C
 ,0,-2.519508,0.714147,0.731463\H,0,-2.377686,0.51642,1.797083\H,0,-3.5
 9571,0.730052,0.531411\H,0,-2.113606,1.701149,0.500664\H,0,-2.170971,-
 1.953737,0.022238\H,0,-1.838379,-0.333888,-1.756337\\Version=ES64L-G16

 Normal termination of Gaussian 16 at Wed Apr  9 00:06:40 2025.
