 Gaussian 16, Revision C.01,

 ----------------------------------------------------------------------
 #t hf aug-cc-pvdz symm=none int=(grid=ultrafine) guess=(read,tcheck) s
 table=(opt,rrhf)
 ----------------------------------------------------------------------
 -----
 title
 -----
 Symbolic Z-matrix:
 Charge =  0 Multiplicity = 1

 SCF Done:  E(RHF) =  -747.185054051     A.U. after   15 cycles
 Normal termination of Gaussian 16 at Wed Apr  9 00:44:55 2025.
 Gaussian 16:  ES64L-G16RevC.01  3-Jul-2019

 ----------------------------------------------------------------------
 #t hf aug-cc-pvdz iop(5/13=1,5/36=2,99/5=2) pseudo=read geom=check gue
 ss=(read,tcheck) scf=(maxcycle=1)
 ----------------------------------------------------------------------
 -----
 title
 -----
 Structure from the checkpoint file:  "BDE49_nonexpt_740_mol1.chk"
 Charge =  0 Multiplicity = 1

                         Standard orientation:
 ---------------------------------------------------------------------
 Center     Atomic      Atomic             Coordinates (Angstroms)
 Number     Number       Type             X           Y           Z
 ---------------------------------------------------------------------
      1          6           0        2.375893    1.118519    0.588793
      2          6           0        1.090301    0.700717    0.931275
      3          6           0        3.121788    0.396108   -0.338911
      4          6           0        2.571859   -0.743531   -0.924101
      5          6           0        1.281551   -1.151473   -0.596540
      6          6           0        0.517197   -0.434353    0.335043
      7          1           0        0.864080   -2.032655   -1.070595
      8          1           0        4.124841    0.713673   -0.599454
      9          1           0        3.147221   -1.314319   -1.644748
     10          1           0        2.797778    1.999455    1.059887
     11          1           0        0.536159    1.250308    1.686523
     12          5           0       -2.229800    0.323169   -0.241230
     13          8           0       -3.540930    0.020709   -0.436984
     14          8           0       -1.727772    1.491544   -0.731494
     15          1           0       -0.775352    1.577959   -0.608318
     16          1           0       -3.994531    0.697603   -0.953920
     17         15           0       -1.187000   -0.925409    0.847954
     18          1           0       -1.348113   -2.040677   -0.008070
 ---------------------------------------------------------------------

 SCF Done:  E(RHF) =  -747.640360445     A.U. after    2 cycles

 The electronic state is 1-A.
 Alpha  occ. eigenvalues --  -84.26024 -20.56449 -20.56074 -11.26250 -11.25644
 Alpha  occ. eigenvalues --  -11.25558 -11.25518 -11.25414 -11.25281  -7.65642
 Alpha  occ. eigenvalues --   -6.73328  -4.26341  -4.25871  -4.25297  -1.48740
 Alpha  occ. eigenvalues --   -1.44581  -1.16550  -1.03639  -1.02799  -0.88793
 Alpha  occ. eigenvalues --   -0.84590  -0.81278  -0.76877  -0.73377  -0.70796
 Alpha  occ. eigenvalues --   -0.65522  -0.64574  -0.61805  -0.60968  -0.57781
 Alpha  occ. eigenvalues --   -0.57031  -0.56257  -0.52536  -0.51642  -0.49763
 Alpha  occ. eigenvalues --   -0.48195  -0.44360  -0.38249  -0.35893  -0.31283
 Alpha virt. eigenvalues --    0.03070   0.03526   0.03546   0.04551   0.05284
 Alpha virt. eigenvalues --    0.05445   0.06874   0.07394   0.07738   0.08605
 Alpha virt. eigenvalues --    0.09020   0.09123   0.09811   0.10723   0.11042

 Mulliken charges:
               1
     1  C    0.289316
     2  C    0.058208
     3  C    0.153282
     4  C    0.415571
     5  C    0.005557
     6  C    0.246286
     7  H   -0.264682
     8  H   -0.205461
     9  H   -0.221061
    10  H   -0.223330
    11  H   -0.272028
    12  B    2.035725
    13  O   -1.307230
    14  O   -1.327328
    15  H    0.751759
    16  H    0.527943
    17  P   -0.795481
    18  H    0.132954
 Sum of Mulliken charges =  -0.00000

 Dipole moment (field-independent basis, Debye):
    X=              1.6283    Y=              0.8480    Z=             -0.9943  Tot=              2.0879

 Test job not archived.
 1\1\GINC-SE106\SP\RHF\Aug-CC-pVDZ\C6H8B1O2P1\OHZDE\09-Apr-2025\0\\#t h
 f aug-cc-pvdz iop(5/13=1,5/36=2,99/5=2) pseudo=read geom=check guess=(
 read,tcheck) scf=(maxcycle=1)\\title\\0,1\C,0,2.375893,1.118519,0.5887
 93\C,0,1.090301,0.700717,0.931275\C,0,3.121788,0.396108,-0.338911\C,0,
 2.571859,-0.743531,-0.924101\C,0,1.281551,-1.151473,-0.59654\C,0,0.517
 197,-0.434353,0.335043\H,0,0.86408,-2.032655,-1.070595\H,0,4.124841,0.
 713673,-0.599454\H,0,3.147221,-1.314319,-1.644748\H,0,2.797778,1.99945
 5,1.059887\H,0,0.536159,1.250308,1.686523\B,0,-2.2298,0.323169,-0.2412

 Normal termination of Gaussian 16 at Wed Apr  9 00:45:06 2025.
