 Gaussian 16, Revision C.01,

 ----------------------------------------------------------------------
 #t hf aug-cc-pvdz symm=none int=(grid=ultrafine) guess=(read,tcheck) s
 table=(opt,rrhf)
 ----------------------------------------------------------------------
 -----
 title
 -----
 Symbolic Z-matrix:
 Charge =  0 Multiplicity = 1

 SCF Done:  E(RHF) =  -816.962533124     A.U. after   15 cycles
 Normal termination of Gaussian 16 at Tue Apr  8 22:47:54 2025.
 Gaussian 16:  ES64L-G16RevC.01  3-Jul-2019

 ----------------------------------------------------------------------
 #t hf aug-cc-pvdz iop(5/13=1,5/36=2,99/5=2) pseudo=read geom=check gue
 ss=(read,tcheck) scf=(maxcycle=1)
 ----------------------------------------------------------------------
 -----
 title
 -----
 Structure from the checkpoint file:  "BDE49_expt_1603_mol1.chk"
 Charge =  0 Multiplicity = 1

                         Standard orientation:
 ---------------------------------------------------------------------
 Center     Atomic      Atomic             Coordinates (Angstroms)
 Number     Number       Type             X           Y           Z
 ---------------------------------------------------------------------
      1         16           0        0.091799   -1.480654   -0.000000
      2          6           0       -1.656760   -1.902588    0.000000
      3          8           0        0.644646   -1.925736    1.264166
      4          8           0        0.644646   -1.925736   -1.264166
      5          1           0       -2.120890   -1.500956    0.899638
      6          1           0       -1.701681   -2.992518   -0.000000
      7          1           0       -2.120890   -1.500956   -0.899638
      8          6           0        0.091099    0.315021    0.000000
      9          6           0        0.099838    0.996385    1.215838
     10          6           0        0.099838    0.996385   -1.215838
     11          6           0        0.099838    2.388829    1.209702
     12          6           0        0.099838    2.388829   -1.209702
     13          6           0        0.095860    3.082349    0.000000
     14          1           0        0.129355    0.438367    2.143248
     15          1           0        0.112487    2.931141    2.147944
     16          1           0        0.129355    0.438367   -2.143248
     17          1           0        0.112487    2.931141   -2.147944
     18          1           0        0.099341    4.166397    0.000000
 ---------------------------------------------------------------------

 SCF Done:  E(RHF) =  -817.452739513     A.U. after    2 cycles

 The electronic state is 1-A'.
 Alpha  occ. eigenvalues --  -94.18995 -20.53126 -20.53120 -11.28544 -11.28532
 Alpha  occ. eigenvalues --  -11.27532 -11.27528 -11.27276 -11.26714 -11.26700
 Alpha  occ. eigenvalues --   -8.44298  -6.42430  -6.42198  -6.42119  -1.55087
 Alpha  occ. eigenvalues --   -1.43297  -1.18758  -1.08243  -1.04564  -1.03551
 Alpha  occ. eigenvalues --   -0.90762  -0.86511  -0.81932  -0.74912  -0.69423
 Alpha  occ. eigenvalues --   -0.68023  -0.67210  -0.65245  -0.64902  -0.62841
 Alpha  occ. eigenvalues --   -0.60826  -0.60462  -0.55602  -0.53874  -0.53386
 Alpha  occ. eigenvalues --   -0.48913  -0.48816  -0.45832  -0.43588  -0.37981
 Alpha  occ. eigenvalues --   -0.37114
 Alpha virt. eigenvalues --    0.02695   0.03251   0.03385   0.04587   0.05222
 Alpha virt. eigenvalues --    0.05772   0.06827   0.07284   0.07333   0.08525
 Alpha virt. eigenvalues --    0.10129   0.10746   0.12023   0.12254   0.13578

 Mulliken charges:
               1
     1  S    3.695731
     2  C   -0.882481
     3  O   -1.646821
     4  O   -1.646821
     5  H    0.226362
     6  H    0.215788
     7  H    0.226362
     8  C    0.740728
     9  C   -0.350206
    10  C   -0.350206
    11  C    0.454350
    12  C    0.454350
    13  C    0.004889
    14  H   -0.255631
    15  H   -0.212192
    16  H   -0.255631
    17  H   -0.212192
    18  H   -0.206379
 Sum of Mulliken charges =  -0.00000

 Dipole moment (field-independent basis, Debye):
    X=             -3.7437    Y=              3.9525    Z=             -0.0000  Tot=              5.4440

 Test job not archived.
 1\1\GINC-SE070\SP\RHF\Aug-CC-pVDZ\C7H8O2S1\OHZDE\08-Apr-2025\0\\#t hf
 aug-cc-pvdz iop(5/13=1,5/36=2,99/5=2) pseudo=read geom=check guess=(re
 ad,tcheck) scf=(maxcycle=1)\\title\\0,1\S,0,-0.091799,-1.480654,0.\C,0
 ,1.65676,-1.902588,0.\O,0,-0.644646,-1.925736,-1.264166\O,0,-0.644646,
 -1.925736,1.264166\H,0,2.12089,-1.500956,-0.899638\H,0,1.701681,-2.992
 518,0.\H,0,2.12089,-1.500956,0.899638\C,0,-0.091099,0.315021,0.\C,0,-0
 .099838,0.996385,-1.215838\C,0,-0.099838,0.996385,1.215838\C,0,-0.0998
 38,2.388829,-1.209702\C,0,-0.099838,2.388829,1.209702\C,0,-0.09586,3.0

 Normal termination of Gaussian 16 at Tue Apr  8 22:48:01 2025.
