 Gaussian 16, Revision C.01,

 ----------------------------------------------------------------------
 #t hf aug-cc-pvdz symm=none int=(grid=ultrafine) guess=(read,tcheck) s
 table=opt
 ----------------------------------------------------------------------
 -----
 title
 -----
 Symbolic Z-matrix:
 Charge =  0 Multiplicity = 2

 SCF Done:  E(UHF) =  -765.683453530     A.U. after   16 cycles
 Normal termination of Gaussian 16 at Wed Apr  9 00:32:27 2025.
 Gaussian 16:  ES64L-G16RevC.01  3-Jul-2019

 ----------------------------------------------------------------------
 #t hf aug-cc-pvdz iop(5/13=1,5/36=2,99/5=2) pseudo=read geom=check gue
 ss=(read,tcheck) scf=(maxcycle=1)
 ----------------------------------------------------------------------
 -----
 title
 -----
 Structure from the checkpoint file:  "BDE49_nonexpt_380_mol2.chk"
 Charge =  0 Multiplicity = 2

                         Standard orientation:
 ---------------------------------------------------------------------
 Center     Atomic      Atomic             Coordinates (Angstroms)
 Number     Number       Type             X           Y           Z
 ---------------------------------------------------------------------
      1          9           0        3.073416    0.114799    0.001554
      2          5           0        1.871629   -0.414052   -0.057807
      3         15           0       -0.771663   -0.055498   -0.114523
      4          8           0       -1.166330   -0.890585   -1.236360
      5          8           0       -0.968559   -0.695415    1.337770
      6          1           0       -1.570894   -1.448929    1.314893
      7          8           0       -1.485299    1.358375   -0.073962
      8          1           0       -1.153038    1.958543    0.604644
      9          8           0        0.780186    0.397616   -0.018279
 ---------------------------------------------------------------------

 SCF Done:  E(UHF) =  -766.128944646     A.U. after    2 cycles

 The electronic state is 2-A.
 Alpha  occ. eigenvalues --  -84.48736 -26.49704 -20.61770 -20.61762 -20.61548
 Alpha  occ. eigenvalues --  -20.52650  -7.74450  -6.93520  -4.47756  -4.47007
 Alpha  occ. eigenvalues --   -4.46820  -1.63472  -1.58944  -1.51075  -1.50285
 Alpha  occ. eigenvalues --   -1.41416  -0.91401  -0.81273  -0.78669  -0.76397
 Alpha  occ. eigenvalues --   -0.71606  -0.69052  -0.67811  -0.66050  -0.62537
 Alpha  occ. eigenvalues --   -0.60429  -0.59048  -0.56699  -0.54306  -0.48795
 Alpha  occ. eigenvalues --   -0.48287  -0.40297
 Alpha virt. eigenvalues --    0.02886   0.04020   0.05219   0.05540   0.06610
 Alpha virt. eigenvalues --    0.09407   0.09638   0.11329   0.11850   0.12248
 Alpha virt. eigenvalues --    0.14498   0.17909   0.18219   0.21249   0.22076

  Beta  occ. eigenvalues --  -84.48736 -26.49370 -20.61772 -20.61546 -20.61444
  Beta  occ. eigenvalues --  -20.52656  -7.72219  -6.93520  -4.47757  -4.47005
  Beta  occ. eigenvalues --   -4.46820  -1.62464  -1.58633  -1.50440  -1.50242
  Beta  occ. eigenvalues --   -1.41412  -0.90945  -0.80500  -0.78464  -0.74750
  Beta  occ. eigenvalues --   -0.69203  -0.68420  -0.67098  -0.65492  -0.61985
  Beta  occ. eigenvalues --   -0.60057  -0.58908  -0.56639  -0.54171  -0.48746
  Beta  occ. eigenvalues --   -0.48239
  Beta virt. eigenvalues --    0.02548   0.03907   0.04489   0.05627   0.06474
  Beta virt. eigenvalues --    0.07232   0.09692   0.10566   0.11721   0.14062
  Beta virt. eigenvalues --    0.14750   0.16671   0.18203   0.18306   0.21343

 Mulliken charges and spin densities:
               1          2
     1  F   -0.505584  -0.026969
     2  B    0.783824   1.045374
     3  P    4.300933   0.009538
     4  O   -1.321436  -0.000311
     5  O   -1.235350  -0.004104
     6  H    0.363511  -0.000166
     7  O   -1.252422  -0.004721
     8  H    0.351856  -0.001056
     9  O   -1.485332  -0.017587
 Sum of Mulliken charges =  -0.00000   1.00000

 Dipole moment (field-independent basis, Debye):
    X=             -0.3393    Y=              0.9941    Z=              3.3311  Tot=              3.4928
                          Isotropic Fermi Contact Couplings
        Atom                 a.u.       MegaHertz       Gauss      10(-4) cm-1
     1  F(19)              0.09685     407.49583     145.40464     135.92598
     2  B(11)              0.45909     658.49964     234.96905     219.65184
     3  P(31)              0.00222       4.02502       1.43623       1.34260
     4  O(17)             -0.00018       0.10962       0.03912       0.03657
     5  O(17)             -0.00093       0.56456       0.20145       0.18832
     6  H(1)              -0.00005      -0.20689      -0.07382      -0.06901
     7  O(17)              0.00049      -0.29737      -0.10611      -0.09919
     8  H(1)              -0.00002      -0.10963      -0.03912      -0.03657

 Normal termination of Gaussian 16 at Wed Apr  9 00:32:31 2025.
