 Gaussian 16, Revision C.01,

 ----------------------------------------------------------------------
 #t hf aug-cc-pvdz symm=none int=(grid=ultrafine) guess=(read,tcheck) s
 table=(opt,rrhf)
 ----------------------------------------------------------------------
 -----
 title
 -----
 Symbolic Z-matrix:
 Charge =  0 Multiplicity = 1

 SCF Done:  E(RHF) =  -677.023548090     A.U. after   15 cycles
 Normal termination of Gaussian 16 at Tue Apr  8 23:14:48 2025.
 Gaussian 16:  ES64L-G16RevC.01  3-Jul-2019

 ----------------------------------------------------------------------
 #t hf aug-cc-pvdz iop(5/13=1,5/36=2,99/5=2) pseudo=read geom=check gue
 ss=(read,tcheck) scf=(maxcycle=1)
 ----------------------------------------------------------------------
 -----
 title
 -----
 Structure from the checkpoint file:  "BDE49_nonexpt_1001_mol1.chk"
 Charge =  0 Multiplicity = 1

                         Standard orientation:
 ---------------------------------------------------------------------
 Center     Atomic      Atomic             Coordinates (Angstroms)
 Number     Number       Type             X           Y           Z
 ---------------------------------------------------------------------
      1         16           0        0.747246   -0.727508    0.020891
      2          7           0       -0.888869    0.124757   -0.006195
      3          8           0       -0.903521    1.329731    0.004583
      4          8           0       -1.817998   -0.653172   -0.008100
      5          8           0        1.768345    0.549831   -0.125849
      6          1           0        1.891540    0.955708    0.744029
 ---------------------------------------------------------------------

 SCF Done:  E(RHF) =  -677.345145523     A.U. after    2 cycles

 The electronic state is 1-A.
 Alpha  occ. eigenvalues --  -94.09469 -20.64676 -20.62149 -20.61691 -15.81859
 Alpha  occ. eigenvalues --   -8.36577  -6.34339  -6.34129  -6.33779  -1.70240
 Alpha  occ. eigenvalues --   -1.54890  -1.53493  -1.10459  -0.91722  -0.81913
 Alpha  occ. eigenvalues --   -0.77334  -0.77232  -0.71937  -0.62470  -0.58826
 Alpha  occ. eigenvalues --   -0.51586  -0.47988  -0.47650  -0.43553
 Alpha virt. eigenvalues --    0.02749   0.04991   0.05153   0.07171   0.09812
 Alpha virt. eigenvalues --    0.10417   0.12985   0.14759   0.16107   0.17357
 Alpha virt. eigenvalues --    0.18647   0.18766   0.20819   0.23962   0.25149

 Mulliken charges:
               1
     1  S    1.085638
     2  N    1.712077
     3  O   -1.094495
     4  O   -1.130565
     5  O   -0.982352
     6  H    0.409697
 Sum of Mulliken charges =  -0.00000

 Dipole moment (field-independent basis, Debye):
    X=              3.0638    Y=             -0.3698    Z=              1.4392  Tot=              3.4051

 Test job not archived.
 1\1\GINC-SE073\SP\RHF\Aug-CC-pVDZ\H1N1O3S1\OHZDE\08-Apr-2025\0\\#t hf
 aug-cc-pvdz iop(5/13=1,5/36=2,99/5=2) pseudo=read geom=check guess=(re
 ad,tcheck) scf=(maxcycle=1)\\title\\0,1\S,0,0.747246,-0.727508,0.02089
 1\N,0,-0.888869,0.124757,-0.006195\O,0,-0.903521,1.329731,0.004583\O,0
 ,-1.817998,-0.653172,-0.0081\O,0,1.768345,0.54983,-0.125849\H,0,1.8915
 4,0.955707,0.744029\\Version=ES64L-G16RevC.01\State=1-A\HF=-677.345145
 5\RMSD=1.391e-02\Dipole=1.2053824,-0.1455049,0.5662297\Quadrupole=-0.7
 336144,-0.1257098,0.8593241,0.5278421,2.3233822,1.278073\PG=C01 [X(H1N

 Normal termination of Gaussian 16 at Tue Apr  8 23:14:50 2025.
