 Gaussian 16, Revision C.01,

 ----------------------------------------------------------------------
 #t hf aug-cc-pvdz symm=none int=(grid=ultrafine) guess=(read,tcheck) s
 table=(opt,rrhf)
 ----------------------------------------------------------------------
 -----
 title
 -----
 Symbolic Z-matrix:
 Charge =  0 Multiplicity = 1

 SCF Done:  E(RHF) =  -256.296398511     A.U. after   14 cycles
 Normal termination of Gaussian 16 at Wed Apr  9 00:29:20 2025.
 Gaussian 16:  ES64L-G16RevC.01  3-Jul-2019

 ----------------------------------------------------------------------
 #t hf aug-cc-pvdz iop(5/13=1,5/36=2,99/5=2) pseudo=read geom=check gue
 ss=(read,tcheck) scf=(maxcycle=1)
 ----------------------------------------------------------------------
 -----
 title
 -----
 Structure from the checkpoint file:  "BDE49_nonexpt_315_mol1.chk"
 Charge =  0 Multiplicity = 1

                         Standard orientation:
 ---------------------------------------------------------------------
 Center     Atomic      Atomic             Coordinates (Angstroms)
 Number     Number       Type             X           Y           Z
 ---------------------------------------------------------------------
      1          6           0        0.825608   -0.008015    0.164330
      2          5           0       -0.741472    0.007955   -0.081051
      3          6           0       -1.497364    1.382431   -0.068156
      4          1           0       -0.981730    2.170696    0.486178
      5          1           0       -2.529312    1.306300    0.286985
      6          1           0       -1.558577    1.724489   -1.113871
      7          8           0        1.102019   -0.092104    1.355282
      8          6           0        1.901685    0.065608   -0.895577
      9          1           0        1.781564   -0.752252   -1.614504
     10          1           0        2.888928    0.011987   -0.432894
     11          1           0        1.806901    1.000626   -1.459210
     12          6           0       -1.484770   -1.368818   -0.205111
     13          1           0       -0.970386   -2.098336   -0.839276
     14          1           0       -2.526119   -1.284649   -0.526498
     15          1           0       -1.491015   -1.809047    0.803173
 ---------------------------------------------------------------------

 SCF Done:  E(RHF) =  -256.568135605     A.U. after    2 cycles

 The electronic state is 1-A.
 Alpha  occ. eigenvalues --  -20.53211 -11.31223 -11.24489 -11.21461 -11.21382
 Alpha  occ. eigenvalues --   -7.59755  -1.45556  -1.01579  -0.98335  -0.93910
 Alpha  occ. eigenvalues --   -0.79658  -0.67804  -0.61542  -0.60525  -0.60245
 Alpha  occ. eigenvalues --   -0.57234  -0.56822  -0.55748  -0.54546  -0.51434
 Alpha  occ. eigenvalues --   -0.49939  -0.46235  -0.38250
 Alpha virt. eigenvalues --    0.02828   0.03802   0.04075   0.04381   0.06012
 Alpha virt. eigenvalues --    0.06171   0.06909   0.07142   0.08665   0.09396
 Alpha virt. eigenvalues --    0.09536   0.10007   0.10942   0.12854   0.13635

 Mulliken charges:
               1
     1  C    1.131919
     2  B    0.972353
     3  C   -0.421008
     4  H   -0.024665
     5  H   -0.047776
     6  H    0.142695
     7  O   -1.288822
     8  C   -0.755408
     9  H    0.238211
    10  H    0.138297
    11  H    0.233997
    12  C   -0.474833
    13  H    0.016946
    14  H   -0.017966
    15  H    0.156060
 Sum of Mulliken charges =  -0.00000

 Dipole moment (field-independent basis, Debye):
    X=             -0.9289    Y=              0.2019    Z=             -2.9651  Tot=              3.1138

 Test job not archived.
 1\1\GINC-SE016\SP\RHF\Aug-CC-pVDZ\C4H9B1O1\OHZDE\09-Apr-2025\0\\#t hf
 aug-cc-pvdz iop(5/13=1,5/36=2,99/5=2) pseudo=read geom=check guess=(re
 ad,tcheck) scf=(maxcycle=1)\\title\\0,1\C,0,0.825608,-0.008015,0.16433
 \B,0,-0.741472,0.007955,-0.081051\C,0,-1.497364,1.382431,-0.068156\H,0
 ,-0.98173,2.170696,0.486178\H,0,-2.529312,1.3063,0.286985\H,0,-1.55857
 7,1.724489,-1.113871\O,0,1.102019,-0.092104,1.355282\C,0,1.901685,0.06
 5608,-0.895577\H,0,1.781564,-0.752252,-1.614504\H,0,2.888928,0.011987,
 -0.432894\H,0,1.806901,1.000626,-1.45921\C,0,-1.48477,-1.368818,-0.205

 Normal termination of Gaussian 16 at Wed Apr  9 00:29:24 2025.
