 Gaussian 16, Revision C.01,

 ----------------------------------------------------------------------
 #t hf aug-cc-pvdz symm=none int=(grid=ultrafine) guess=(read,tcheck) s
 table=(opt,rrhf)
 ----------------------------------------------------------------------
 -----
 title
 -----
 Symbolic Z-matrix:
 Charge =  0 Multiplicity = 1

 SCF Done:  E(RHF) =  -522.312293573     A.U. after   12 cycles
 Normal termination of Gaussian 16 at Wed Apr  9 00:06:03 2025.
 Gaussian 16:  ES64L-G16RevC.01  3-Jul-2019

 ----------------------------------------------------------------------
 #t hf aug-cc-pvdz iop(5/13=1,5/36=2,99/5=2) pseudo=read geom=check gue
 ss=(read,tcheck) scf=(maxcycle=1)
 ----------------------------------------------------------------------
 -----
 title
 -----
 Structure from the checkpoint file:  "BDE49_nonexpt_2215_mol1.chk"
 Charge =  0 Multiplicity = 1

                         Standard orientation:
 ---------------------------------------------------------------------
 Center     Atomic      Atomic             Coordinates (Angstroms)
 Number     Number       Type             X           Y           Z
 ---------------------------------------------------------------------
      1          6           0        3.238024   -0.560883   -0.084641
      2          6           0        1.772269   -0.450880    0.347622
      3          1           0        3.741847   -1.388885    0.422461
      4          1           0        3.788244    0.356707    0.146403
      5          1           0        3.318037   -0.731864   -1.162647
      6          6           0        1.021218    0.703027   -0.343006
      7          1           0        1.724768   -0.317549    1.434747
      8          1           0        1.256552   -1.392617    0.134791
      9         14           0       -0.777341    0.871538    0.142360
     10          1           0        1.069159    0.583079   -1.432574
     11          1           0        1.514917    1.659708   -0.123628
     12          8           0       -1.530171   -0.544505   -0.257617
     13          6           0       -2.895167   -0.846137   -0.009574
     14          1           0       -3.129429   -0.796317    1.060862
     15          1           0       -3.086588   -1.861908   -0.360139
     16          1           0       -3.561481   -0.160402   -0.546986
     17          1           0       -1.412780    2.012310   -0.571431
     18          1           0       -0.917171    1.121491    1.603622
 ---------------------------------------------------------------------

 SCF Done:  E(RHF) =  -522.598949786     A.U. after    2 cycles

 The electronic state is 1-A.
 Alpha  occ. eigenvalues --  -69.54236 -20.53125 -11.28884 -11.23065 -11.22096
 Alpha  occ. eigenvalues --  -11.21517  -6.20925  -3.96406  -3.96249  -3.96236
 Alpha  occ. eigenvalues --   -1.43376  -1.05576  -0.94358  -0.91936  -0.80857
 Alpha  occ. eigenvalues --   -0.72316  -0.63791  -0.63176  -0.62263  -0.60581
 Alpha  occ. eigenvalues --   -0.57587  -0.54963  -0.53983  -0.49955  -0.48120
 Alpha  occ. eigenvalues --   -0.47547  -0.46911  -0.42924  -0.42548
 Alpha virt. eigenvalues --    0.03688   0.03856   0.04105   0.04136   0.05743
 Alpha virt. eigenvalues --    0.05793   0.06282   0.06833   0.08094   0.08699
 Alpha virt. eigenvalues --    0.08738   0.10045   0.10339   0.10815   0.12030

 Mulliken charges:
               1
     1  C   -0.329833
     2  C   -0.385313
     3  H    0.122800
     4  H    0.161206
     5  H    0.164153
     6  C   -0.469743
     7  H    0.104956
     8  H    0.104166
     9  Si   1.844412
    10  H    0.128222
    11  H    0.047931
    12  O   -1.654177
    13  C    0.393488
    14  H    0.127737
    15  H   -0.003676
    16  H    0.107383
    17  H   -0.263764
    18  H   -0.199950
 Sum of Mulliken charges =  -0.00000

 Dipole moment (field-independent basis, Debye):
    X=             -0.3786    Y=              0.0366    Z=              0.1969  Tot=              0.4283

 Test job not archived.
 1\1\GINC-SE150\SP\RHF\Aug-CC-pVDZ\C4H12O1Si1\OHZDE\09-Apr-2025\0\\#t h
 f aug-cc-pvdz iop(5/13=1,5/36=2,99/5=2) pseudo=read geom=check guess=(
 read,tcheck) scf=(maxcycle=1)\\title\\0,1\C,0,3.238024,-0.560883,-0.08
 4641\C,0,1.772269,-0.45088,0.347622\H,0,3.741847,-1.388885,0.422461\H,
 0,3.788244,0.356707,0.146403\H,0,3.318037,-0.731864,-1.162647\C,0,1.02
 1218,0.703027,-0.343006\H,0,1.724768,-0.317549,1.434747\H,0,1.256552,-
 1.392617,0.134791\Si,0,-0.777341,0.871538,0.14236\H,0,1.069159,0.58307
 9,-1.432574\H,0,1.514917,1.659708,-0.123628\O,0,-1.530171,-0.544505,-0

 Normal termination of Gaussian 16 at Wed Apr  9 00:06:10 2025.
