 Gaussian 16, Revision C.01,

 ----------------------------------------------------------------------
 #t hf aug-cc-pvdz symm=none int=(grid=ultrafine) guess=(read,tcheck) s
 table=(opt,rrhf)
 ----------------------------------------------------------------------
 -----
 title
 -----
 Symbolic Z-matrix:
 Charge =  0 Multiplicity = 1

 SCF Done:  E(RHF) =  -1973.87776687     A.U. after   14 cycles
 Normal termination of Gaussian 16 at Tue Apr  8 23:25:20 2025.
 Gaussian 16:  ES64L-G16RevC.01  3-Jul-2019

 ----------------------------------------------------------------------
 #t hf aug-cc-pvdz iop(5/13=1,5/36=2,99/5=2) pseudo=read geom=check gue
 ss=(read,tcheck) scf=(maxcycle=1)
 ----------------------------------------------------------------------
 -----
 title
 -----
 Structure from the checkpoint file:  "BDE49_nonexpt_1243_mol1.chk"
 Charge =  0 Multiplicity = 1

                         Standard orientation:
 ---------------------------------------------------------------------
 Center     Atomic      Atomic             Coordinates (Angstroms)
 Number     Number       Type             X           Y           Z
 ---------------------------------------------------------------------
      1         17           0       -0.099186    2.384841    0.089500
      2         15           0       -0.010366    0.618112   -0.982596
      3         16           0        1.733855   -0.304104    0.173218
      4         16           0       -1.717227   -0.558532   -0.102902
      5          8           0        2.844078    0.582914   -0.114805
      6          8           0        1.374219   -0.611974    1.547160
      7          8           0       -2.919131   -0.004742   -0.693475
      8          8           0       -1.315146   -1.931655   -0.381124
      9          6           0        1.973805   -1.852780   -0.704509
     10          1           0        2.811344   -2.342216   -0.204117
     11          1           0        2.222897   -1.629165   -1.740991
     12          1           0        1.061584   -2.441379   -0.618739
     13          6           0       -1.793259   -0.317426    1.673270
     14          1           0       -2.055145    0.720286    1.869452
     15          1           0       -0.832021   -0.587305    2.105329
     16          1           0       -2.588493   -0.987117    2.006842
 ---------------------------------------------------------------------

 SCF Done:  E(RHF) =  -1974.50299779     A.U. after    2 cycles

 The electronic state is 1-A.
 Alpha  occ. eigenvalues -- -105.61826 -94.21659 -94.21520 -84.41087 -20.56791
 Alpha  occ. eigenvalues --  -20.56632 -20.56457 -20.56355 -11.30696 -11.30216
 Alpha  occ. eigenvalues --  -10.66653  -8.47062  -8.46951  -7.83575  -7.83173
 Alpha  occ. eigenvalues --   -7.83158  -6.87601  -6.45139  -6.45022  -6.44913
 Alpha  occ. eigenvalues --   -6.44848  -6.44796  -6.44741  -4.39480  -4.39431
 Alpha  occ. eigenvalues --   -4.38890  -1.57935  -1.57781  -1.46291  -1.46124
 Alpha  occ. eigenvalues --   -1.13091  -1.08539  -1.07739  -0.94627  -0.88286
 Alpha  occ. eigenvalues --   -0.81003  -0.72382  -0.69928  -0.69711  -0.68649
 Alpha  occ. eigenvalues --   -0.68131  -0.67755  -0.63164  -0.62810  -0.62152
 Alpha  occ. eigenvalues --   -0.60763  -0.54671  -0.53789  -0.53005  -0.52303
 Alpha  occ. eigenvalues --   -0.51256  -0.50483  -0.49618  -0.49066  -0.48517
 Alpha  occ. eigenvalues --   -0.41082  -0.38871
 Alpha virt. eigenvalues --    0.03214   0.03482   0.04626   0.04708   0.05479
 Alpha virt. eigenvalues --    0.06056   0.06425   0.07014   0.07577   0.09416
 Alpha virt. eigenvalues --    0.10014   0.11112   0.11664   0.11845   0.13030

 Mulliken charges:
               1
     1  Cl  -0.458617
     2  P    0.918328
     3  S    3.081097
     4  S    3.025966
     5  O   -1.521532
     6  O   -1.602713
     7  O   -1.520781
     8  O   -1.586882
     9  C   -0.826840
    10  H    0.250860
    11  H    0.222421
    12  H    0.213419
    13  C   -0.858206
    14  H    0.222003
    15  H    0.178799
    16  H    0.262678
 Sum of Mulliken charges =  -0.00000

 Dipole moment (field-independent basis, Debye):
    X=              0.3925    Y=             -0.8647    Z=             -0.3807  Tot=              1.0231

 Test job not archived.
 1\1\GINC-SE162\SP\RHF\Aug-CC-pVDZ\C2H6Cl1O4P1S2\OHZDE\08-Apr-2025\0\\#
 t hf aug-cc-pvdz iop(5/13=1,5/36=2,99/5=2) pseudo=read geom=check gues
 s=(read,tcheck) scf=(maxcycle=1)\\title\\0,1\Cl,0,-0.099186,2.384841,0
 .0895\P,0,-0.010366,0.618112,-0.982596\S,0,1.733855,-0.304104,0.173218
 \S,0,-1.717227,-0.558532,-0.102902\O,0,2.844078,0.582914,-0.114805\O,0
 ,1.374219,-0.611974,1.54716\O,0,-2.919131,-0.004742,-0.693475\O,0,-1.3
 15146,-1.931655,-0.381124\C,0,1.973805,-1.85278,-0.704509\H,0,2.811344
 ,-2.342216,-0.204117\H,0,2.222897,-1.629165,-1.740991\H,0,1.061584,-2.

 Normal termination of Gaussian 16 at Tue Apr  8 23:25:29 2025.
