 Gaussian 16, Revision C.01,

 ----------------------------------------------------------------------
 #t hf aug-cc-pvdz symm=none int=(grid=ultrafine) guess=(read,tcheck) s
 table=opt
 ----------------------------------------------------------------------
 -----
 title
 -----
 Symbolic Z-matrix:
 Charge =  0 Multiplicity = 2

 SCF Done:  E(UHF) =  -457.299854658     A.U. after   16 cycles
 Normal termination of Gaussian 16 at Tue Apr  8 23:52:19 2025.
 Gaussian 16:  ES64L-G16RevC.01  3-Jul-2019

 ----------------------------------------------------------------------
 #t hf aug-cc-pvdz iop(5/13=1,5/36=2,99/5=2) pseudo=read geom=check gue
 ss=(read,tcheck) scf=(maxcycle=1)
 ----------------------------------------------------------------------
 -----
 title
 -----
 Structure from the checkpoint file:  "BDE49_nonexpt_1915_mol2.chk"
 Charge =  0 Multiplicity = 2

                         Standard orientation:
 ---------------------------------------------------------------------
 Center     Atomic      Atomic             Coordinates (Angstroms)
 Number     Number       Type             X           Y           Z
 ---------------------------------------------------------------------
      1         14           0       -1.627517   -0.000017   -0.131512
      2          7           0        0.058248    0.000067    0.174071
      3          1           0       -2.213928   -1.223416    0.467376
      4          1           0       -2.213912    1.223443    0.467276
      5          6           0        1.249305   -0.000034    0.035103
      6          8           0        2.413689   -0.000006   -0.065325
 ---------------------------------------------------------------------

 SCF Done:  E(UHF) =  -457.486767995     A.U. after    2 cycles

 The electronic state is 2-A.
 Alpha  occ. eigenvalues --  -69.59000 -20.60239 -15.52673 -11.42231  -6.25684
 Alpha  occ. eigenvalues --   -4.01584  -4.00824  -4.00667  -1.54987  -1.27315
 Alpha  occ. eigenvalues --   -0.89077  -0.73695  -0.67236  -0.66848  -0.65553
 Alpha  occ. eigenvalues --   -0.54151  -0.50915  -0.46429  -0.35377
 Alpha virt. eigenvalues --    0.03671   0.04019   0.05614   0.06118   0.08064
 Alpha virt. eigenvalues --    0.09554   0.10115   0.10603   0.11174   0.13024
 Alpha virt. eigenvalues --    0.16193   0.16651   0.17182   0.19110   0.19712

  Beta  occ. eigenvalues --  -69.58435 -20.60061 -15.52664 -11.42159  -6.24804
  Beta  occ. eigenvalues --   -4.00463  -4.00299  -3.99482  -1.54631  -1.26864
  Beta  occ. eigenvalues --   -0.87458  -0.73322  -0.66726  -0.65995  -0.62499
  Beta  occ. eigenvalues --   -0.53256  -0.48954  -0.45938
  Beta virt. eigenvalues --    0.01165   0.03996   0.04268   0.05736   0.07522
  Beta virt. eigenvalues --    0.08356   0.09768   0.10445   0.10814   0.11683
  Beta virt. eigenvalues --    0.13947   0.17471   0.18009   0.19267   0.20246

 Mulliken charges and spin densities:
               1          2
     1  Si   0.602202   0.907522
     2  N    0.450476  -0.046582
     3  H   -0.137715   0.038167
     4  H   -0.137716   0.038159
     5  C    0.000466   0.026913
     6  O   -0.777714   0.035821
 Sum of Mulliken charges =  -0.00000   1.00000

 Dipole moment (field-independent basis, Debye):
    X=             -1.9186    Y=             -0.0003    Z=             -0.1880  Tot=              1.9278
                          Isotropic Fermi Contact Couplings
        Atom                 a.u.       MegaHertz       Gauss      10(-4) cm-1
     1  Si(29)             0.69582    -618.39482    -220.65865    -206.27431
     2  N(14)              0.00959       3.09709       1.10512       1.03308
     3  H(1)               0.01116      49.89040      17.80214      16.64165
     4  H(1)               0.01116      49.88239      17.79928      16.63897
     5  C(13)              0.00198       2.22456       0.79378       0.74203
     6  O(17)              0.01453      -8.80930      -3.14338      -2.93847
 --------------------------------------------------------
       Center         ----  Spin Dipole Couplings  ----

 1\1\GINC-SE419\SP\UHF\Aug-CC-pVDZ\C1H2N1O1Si1(2)\OHZDE\08-Apr-2025\0\\
 #t hf aug-cc-pvdz iop(5/13=1,5/36=2,99/5=2) pseudo=read geom=check gue
 ss=(read,tcheck) scf=(maxcycle=1)\\title\\0,2\Si,0,1.627517,0.000017,-
 0.131512\N,0,-0.058248,-0.000067,0.174071\H,0,2.213928,1.223416,0.4673
 76\H,0,2.213912,-1.223443,0.467276\C,0,-1.249305,0.000034,0.035103\O,0
 ,-2.413689,0.000006,-0.065325\\Version=ES64L-G16RevC.01\State=2-A\HF=-
 457.486768\S2=0.755304\S2-1=0.\S2A=0.750015\RMSD=1.249e-02\Dipole=0.75
 48382,0.0001181,-0.0739497\Quadrupole=-1.633124,0.9932889,0.639835,-0.

 Normal termination of Gaussian 16 at Tue Apr  8 23:52:22 2025.
