 Gaussian 16, Revision C.01,

 ----------------------------------------------------------------------
 #t hf aug-cc-pvdz symm=none int=(grid=ultrafine) guess=(read,tcheck) s
 table=(opt,rrhf)
 ----------------------------------------------------------------------
 -----
 title
 -----
 Symbolic Z-matrix:
 Charge =  0 Multiplicity = 1

 SCF Done:  E(RHF) =  -585.020376594     A.U. after   15 cycles
 Normal termination of Gaussian 16 at Tue Apr  8 23:27:51 2025.
 Gaussian 16:  ES64L-G16RevC.01  3-Jul-2019

 ----------------------------------------------------------------------
 #t hf aug-cc-pvdz iop(5/13=1,5/36=2,99/5=2) pseudo=read geom=check gue
 ss=(read,tcheck) scf=(maxcycle=1)
 ----------------------------------------------------------------------
 -----
 title
 -----
 Structure from the checkpoint file:  "BDE49_nonexpt_1313_mol1.chk"
 Charge =  0 Multiplicity = 1

                         Standard orientation:
 ---------------------------------------------------------------------
 Center     Atomic      Atomic             Coordinates (Angstroms)
 Number     Number       Type             X           Y           Z
 ---------------------------------------------------------------------
      1         15           0        0.715736   -0.763541   -0.262466
      2          6           0        1.866621    0.583052    0.242821
      3          1           0        2.856973    0.132656    0.361658
      4          1           0        1.573238    1.070209    1.171743
      5          1           0        1.919674    1.324371   -0.554433
      6          7           0       -0.912493    0.124948   -0.004947
      7          8           0       -0.941842    1.333390   -0.175501
      8          8           0       -1.871482   -0.586069    0.244796
      9          1           0        0.608403   -1.425639    0.981360
 ---------------------------------------------------------------------

 SCF Done:  E(RHF) =  -585.301772769     A.U. after    2 cycles

 The electronic state is 1-A.
 Alpha  occ. eigenvalues --  -84.35022 -20.59271 -20.59146 -15.77204 -11.27421
 Alpha  occ. eigenvalues --   -6.81803  -4.34395  -4.33970  -4.33295  -1.66544
 Alpha  occ. eigenvalues --   -1.50706  -1.06127  -0.97544  -0.83883  -0.74459
 Alpha  occ. eigenvalues --   -0.73700  -0.72726  -0.61818  -0.60504  -0.53153
 Alpha  occ. eigenvalues --   -0.48571  -0.46615  -0.45119  -0.39385
 Alpha virt. eigenvalues --    0.02770   0.04534   0.04621   0.05326   0.06387
 Alpha virt. eigenvalues --    0.07679   0.08522   0.09774   0.12586   0.13560
 Alpha virt. eigenvalues --    0.14138   0.15446   0.16139   0.17098   0.18205

 Mulliken charges:
               1
     1  P    0.542858
     2  C   -0.798232
     3  H    0.154583
     4  H    0.109734
     5  H    0.177061
     6  N    1.840942
     7  O   -1.173125
     8  O   -1.232660
     9  H    0.378840
 Sum of Mulliken charges =  -0.00000

 Dipole moment (field-independent basis, Debye):
    X=              4.5885    Y=             -1.0775    Z=              0.3574  Tot=              4.7268

 Test job not archived.
 1\1\GINC-SE094\SP\RHF\Aug-CC-pVDZ\C1H4N1O2P1\OHZDE\08-Apr-2025\0\\#t h
 f aug-cc-pvdz iop(5/13=1,5/36=2,99/5=2) pseudo=read geom=check guess=(
 read,tcheck) scf=(maxcycle=1)\\title\\0,1\P,0,0.715736,-0.763541,-0.26
 2466\C,0,1.866621,0.583052,0.242821\H,0,2.856973,0.132656,0.361658\H,0
 ,1.573238,1.070209,1.171743\H,0,1.919674,1.324371,-0.554433\N,0,-0.912
 493,0.124948,-0.004947\O,0,-0.941842,1.33339,-0.175501\O,0,-1.871482,-
 0.586069,0.244796\H,0,0.608403,-1.425639,0.98136\\Version=ES64L-G16Rev
 C.01\State=1-A\HF=-585.3017728\RMSD=2.076e-02\Dipole=1.8052537,-0.4239

 Normal termination of Gaussian 16 at Tue Apr  8 23:27:54 2025.
