 Gaussian 16, Revision C.01,

 ----------------------------------------------------------------------
 #t hf aug-cc-pvdz symm=none int=(grid=ultrafine) guess=(read,tcheck) s
 table=(opt,rrhf)
 ----------------------------------------------------------------------
 -----
 title
 -----
 Symbolic Z-matrix:
 Charge =  0 Multiplicity = 1

 SCF Done:  E(RHF) =  -851.799566712     A.U. after   15 cycles
 Normal termination of Gaussian 16 at Tue Apr  8 23:29:37 2025.
 Gaussian 16:  ES64L-G16RevC.01  3-Jul-2019

 ----------------------------------------------------------------------
 #t hf aug-cc-pvdz iop(5/13=1,5/36=2,99/5=2) pseudo=read geom=check gue
 ss=(read,tcheck) scf=(maxcycle=1)
 ----------------------------------------------------------------------
 -----
 title
 -----
 Structure from the checkpoint file:  "BDE49_nonexpt_1323_mol1.chk"
 Charge =  0 Multiplicity = 1

                         Standard orientation:
 ---------------------------------------------------------------------
 Center     Atomic      Atomic             Coordinates (Angstroms)
 Number     Number       Type             X           Y           Z
 ---------------------------------------------------------------------
      1          6           0       -1.743268    1.862419    0.032470
      2          6           0       -0.387053    1.554292    0.014981
      3          6           0       -2.705370    0.857211    0.027694
      4          6           0       -2.330390   -0.494600    0.002616
      5          6           0       -0.962089   -0.806104   -0.015180
      6          6           0       -0.005104    0.207708   -0.011387
      7          1           0       -0.633886   -1.839483   -0.034185
      8          1           0       -3.759007    1.117605    0.047117
      9          1           0       -2.060405    2.899212    0.049521
     10          1           0        0.358790    2.338423    0.017078
     11         15           0        1.720514   -0.282938   -0.018534
     12          8           0        1.955544   -1.733707    0.010354
     13          8           0        2.445462    0.504434    1.196360
     14          7           0       -3.286153   -1.505307    0.055530
     15          1           0       -4.205230   -1.257013   -0.278748
     16          1           0       -2.984492   -2.407243   -0.281885
     17          1           0        2.530415   -0.064517    1.970664
     18          8           0        2.288432    0.542624   -1.269086
     19          1           0        3.233311    0.401874   -1.408449
 ---------------------------------------------------------------------

 SCF Done:  E(RHF) =  -852.360267176     A.U. after    2 cycles

 The electronic state is 1-A.
 Alpha  occ. eigenvalues --  -84.42457 -20.58896 -20.58619 -20.49733 -15.51757
 Alpha  occ. eigenvalues --  -11.29599 -11.25779 -11.25510 -11.25021 -11.24920
 Alpha  occ. eigenvalues --  -11.24766  -6.87713  -4.41867  -4.41102  -4.40809
 Alpha  occ. eigenvalues --   -1.52846  -1.46655  -1.38278  -1.23546  -1.14692
 Alpha  occ. eigenvalues --   -1.03702  -1.00793  -0.88993  -0.84817  -0.82231
 Alpha  occ. eigenvalues --   -0.74217  -0.73238  -0.72311  -0.68992  -0.66329
 Alpha  occ. eigenvalues --   -0.63891  -0.63261  -0.61657  -0.60161  -0.56911
 Alpha  occ. eigenvalues --   -0.56323  -0.55081  -0.53502  -0.52921  -0.49279
 Alpha  occ. eigenvalues --   -0.48523  -0.45130  -0.44652  -0.36455  -0.32266
 Alpha virt. eigenvalues --    0.02850   0.03625   0.03858   0.04989   0.05178
 Alpha virt. eigenvalues --    0.05958   0.07650   0.08110   0.08959   0.09104
 Alpha virt. eigenvalues --    0.09776   0.11446   0.11774   0.12505   0.12952

 Mulliken charges:
               1
     1  C    0.324302
     2  C    0.103619
     3  C    0.883983
     4  C   -1.348927
     5  C    0.129027
     6  C   -0.356945
     7  H   -0.373539
     8  H   -0.283724
     9  H   -0.233158
    10  H   -0.375263
    11  P    4.263838
    12  O   -1.479332
    13  O   -1.284394
    14  N    0.719360
    15  H    0.015732
    16  H    0.025733
    17  H    0.275144
    18  O   -1.366010
    19  H    0.360555
 Sum of Mulliken charges =  -0.00000

 Dipole moment (field-independent basis, Debye):
    X=             -1.7664    Y=              1.5885    Z=             -0.1509  Tot=              2.3804

 Test job not archived.
 1\1\GINC-SE367\SP\RHF\Aug-CC-pVDZ\C6H8N1O3P1\OHZDE\08-Apr-2025\0\\#t h
 f aug-cc-pvdz iop(5/13=1,5/36=2,99/5=2) pseudo=read geom=check guess=(
 read,tcheck) scf=(maxcycle=1)\\title\\0,1\C,0,-1.743268,1.862419,0.032
 47\C,0,-0.387053,1.554292,0.014981\C,0,-2.70537,0.857211,0.027694\C,0,
 -2.33039,-0.4946,0.002616\C,0,-0.962089,-0.806104,-0.01518\C,0,-0.0051
 04,0.207708,-0.011387\H,0,-0.633886,-1.839483,-0.034185\H,0,-3.759007,
 1.117605,0.047117\H,0,-2.060405,2.899212,0.049521\H,0,0.35879,2.338423
 ,0.017078\P,0,1.720514,-0.282938,-0.018534\O,0,1.955544,-1.733707,0.01

 Normal termination of Gaussian 16 at Tue Apr  8 23:29:48 2025.
