 Gaussian 16, Revision C.01,

 ----------------------------------------------------------------------
 #t hf aug-cc-pvdz symm=none int=(grid=ultrafine) guess=(read,tcheck) s
 table=opt
 ----------------------------------------------------------------------
 -----
 title
 -----
 Symbolic Z-matrix:
 Charge =  0 Multiplicity = 2

 SCF Done:  E(UHF) =  -165.006578634     A.U. after   16 cycles
 Normal termination of Gaussian 16 at Tue Apr  8 23:34:06 2025.
 Gaussian 16:  ES64L-G16RevC.01  3-Jul-2019

 ----------------------------------------------------------------------
 #t hf aug-cc-pvdz iop(5/13=1,5/36=2,99/5=2) pseudo=read geom=check gue
 ss=(read,tcheck) scf=(maxcycle=1)
 ----------------------------------------------------------------------
 -----
 title
 -----
 Structure from the checkpoint file:  "BDE49_nonexpt_147_mol2.chk"
 Charge =  0 Multiplicity = 2

                         Standard orientation:
 ---------------------------------------------------------------------
 Center     Atomic      Atomic             Coordinates (Angstroms)
 Number     Number       Type             X           Y           Z
 ---------------------------------------------------------------------
      1          5           0        1.470838   -0.943737   -0.000121
      2          5           0        0.176561    0.016856   -0.000096
      3          8           0        0.301318    1.388871    0.000043
      4          6           0       -1.256585   -0.678413    0.000031
      5          1           0       -0.549650    1.838617    0.000131
      6          1           0       -1.237222   -1.771773    0.000007
      7          1           0       -1.830610   -0.367762   -0.882905
      8          1           0       -1.830443   -0.367800    0.883089
      9          1           0        2.339891   -1.737367    0.000230
 ---------------------------------------------------------------------

 SCF Done:  E(UHF) =  -165.174883174     A.U. after    2 cycles

 The electronic state is 2-A.
 Alpha  occ. eigenvalues --  -20.55151 -11.21039  -7.61332  -7.59884  -1.44908
 Alpha  occ. eigenvalues --   -0.95436  -0.77087  -0.68064  -0.61719  -0.57588
 Alpha  occ. eigenvalues --   -0.57081  -0.52179  -0.51801  -0.44668  -0.30608
 Alpha virt. eigenvalues --    0.03138   0.03422   0.03617   0.04767   0.06138
 Alpha virt. eigenvalues --    0.06853   0.07649   0.08386   0.09146   0.09371
 Alpha virt. eigenvalues --    0.10164   0.11815   0.13749   0.14708   0.15989

  Beta  occ. eigenvalues --  -20.54942 -11.21083  -7.60091  -7.59921  -1.44396
  Beta  occ. eigenvalues --   -0.95304  -0.75268  -0.64135  -0.61569  -0.57165
  Beta  occ. eigenvalues --   -0.56292  -0.51885  -0.50183  -0.43852
  Beta virt. eigenvalues --    0.03392   0.03445   0.03773   0.03912   0.06070
  Beta virt. eigenvalues --    0.06290   0.06912   0.08706   0.08933   0.09544
  Beta virt. eigenvalues --    0.10713   0.10722   0.11876   0.13891   0.14991

 Mulliken charges and spin densities:
               1          2
     1  B   -1.262078   0.838699
     2  B    1.897186   0.130940
     3  O   -1.376925   0.074341
     4  C   -0.438832  -0.026091
     5  H    0.560181  -0.001455
     6  H   -0.061280  -0.011856
     7  H    0.049286   0.008975
     8  H    0.049233   0.008971
     9  H    0.583228  -0.022525
 Sum of Mulliken charges =   0.00000   1.00000

 Dipole moment (field-independent basis, Debye):
    X=             -1.1296    Y=             -0.3519    Z=              0.0003  Tot=              1.1831
                          Isotropic Fermi Contact Couplings
        Atom                 a.u.       MegaHertz       Gauss      10(-4) cm-1
     1  B(11)              0.07366     105.66239      37.70297      35.24518
     2  B(11)             -0.02348     -33.67243     -12.01516     -11.23191
     3  O(17)              0.01437      -8.71280      -3.10895      -2.90628
     4  C(13)             -0.00891     -10.01198      -3.57252      -3.33964
     5  H(1)              -0.00197      -8.78690      -3.13538      -2.93099
     6  H(1)              -0.00011      -0.48330      -0.17245      -0.16121
     7  H(1)               0.00269      12.00646       4.28420       4.00493
     8  H(1)               0.00268      11.99704       4.28084       4.00178

 Normal termination of Gaussian 16 at Tue Apr  8 23:34:08 2025.
