 Gaussian 16, Revision C.01,

 ----------------------------------------------------------------------
 #t hf aug-cc-pvdz symm=none int=(grid=ultrafine) guess=(read,tcheck) s
 table=(opt,rrhf)
 ----------------------------------------------------------------------
 -----
 title
 -----
 Symbolic Z-matrix:
 Charge =  0 Multiplicity = 1

 SCF Done:  E(RHF) =  -140.396855740     A.U. after   11 cycles
 Normal termination of Gaussian 16 at Wed Apr  9 00:29:42 2025.
 Gaussian 16:  ES64L-G16RevC.01  3-Jul-2019

 ----------------------------------------------------------------------
 #t hf aug-cc-pvdz iop(5/13=1,5/36=2,99/5=2) pseudo=read geom=check gue
 ss=(read,tcheck) scf=(maxcycle=1)
 ----------------------------------------------------------------------
 -----
 title
 -----
 Structure from the checkpoint file:  "BDE49_nonexpt_328_mol1.chk"
 Charge =  0 Multiplicity = 1

                         Standard orientation:
 ---------------------------------------------------------------------
 Center     Atomic      Atomic             Coordinates (Angstroms)
 Number     Number       Type             X           Y           Z
 ---------------------------------------------------------------------
      1          6           0        1.275561   -0.164127    0.000002
      2          5           0       -0.137504    0.520729    0.000010
      3          1           0        1.852682    0.165525   -0.872405
      4          1           0        1.258462   -1.259835   -0.000006
      5          1           0        1.852683    0.165512    0.872413
      6          8           0       -1.310354   -0.160563   -0.000007
      7          1           0       -0.252110    1.711510    0.000003
      8          1           0       -1.194731   -1.117091   -0.000013
 ---------------------------------------------------------------------

 SCF Done:  E(RHF) =  -140.545154596     A.U. after    2 cycles

 The electronic state is 1-A.
 Alpha  occ. eigenvalues --  -20.56159 -11.21127  -7.61023  -1.46112  -0.95803
 Alpha  occ. eigenvalues --   -0.76078  -0.62416  -0.59710  -0.56588  -0.52337
 Alpha  occ. eigenvalues --   -0.51838  -0.45602
 Alpha virt. eigenvalues --    0.03275   0.04017   0.04596   0.05271   0.07499
 Alpha virt. eigenvalues --    0.07905   0.08232   0.10612   0.12564   0.14855
 Alpha virt. eigenvalues --    0.16029   0.16090   0.16872   0.18496   0.22229

 Mulliken charges:
               1
     1  C   -0.402459
     2  B    0.959666
     3  H    0.054754
     4  H   -0.046565
     5  H    0.054755
     6  O   -1.109085
     7  H   -0.037420
     8  H    0.526355
 Sum of Mulliken charges =  -0.00000

 Dipole moment (field-independent basis, Debye):
    X=              1.0756    Y=             -1.4856    Z=              0.0000  Tot=              1.8341

 Test job not archived.
 1\1\GINC-SE083\SP\RHF\Aug-CC-pVDZ\C1H5B1O1\OHZDE\09-Apr-2025\0\\#t hf
 aug-cc-pvdz iop(5/13=1,5/36=2,99/5=2) pseudo=read geom=check guess=(re
 ad,tcheck) scf=(maxcycle=1)\\title\\0,1\C,0,1.275561,-0.164127,0.00000
 2\B,0,-0.137504,0.520729,0.00001\H,0,1.852682,0.165525,-0.872405\H,0,1
 .258462,-1.259835,-0.000006\H,0,1.852683,0.165512,0.872413\O,0,-1.3103
 54,-0.160563,-0.000007\H,0,-0.25211,1.71151,0.000003\H,0,-1.194731,-1.
 117091,-0.000013\\Version=ES64L-G16RevC.01\State=1-A\HF=-140.5451546\R
 MSD=8.361e-03\Dipole=0.4231863,-0.5844745,0.0000057\Quadrupole=-1.8029

 Normal termination of Gaussian 16 at Wed Apr  9 00:29:45 2025.
