 Gaussian 16, Revision C.01,

 ----------------------------------------------------------------------
 #t hf aug-cc-pvdz symm=none int=(grid=ultrafine) guess=(read,tcheck) s
 table=(opt,rrhf)
 ----------------------------------------------------------------------
 -----
 title
 -----
 Symbolic Z-matrix:
 Charge =  0 Multiplicity = 1

 SCF Done:  E(RHF) =  -1835.99297517     A.U. after   13 cycles
 Normal termination of Gaussian 16 at Tue Apr  8 23:46:24 2025.
 Gaussian 16:  ES64L-G16RevC.01  3-Jul-2019

 ----------------------------------------------------------------------
 #t hf aug-cc-pvdz iop(5/13=1,5/36=2,99/5=2) pseudo=read geom=check gue
 ss=(read,tcheck) scf=(maxcycle=1)
 ----------------------------------------------------------------------
 -----
 title
 -----
 Structure from the checkpoint file:  "BDE49_nonexpt_1783_mol1.chk"
 Charge =  0 Multiplicity = 1

                         Standard orientation:
 ---------------------------------------------------------------------
 Center     Atomic      Atomic             Coordinates (Angstroms)
 Number     Number       Type             X           Y           Z
 ---------------------------------------------------------------------
      1         14           0       -0.219230    0.001303   -0.000001
      2          6           0        1.682031   -0.265069    0.000019
      3         17           0       -0.711419    2.016752   -0.000066
      4         17           0       -1.015202   -0.870601    1.673270
      5         17           0       -1.015184   -0.870706   -1.673225
      6          7           0        2.487197    0.825163   -0.000003
      7          1           0        2.116887    1.761589   -0.000032
      8          1           0        3.489127    0.690677    0.000001
      9          8           0        2.071416   -1.417349    0.000038
 ---------------------------------------------------------------------

 SCF Done:  E(RHF) =  -1836.42013048     A.U. after    2 cycles

 The electronic state is 1-A.
 Alpha  occ. eigenvalues -- -105.59701-105.59009-105.59009 -69.68890 -20.54455
 Alpha  occ. eigenvalues --  -15.55895 -11.38401 -10.64695 -10.64030 -10.64019
 Alpha  occ. eigenvalues --   -7.81580  -7.81268  -7.81252  -7.80924  -7.80917
 Alpha  occ. eigenvalues --   -7.80581  -7.80576  -7.80573  -7.80572  -6.34663
 Alpha  occ. eigenvalues --   -4.10027  -4.10016  -4.09861  -1.48794  -1.25138
 Alpha  occ. eigenvalues --   -1.12448  -1.07387  -1.07061  -0.89042  -0.80897
 Alpha  occ. eigenvalues --   -0.74686  -0.68261  -0.62513  -0.61729  -0.59751
 Alpha  occ. eigenvalues --   -0.58921  -0.53012  -0.52309  -0.52013  -0.49620
 Alpha  occ. eigenvalues --   -0.49435  -0.48128  -0.46116  -0.42783
 Alpha virt. eigenvalues --    0.02692   0.05133   0.05970   0.06088   0.07001
 Alpha virt. eigenvalues --    0.07719   0.08213   0.09999   0.11630   0.12269
 Alpha virt. eigenvalues --    0.12333   0.12921   0.13697   0.15966   0.17005

 Mulliken charges:
               1
     1  Si   1.851821
     2  C    0.081660
     3  Cl  -0.547162
     4  Cl  -0.482582
     5  Cl  -0.482580
     6  N    0.541978
     7  H    0.052957
     8  H    0.080409
     9  O   -1.096501
 Sum of Mulliken charges =  -0.00000

 Dipole moment (field-independent basis, Debye):
    X=              1.1423    Y=              3.1045    Z=             -0.0001  Tot=              3.3080

 Test job not archived.
 1\1\GINC-SE070\SP\RHF\Aug-CC-pVDZ\C1H2Cl3N1O1Si1\OHZDE\08-Apr-2025\0\\
 #t hf aug-cc-pvdz iop(5/13=1,5/36=2,99/5=2) pseudo=read geom=check gue
 ss=(read,tcheck) scf=(maxcycle=1)\\title\\0,1\Si,0,-0.21923,0.001303,-
 0.000001\C,0,1.682031,-0.26507,0.000019\Cl,0,-0.711417,2.016753,-0.000
 066\Cl,0,-1.015203,-0.8706,1.67327\Cl,0,-1.015185,-0.870705,-1.673225\
 N,0,2.487198,0.825161,-0.000003\H,0,2.116889,1.761587,-0.000032\H,0,3.
 489128,0.690674,0.000001\O,0,2.071415,-1.417351,0.000038\\Version=ES64
 L-G16RevC.01\State=1-A\HF=-1836.4201305\RMSD=8.545e-03\Dipole=0.449415

 Normal termination of Gaussian 16 at Tue Apr  8 23:46:28 2025.
