 Gaussian 16, Revision C.01,

 ----------------------------------------------------------------------
 #t hf aug-cc-pvdz symm=none int=(grid=ultrafine) guess=(read,tcheck) s
 table=(opt,rrhf)
 ----------------------------------------------------------------------
 -----
 title
 -----
 Symbolic Z-matrix:
 Charge =  0 Multiplicity = 1

 SCF Done:  E(RHF) =  -951.512366039     A.U. after   17 cycles
 Normal termination of Gaussian 16 at Wed Apr  9 00:48:49 2025.
 Gaussian 16:  ES64L-G16RevC.01  3-Jul-2019

 ----------------------------------------------------------------------
 #t hf aug-cc-pvdz iop(5/13=1,5/36=2,99/5=2) pseudo=read geom=check gue
 ss=(read,tcheck) scf=(maxcycle=1)
 ----------------------------------------------------------------------
 -----
 title
 -----
 Structure from the checkpoint file:  "BDE49_nonexpt_799_mol1.chk"
 Charge =  0 Multiplicity = 1

                         Standard orientation:
 ---------------------------------------------------------------------
 Center     Atomic      Atomic             Coordinates (Angstroms)
 Number     Number       Type             X           Y           Z
 ---------------------------------------------------------------------
      1         14           0        0.006094   -0.129988   -0.298751
      2          5           0       -2.007798   -0.400831   -0.430797
      3          7           0        0.663042   -1.104236    1.157563
      4          7           0        0.258190    1.627436    0.345646
      5          6           0        1.122192   -0.350314   -1.770066
      6          8           0        1.350207    1.958351    0.774170
      7          8           0        0.218303   -0.789533    2.257357
      8          8           0       -2.419517   -1.653981   -0.739620
      9          8           0        1.439512   -2.030180    0.948686
     10          8           0       -2.863334    0.621946   -0.237800
     11          8           0       -0.707478    2.400109    0.245479
     12          6           0        2.623344   -0.065515   -1.579216
     13          1           0        0.703175    0.270510   -2.572596
     14          1           0        0.963565   -1.388744   -2.087207
     15          1           0        2.802003    0.966860   -1.275557
     16          1           0        3.158699   -0.241917   -2.515116
     17          1           0        3.048823   -0.719933   -0.817623
     18          1           0       -2.404479    1.453454   -0.027788
     19          1           0       -3.381497   -1.737372   -0.780559
 ---------------------------------------------------------------------

 SCF Done:  E(RHF) =  -952.184705284     A.U. after    2 cycles

 The electronic state is 1-A.
 Alpha  occ. eigenvalues --  -69.63872 -20.62292 -20.61442 -20.60923 -20.60763
 Alpha  occ. eigenvalues --  -20.59785 -20.58843 -15.78235 -15.77456 -11.27752
 Alpha  occ. eigenvalues --  -11.25722  -7.69230  -6.30673  -4.05980  -4.05897
 Alpha  occ. eigenvalues --   -4.05720  -1.68172  -1.67180  -1.52380  -1.51599
 Alpha  occ. eigenvalues --   -1.51476  -1.47805  -1.07879  -1.03348  -0.99190
 Alpha  occ. eigenvalues --   -0.89520  -0.84808  -0.82024  -0.80728  -0.77131
 Alpha  occ. eigenvalues --   -0.76371  -0.75583  -0.74914  -0.73783  -0.67227
 Alpha  occ. eigenvalues --   -0.65026  -0.63737  -0.60619  -0.60095  -0.58736
 Alpha  occ. eigenvalues --   -0.55596  -0.54049  -0.52539  -0.51717  -0.51294
 Alpha  occ. eigenvalues --   -0.48556  -0.47821  -0.47302  -0.47025  -0.45850
 Alpha virt. eigenvalues --    0.02026   0.02545   0.03040   0.03263   0.03834
 Alpha virt. eigenvalues --    0.04319   0.05774   0.06137   0.06443   0.07921
 Alpha virt. eigenvalues --    0.07963   0.08515   0.09084   0.09225   0.09842

 Mulliken charges:
               1
     1  Si   1.189380
     2  B    1.691530
     3  N    2.071046
     4  N    1.945030
     5  C   -0.617964
     6  O   -1.264469
     7  O   -1.326847
     8  O   -1.205936
     9  O   -1.234739
    10  O   -1.518062
    11  O   -1.237277
    12  C   -0.421886
    13  H    0.044444
    14  H    0.138670
    15  H    0.155236
    16  H    0.126361
    17  H    0.154210
    18  H    0.719303
    19  H    0.591967
 Sum of Mulliken charges =  -0.00000

 Dipole moment (field-independent basis, Debye):
    X=             -1.5600    Y=             -0.8186    Z=             -4.8874  Tot=              5.1952

 Test job not archived.
 1\1\GINC-SE115\SP\RHF\Aug-CC-pVDZ\C2H7B1N2O6Si1\OHZDE\09-Apr-2025\0\\#
 t hf aug-cc-pvdz iop(5/13=1,5/36=2,99/5=2) pseudo=read geom=check gues
 s=(read,tcheck) scf=(maxcycle=1)\\title\\0,1\Si,0,0.006094,-0.129988,-
 0.298751\B,0,-2.007798,-0.400831,-0.430797\N,0,0.663042,-1.104236,1.15
 7563\N,0,0.25819,1.627436,0.345646\C,0,1.122192,-0.350314,-1.770066\O,
 0,1.350207,1.958351,0.77417\O,0,0.218303,-0.789533,2.257357\O,0,-2.419
 517,-1.653981,-0.73962\O,0,1.439511,-2.03018,0.948686\O,0,-2.863334,0.
 621946,-0.2378\O,0,-0.707478,2.400109,0.245479\C,0,2.623344,-0.065516,

 Normal termination of Gaussian 16 at Wed Apr  9 00:49:04 2025.
