 Gaussian 16, Revision C.01,

 ----------------------------------------------------------------------
 #t hf aug-cc-pvdz symm=none int=(grid=ultrafine) guess=(read,tcheck) s
 table=(opt,rrhf)
 ----------------------------------------------------------------------
 -----
 title
 -----
 Symbolic Z-matrix:
 Charge =  0 Multiplicity = 1

 SCF Done:  E(RHF) =  -330.923682725     A.U. after   13 cycles
 Normal termination of Gaussian 16 at Tue Apr  8 23:20:11 2025.
 Gaussian 16:  ES64L-G16RevC.01  3-Jul-2019

 ----------------------------------------------------------------------
 #t hf aug-cc-pvdz iop(5/13=1,5/36=2,99/5=2) pseudo=read geom=check gue
 ss=(read,tcheck) scf=(maxcycle=1)
 ----------------------------------------------------------------------
 -----
 title
 -----
 Structure from the checkpoint file:  "BDE49_nonexpt_1122_mol1.chk"
 Charge =  0 Multiplicity = 1

                         Standard orientation:
 ---------------------------------------------------------------------
 Center     Atomic      Atomic             Coordinates (Angstroms)
 Number     Number       Type             X           Y           Z
 ---------------------------------------------------------------------
      1          9           0       -0.673166   -1.837464    0.000000
      2          8           0        0.532879   -1.023927    0.000000
      3          6           0        0.117182    0.362207   -0.000000
      4          6           0        1.488095    1.053023   -0.000000
      5          1           0        2.061560    0.780965    0.887986
      6          1           0        1.338071    2.134933   -0.000000
      7          1           0        2.061560    0.780965   -0.887986
      8          6           0       -0.673166    0.670970   -1.271981
      9          1           0       -0.919961    1.734724   -1.316987
     10          1           0       -1.601935    0.100070   -1.291241
     11          1           0       -0.087802    0.409559   -2.156017
     12          6           0       -0.673166    0.670970    1.271981
     13          1           0       -0.087802    0.409559    2.156017
     14          1           0       -1.601935    0.100070    1.291241
     15          1           0       -0.919961    1.734724    1.316987
 ---------------------------------------------------------------------

 SCF Done:  E(RHF) =  -331.262082989     A.U. after    2 cycles

 The electronic state is 1-A'.
 Alpha  occ. eigenvalues --  -26.48231 -20.65986 -11.31690 -11.24487 -11.23555
 Alpha  occ. eigenvalues --  -11.23526  -1.63134  -1.35495  -1.08029  -0.95953
 Alpha  occ. eigenvalues --   -0.95704  -0.79104  -0.68978  -0.68810  -0.67278
 Alpha  occ. eigenvalues --   -0.62714  -0.60139  -0.58960  -0.56091  -0.55714
 Alpha  occ. eigenvalues --   -0.53869  -0.52760  -0.52402  -0.49466  -0.46375
 Alpha virt. eigenvalues --    0.03441   0.04036   0.04043   0.04984   0.06645
 Alpha virt. eigenvalues --    0.06736   0.07196   0.07337   0.09662   0.10816
 Alpha virt. eigenvalues --    0.13712   0.14374   0.15047   0.15320   0.15851

 Mulliken charges:
               1
     1  F   -0.462863
     2  O   -0.725530
     3  C   -0.799203
     4  C   -0.027651
     5  H    0.186240
     6  H    0.276012
     7  H    0.186240
     8  C    0.021591
     9  H    0.245936
    10  H    0.222638
    11  H    0.193212
    12  C    0.021591
    13  H    0.193212
    14  H    0.222638
    15  H    0.245936
 Sum of Mulliken charges =  -0.00000

 Dipole moment (field-independent basis, Debye):
    X=              0.1686    Y=              2.8098    Z=              0.0000  Tot=              2.8149

 Test job not archived.
 1\1\GINC-SE329\SP\RHF\Aug-CC-pVDZ\C4H9F1O1\OHZDE\08-Apr-2025\0\\#t hf
 aug-cc-pvdz iop(5/13=1,5/36=2,99/5=2) pseudo=read geom=check guess=(re
 ad,tcheck) scf=(maxcycle=1)\\title\\0,1\F,0,-0.673166,-1.837464,0.\O,0
 ,0.532879,-1.023927,0.\C,0,0.117182,0.362207,0.\C,0,1.488095,1.053023,
 0.\H,0,2.06156,0.780965,0.887986\H,0,1.338071,2.134933,0.\H,0,2.06156,
 0.780965,-0.887986\C,0,-0.673166,0.67097,-1.271981\H,0,-0.919961,1.734
 724,-1.316987\H,0,-1.601935,0.10007,-1.291241\H,0,-0.087802,0.409559,-
 2.156017\C,0,-0.673166,0.67097,1.271981\H,0,-0.087802,0.409559,2.15601

 Normal termination of Gaussian 16 at Tue Apr  8 23:20:14 2025.
