 Gaussian 16, Revision C.01,

 ----------------------------------------------------------------------
 #t hf aug-cc-pvdz symm=none int=(grid=ultrafine) guess=(read,tcheck) s
 table=opt
 ----------------------------------------------------------------------
 -----
 title
 -----
 Symbolic Z-matrix:
 Charge =  0 Multiplicity = 2

 SCF Done:  E(UHF) =  -223.634856379     A.U. after   13 cycles
 Normal termination of Gaussian 16 at Tue Apr  8 23:47:12 2025.
 Gaussian 16:  ES64L-G16RevC.01  3-Jul-2019

 ----------------------------------------------------------------------
 #t hf aug-cc-pvdz iop(5/13=1,5/36=2,99/5=2) pseudo=read geom=check gue
 ss=(read,tcheck) scf=(maxcycle=1)
 ----------------------------------------------------------------------
 -----
 title
 -----
 Structure from the checkpoint file:  "BDE49_nonexpt_17_mol3.chk"
 Charge =  0 Multiplicity = 2

                         Standard orientation:
 ---------------------------------------------------------------------
 Center     Atomic      Atomic             Coordinates (Angstroms)
 Number     Number       Type             X           Y           Z
 ---------------------------------------------------------------------
      1          5           0        0.000000   -0.000000    0.506080
      2          9           0        0.000000    1.142623   -0.140578
      3          9           0       -0.000000   -1.142623   -0.140578
 ---------------------------------------------------------------------

 SCF Done:  E(UHF) =  -223.832518401     A.U. after    2 cycles

 The electronic state is 2-A1.
 Alpha  occ. eigenvalues --  -26.50466 -26.50465  -7.76541  -1.65764  -1.62206
 Alpha  occ. eigenvalues --   -0.83235  -0.77503  -0.73580  -0.71485  -0.65290
 Alpha  occ. eigenvalues --   -0.65139  -0.41714
 Alpha virt. eigenvalues --    0.04303   0.05413   0.05654   0.06857   0.12282
 Alpha virt. eigenvalues --    0.21196   0.22695   0.25207   0.26076   0.26708
 Alpha virt. eigenvalues --    0.28187   0.28222   0.31068   0.33780   0.35250

  Beta  occ. eigenvalues --  -26.50116 -26.50115  -7.74255  -1.64684  -1.61159
  Beta  occ. eigenvalues --   -0.81820  -0.75498  -0.71172  -0.69657  -0.65578
  Beta  occ. eigenvalues --   -0.64272
  Beta virt. eigenvalues --    0.02812   0.04802   0.05776   0.05851   0.12315
  Beta virt. eigenvalues --    0.17497   0.21297   0.23965   0.25929   0.28015
  Beta virt. eigenvalues --    0.28273   0.28329   0.28393   0.31822   0.34259

 Mulliken charges and spin densities:
               1          2
     1  B    0.867970   1.046285
     2  F   -0.433985  -0.023143
     3  F   -0.433985  -0.023143
 Sum of Mulliken charges =   0.00000   1.00000

 Dipole moment (field-independent basis, Debye):
    X=              0.0000    Y=              0.0000    Z=              0.4358  Tot=              0.4358
                          Isotropic Fermi Contact Couplings
        Atom                 a.u.       MegaHertz       Gauss      10(-4) cm-1
     1  B(11)              0.47638     683.30074     243.81870     227.92459
     2  F(19)              0.10616     446.64563     159.37427     148.98495
     3  F(19)              0.10616     446.64563     159.37427     148.98495
 --------------------------------------------------------
       Center         ----  Spin Dipole Couplings  ----
                      3XX-RR        3YY-RR        3ZZ-RR
 --------------------------------------------------------
     1   Atom       -0.156846     -0.199959      0.356805

 Normal termination of Gaussian 16 at Tue Apr  8 23:47:13 2025.
