 Gaussian 16, Revision C.01,

 ----------------------------------------------------------------------
 #t hf aug-cc-pvdz symm=none int=(grid=ultrafine) guess=(read,tcheck) s
 table=opt
 ----------------------------------------------------------------------
 -----
 title
 -----
 Symbolic Z-matrix:
 Charge =  0 Multiplicity = 2

 SCF Done:  E(UHF) =  -737.133928414     A.U. after   19 cycles

 1\1\GINC-SE361\Stability\UHF\Aug-CC-pVDZ\F3O2Si1\OHZDE\09-Apr-2025\0\\
 #t hf aug-cc-pvdz symm=none int=(grid=ultrafine) guess=(read,tcheck) s
 table=opt\\title\\0,2\O,0,-2.117344,-0.031496,-0.000014\O,0,-1.10064,0
 .86483,-0.000035\Si,0,0.332559,-0.006203,0.000003\F,0,0.436118,-0.9013
 83,-1.282121\F,0,1.470898,1.071591,-0.000024\F,0,0.4361,-0.9013,1.2821
 85\\Version=ES64L-G16RevC.01\HF=-737.1339284\S2=0.76269\S2-1=0.\S2A=0.
 750123\RMSD=8.795e-09\Dipole=0.0976651,-0.0540264,0.0000044\Quadrupole
 =-0.1081976,-0.3467289,0.4549265,0.1123685,-0.0000054,0.0000228\PG=Unk

 Normal termination of Gaussian 16 at Wed Apr  9 00:05:02 2025.
 Gaussian 16:  ES64L-G16RevC.01  3-Jul-2019

 ----------------------------------------------------------------------
 #t hf aug-cc-pvdz iop(5/13=1,5/36=2,99/5=2) pseudo=read geom=check gue
 ss=(read,tcheck) scf=(maxcycle=1)
 ----------------------------------------------------------------------
 -----
 title
 -----
 Structure from the checkpoint file:  "BDE49_nonexpt_2212_mol2.chk"
 Charge =  0 Multiplicity = 2

                         Standard orientation:
 ---------------------------------------------------------------------
 Center     Atomic      Atomic             Coordinates (Angstroms)
 Number     Number       Type             X           Y           Z
 ---------------------------------------------------------------------
      1          8           0       -2.117344   -0.031496   -0.000014
      2          8           0       -1.100640    0.864830   -0.000035
      3         14           0        0.332559   -0.006203    0.000003
      4          9           0        0.436118   -0.901383   -1.282121
      5          9           0        1.470898    1.071591   -0.000024
      6          9           0        0.436100   -0.901300    1.282185
 ---------------------------------------------------------------------

 SCF Done:  E(UHF) =  -737.568281434     A.U. after    2 cycles

 The electronic state is 2-A.
 Alpha  occ. eigenvalues --  -69.73417 -26.51399 -26.51398 -26.51345 -20.72006
 Alpha  occ. eigenvalues --  -20.67260  -6.39004  -4.14378  -4.14336  -4.14233
 Alpha  occ. eigenvalues --   -1.70848  -1.65256  -1.62266  -1.62249  -1.30063
 Alpha  occ. eigenvalues --   -0.85591  -0.78933  -0.77778  -0.76750  -0.75567
 Alpha  occ. eigenvalues --   -0.70956  -0.69981  -0.69699  -0.68796  -0.67380
 Alpha  occ. eigenvalues --   -0.66569  -0.65612  -0.54898  -0.53290
 Alpha virt. eigenvalues --    0.05602   0.05811   0.05886   0.06665   0.13602
 Alpha virt. eigenvalues --    0.17759   0.18767   0.19470   0.19553   0.21858
 Alpha virt. eigenvalues --    0.23470   0.24228   0.24643   0.24987   0.26068

  Beta  occ. eigenvalues --  -69.73421 -26.51405 -26.51404 -26.51354 -20.67799
  Beta  occ. eigenvalues --  -20.66792  -6.39011  -4.14381  -4.14333  -4.14249
  Beta  occ. eigenvalues --   -1.66383  -1.63396  -1.62279  -1.62269  -1.19950
  Beta  occ. eigenvalues --   -0.85259  -0.77087  -0.76678  -0.76416  -0.70534
  Beta  occ. eigenvalues --   -0.70296  -0.68943  -0.67915  -0.67887  -0.65664
  Beta  occ. eigenvalues --   -0.65610  -0.59313  -0.49967
  Beta virt. eigenvalues --    0.05638   0.05653   0.05822   0.06712   0.07012
  Beta virt. eigenvalues --    0.14100   0.17817   0.18881   0.19755   0.21858
  Beta virt. eigenvalues --    0.22389   0.23471   0.24641   0.25180   0.25265

 Mulliken charges and spin densities:
               1          2
     1  O   -0.142763   0.999806
     2  O   -0.748725   0.012111
     3  Si   3.499343  -0.018822
     4  F   -0.880831   0.004528
     5  F   -0.846192  -0.002150
     6  F   -0.880832   0.004528
 Sum of Mulliken charges =   0.00000   1.00000

 Dipole moment (field-independent basis, Debye):
    X=              0.3219    Y=             -0.1660    Z=              0.0000  Tot=              0.3622
                          Isotropic Fermi Contact Couplings
        Atom                 a.u.       MegaHertz       Gauss      10(-4) cm-1
     1  O(17)              0.25846    -156.68037     -55.90745     -52.26295
     2  O(17)              0.05051     -30.61898     -10.92561     -10.21339
     3  Si(29)            -0.00879       7.81160       2.78737       2.60567
     4  F(19)             -0.00147      -6.20448      -2.21391      -2.06959
     5  F(19)             -0.00163      -6.87085      -2.45169      -2.29187
     6  F(19)             -0.00147      -6.20448      -2.21391      -2.06959
 --------------------------------------------------------
       Center         ----  Spin Dipole Couplings  ----

 Normal termination of Gaussian 16 at Wed Apr  9 00:05:04 2025.
