 Gaussian 16, Revision C.01,

 ----------------------------------------------------------------------
 #t hf aug-cc-pvdz symm=none int=(grid=ultrafine) guess=(read,tcheck) s
 table=(opt,rrhf)
 ----------------------------------------------------------------------
 -----
 title
 -----
 Symbolic Z-matrix:
 Charge =  0 Multiplicity = 1

 SCF Done:  E(RHF) =  -770.047141144     A.U. after   13 cycles
 Normal termination of Gaussian 16 at Wed Apr  9 00:10:59 2025.
 Gaussian 16:  ES64L-G16RevC.01  3-Jul-2019

 ----------------------------------------------------------------------
 #t hf aug-cc-pvdz iop(5/13=1,5/36=2,99/5=2) pseudo=read geom=check gue
 ss=(read,tcheck) scf=(maxcycle=1)
 ----------------------------------------------------------------------
 -----
 title
 -----
 Structure from the checkpoint file:  "BDE49_nonexpt_2365_mol1.chk"
 Charge =  0 Multiplicity = 1

                         Standard orientation:
 ---------------------------------------------------------------------
 Center     Atomic      Atomic             Coordinates (Angstroms)
 Number     Number       Type             X           Y           Z
 ---------------------------------------------------------------------
      1         14           0        0.418179    0.776449    0.121232
      2         14           0        2.443186   -0.426133    0.013870
      3          8           0       -0.728807   -0.364266   -0.354173
      4          1           0        0.419162    1.939007   -0.796929
      5          1           0        0.133949    1.262017    1.493433
      6          1           0        3.545850    0.474249    0.433474
      7          1           0        2.708298   -0.892583   -1.366835
      8          1           0        2.410817   -1.593212    0.926264
      9          8           0       -2.038458    0.312525   -0.363144
     10          6           0       -2.933381   -0.563948    0.298268
     11          1           0       -3.901341   -0.060742    0.233790
     12          1           0       -2.656373   -0.706108    1.347813
     13          1           0       -2.981062   -1.529424   -0.213514
 ---------------------------------------------------------------------

 SCF Done:  E(RHF) =  -770.305316649     A.U. after    2 cycles

 The electronic state is 1-A.
 Alpha  occ. eigenvalues --  -69.56128 -69.52865 -20.62026 -20.59573 -11.29479
 Alpha  occ. eigenvalues --   -6.22842  -6.20092  -3.98286  -3.98152  -3.98113
 Alpha  occ. eigenvalues --   -3.95447  -3.95441  -3.95438  -1.56704  -1.28999
 Alpha  occ. eigenvalues --   -0.92766  -0.78276  -0.71981  -0.66864  -0.65471
 Alpha  occ. eigenvalues --   -0.63972  -0.56273  -0.54543  -0.51470  -0.49251
 Alpha  occ. eigenvalues --   -0.49188  -0.47022  -0.43381  -0.41326
 Alpha virt. eigenvalues --    0.03728   0.03935   0.04576   0.05417   0.05826
 Alpha virt. eigenvalues --    0.06868   0.07299   0.07572   0.08735   0.09086
 Alpha virt. eigenvalues --    0.09418   0.09754   0.10602   0.11196   0.12356

 Mulliken charges:
               1
     1  Si   1.389346
     2  Si   0.187981
     3  O   -0.799441
     4  H   -0.180856
     5  H   -0.186133
     6  H   -0.125829
     7  H   -0.118347
     8  H   -0.125574
     9  O   -0.773427
    10  C    0.421121
    11  H    0.047399
    12  H    0.124777
    13  H    0.138982
 Sum of Mulliken charges =  -0.00000

 Dipole moment (field-independent basis, Debye):
    X=             -0.5538    Y=             -0.1709    Z=              1.0900  Tot=              1.2345

 Test job not archived.
 1\1\GINC-SE335\SP\RHF\Aug-CC-pVDZ\C1H8O2Si2\OHZDE\09-Apr-2025\0\\#t hf
  aug-cc-pvdz iop(5/13=1,5/36=2,99/5=2) pseudo=read geom=check guess=(r
 ead,tcheck) scf=(maxcycle=1)\\title\\0,1\Si,0,0.418179,0.776449,0.1212
 32\Si,0,2.443186,-0.426133,0.01387\O,0,-0.728807,-0.364266,-0.354173\H
 ,0,0.419162,1.939007,-0.796929\H,0,0.133949,1.262017,1.493433\H,0,3.54
 585,0.474249,0.433474\H,0,2.708298,-0.892583,-1.366835\H,0,2.410817,-1
 .593212,0.926264\O,0,-2.038458,0.312525,-0.363144\C,0,-2.933381,-0.563
 948,0.298268\H,0,-3.901341,-0.060742,0.23379\H,0,-2.656373,-0.706108,1

 Normal termination of Gaussian 16 at Wed Apr  9 00:11:02 2025.
