 Gaussian 16, Revision C.01,

 ----------------------------------------------------------------------
 #t hf aug-cc-pvdz symm=none int=(grid=ultrafine) guess=(read,tcheck) s
 table=(opt,rrhf)
 ----------------------------------------------------------------------
 -----
 title
 -----
 Symbolic Z-matrix:
 Charge =  0 Multiplicity = 1

 SCF Done:  E(RHF) =  -899.802465139     A.U. after   14 cycles
 Normal termination of Gaussian 16 at Tue Apr  8 22:54:41 2025.
 Gaussian 16:  ES64L-G16RevC.01  3-Jul-2019

 ----------------------------------------------------------------------
 #t hf aug-cc-pvdz iop(5/13=1,5/36=2,99/5=2) pseudo=read geom=check gue
 ss=(read,tcheck) scf=(maxcycle=1)
 ----------------------------------------------------------------------
 -----
 title
 -----
 Structure from the checkpoint file:  "BDE49_expt_1833_mol1.chk"
 Charge =  0 Multiplicity = 1

                         Standard orientation:
 ---------------------------------------------------------------------
 Center     Atomic      Atomic             Coordinates (Angstroms)
 Number     Number       Type             X           Y           Z
 ---------------------------------------------------------------------
      1         16           0       -0.711607    0.000000   -0.104069
      2          8           0       -1.237401    1.262690   -0.473692
      3          8           0       -1.237403   -1.262689   -0.473694
      4          7           0        1.021088   -0.000000   -0.630625
      5          9           0       -0.490852   -0.000001    1.482837
      6          9           0        1.580789    1.088133    0.017391
      7          9           0        1.580788   -1.088135    0.017391
 ---------------------------------------------------------------------

 SCF Done:  E(RHF) =  -900.325820638     A.U. after    2 cycles

 The electronic state is 1-A.
 Alpha  occ. eigenvalues --  -94.34196 -26.57076 -26.57028 -26.57023 -20.63686
 Alpha  occ. eigenvalues --  -20.63685 -15.79492  -8.58633  -6.56630  -6.56538
 Alpha  occ. eigenvalues --   -6.56360  -1.74971  -1.72195  -1.64699  -1.62086
 Alpha  occ. eigenvalues --   -1.54787  -1.19854  -0.97854  -0.87622  -0.83351
 Alpha  occ. eigenvalues --   -0.83201  -0.79535  -0.77897  -0.73701  -0.71278
 Alpha  occ. eigenvalues --   -0.69814  -0.69540  -0.67226  -0.62773  -0.60727
 Alpha  occ. eigenvalues --   -0.57593  -0.55310  -0.54870
 Alpha virt. eigenvalues --    0.07258   0.08536   0.08717   0.09190   0.11821
 Alpha virt. eigenvalues --    0.12790   0.13195   0.14573   0.16128   0.18623
 Alpha virt. eigenvalues --    0.19030   0.19890   0.21054   0.24872   0.25880

 Mulliken charges:
               1
     1  S    3.428871
     2  O   -1.242192
     3  O   -1.242192
     4  N    0.843575
     5  F   -0.669501
     6  F   -0.559280
     7  F   -0.559280
 Sum of Mulliken charges =  -0.00000

 Dipole moment (field-independent basis, Debye):
    X=              0.4932    Y=             -0.0000    Z=              0.6989  Tot=              0.8554

 Test job not archived.
 1\1\GINC-SE086\SP\RHF\Aug-CC-pVDZ\F3N1O2S1\OHZDE\08-Apr-2025\0\\#t hf
 aug-cc-pvdz iop(5/13=1,5/36=2,99/5=2) pseudo=read geom=check guess=(re
 ad,tcheck) scf=(maxcycle=1)\\title\\0,1\S,0,-0.711607,0.,-0.104069\O,0
 ,-1.237401,1.26269,-0.473692\O,0,-1.237402,-1.262689,-0.473694\N,0,1.0
 21088,0.,-0.630625\F,0,-0.490852,-0.000001,1.482837\F,0,1.580789,1.088
 134,0.017391\F,0,1.580788,-1.088134,0.017391\\Version=ES64L-G16RevC.01
 \State=1-A\HF=-900.3258206\RMSD=7.596e-03\Dipole=0.1940568,-0.000001,0
 .2749775\Quadrupole=0.3626217,-1.3828278,1.020206,0.,-0.7535694,-0.000

 Normal termination of Gaussian 16 at Tue Apr  8 22:54:44 2025.
