 Gaussian 16, Revision C.01,

 ----------------------------------------------------------------------
 #t hf aug-cc-pvdz symm=none int=(grid=ultrafine) guess=(read,tcheck) s
 table=(opt,rrhf)
 ----------------------------------------------------------------------
 -----
 title
 -----
 Symbolic Z-matrix:
 Charge =  0 Multiplicity = 1

 SCF Done:  E(RHF) =  -971.201701423     A.U. after   13 cycles
 Normal termination of Gaussian 16 at Tue Apr  8 23:54:49 2025.
 Gaussian 16:  ES64L-G16RevC.01  3-Jul-2019

 ----------------------------------------------------------------------
 #t hf aug-cc-pvdz iop(5/13=1,5/36=2,99/5=2) pseudo=read geom=check gue
 ss=(read,tcheck) scf=(maxcycle=1)
 ----------------------------------------------------------------------
 -----
 title
 -----
 Structure from the checkpoint file:  "BDE49_nonexpt_1957_mol1.chk"
 Charge =  0 Multiplicity = 1

                         Standard orientation:
 ---------------------------------------------------------------------
 Center     Atomic      Atomic             Coordinates (Angstroms)
 Number     Number       Type             X           Y           Z
 ---------------------------------------------------------------------
      1         14           0       -2.986965    0.187515   -0.040090
      2          6           0       -1.294568   -0.643963    0.152282
      3         15           0        1.250528    0.010679    0.096605
      4          8           0        1.578667   -0.984487   -1.109789
      5          8           0        1.960988    1.362728   -0.360858
      6          1           0        2.143947    1.936937    0.391952
      7          8           0        1.606535   -0.476172    1.431349
      8          8           0       -0.277819    0.348689   -0.168735
      9          1           0       -3.096104    1.325908    0.897529
     10          1           0       -4.024934   -0.821643    0.277453
     11          1           0       -3.162189    0.661241   -1.429660
     12          1           0        2.349601   -1.531488   -0.918746
     13          1           0       -1.190891   -1.494065   -0.529197
     14          1           0       -1.139394   -1.004583    1.173424
 ---------------------------------------------------------------------

 SCF Done:  E(RHF) =  -971.618907528     A.U. after    2 cycles

 The electronic state is 1-A.
 Alpha  occ. eigenvalues --  -84.45952 -69.53862 -20.59885 -20.59778 -20.58673
 Alpha  occ. eigenvalues --  -20.50995 -11.30058  -6.90838  -6.21000  -4.45022
 Alpha  occ. eigenvalues --   -4.44338  -4.44308  -3.96378  -3.96365  -3.96352
 Alpha  occ. eigenvalues --   -1.56370  -1.48323  -1.47823  -1.39322  -0.97360
 Alpha  occ. eigenvalues --   -0.85171  -0.75541  -0.73515  -0.72233  -0.67567
 Alpha  occ. eigenvalues --   -0.65309  -0.63434  -0.59992  -0.57356  -0.55028
 Alpha  occ. eigenvalues --   -0.53926  -0.50892  -0.49778  -0.48782  -0.46969
 Alpha  occ. eigenvalues --   -0.46396  -0.45595
 Alpha virt. eigenvalues --    0.03439   0.03865   0.04294   0.05063   0.05446
 Alpha virt. eigenvalues --    0.06881   0.08366   0.08685   0.09164   0.09603
 Alpha virt. eigenvalues --    0.11081   0.11354   0.12860   0.13721   0.14975

 Mulliken charges:
               1
     1  Si   0.957573
     2  C    0.068962
     3  P    4.322356
     4  O   -1.239658
     5  O   -1.222683
     6  H    0.345685
     7  O   -1.373942
     8  O   -1.748409
     9  H   -0.194450
    10  H   -0.171050
    11  H   -0.189374
    12  H    0.332093
    13  H    0.052918
    14  H    0.059978
 Sum of Mulliken charges =  -0.00000

 Dipole moment (field-independent basis, Debye):
    X=             -0.4460    Y=             -0.1738    Z=             -0.8117  Tot=              0.9423

 Test job not archived.
 1\1\GINC-SE396\SP\RHF\Aug-CC-pVDZ\C1H7O4P1Si1\OHZDE\08-Apr-2025\0\\#t
 hf aug-cc-pvdz iop(5/13=1,5/36=2,99/5=2) pseudo=read geom=check guess=
 (read,tcheck) scf=(maxcycle=1)\\title\\0,1\Si,0,-2.986965,0.187515,-0.
 04009\C,0,-1.294568,-0.643963,0.152282\P,0,1.250528,0.010679,0.096605\
 O,0,1.578667,-0.984487,-1.109789\O,0,1.960988,1.362728,-0.360858\H,0,2
 .143947,1.936937,0.391952\O,0,1.606535,-0.476172,1.431349\O,0,-0.27781
 9,0.348689,-0.168735\H,0,-3.096104,1.325908,0.897529\H,0,-4.024934,-0.
 821643,0.277453\H,0,-3.162189,0.661241,-1.42966\H,0,2.349601,-1.531488

 Normal termination of Gaussian 16 at Tue Apr  8 23:54:54 2025.
