 Gaussian 16, Revision C.01,

 ----------------------------------------------------------------------
 #t hf aug-cc-pvdz symm=none int=(grid=ultrafine) guess=(read,tcheck) s
 table=opt
 ----------------------------------------------------------------------
 -----
 title
 -----
 Symbolic Z-matrix:
 Charge =  0 Multiplicity = 2

 SCF Done:  E(UHF) =  -591.776888607     A.U. after   19 cycles
 Normal termination of Gaussian 16 at Tue Apr  8 23:30:06 2025.
 Gaussian 16:  ES64L-G16RevC.01  3-Jul-2019

 ----------------------------------------------------------------------
 #t hf aug-cc-pvdz iop(5/13=1,5/36=2,99/5=2) pseudo=read geom=check gue
 ss=(read,tcheck) scf=(maxcycle=1)
 ----------------------------------------------------------------------
 -----
 title
 -----
 Structure from the checkpoint file:  "BDE49_nonexpt_136_mol2.chk"
 Charge =  0 Multiplicity = 2

                         Standard orientation:
 ---------------------------------------------------------------------
 Center     Atomic      Atomic             Coordinates (Angstroms)
 Number     Number       Type             X           Y           Z
 ---------------------------------------------------------------------
      1          5           0        1.496598   -0.299612   -1.117809
      2         15           0        0.060474   -0.017695    0.034204
      3          8           0       -0.814468    1.295867   -0.263920
      4          8           0       -1.129224   -1.053735   -0.241843
      5          1           0       -0.380871    2.090975    0.067825
      6          1           0       -0.835601   -1.967003   -0.142129
      7          8           0        0.748812   -0.079808    1.344326
      8          1           0        2.385419    0.340913   -1.558208
 ---------------------------------------------------------------------

 SCF Done:  E(UHF) =  -592.064520360     A.U. after    2 cycles

 The electronic state is 2-A.
 Alpha  occ. eigenvalues --  -84.42843 -20.60083 -20.59990 -20.51137  -7.66840
 Alpha  occ. eigenvalues --   -6.88230  -4.42338  -4.41585  -4.40714  -1.54201
 Alpha  occ. eigenvalues --   -1.47869  -1.39215  -0.88562  -0.77876  -0.69873
 Alpha  occ. eigenvalues --   -0.67222  -0.63693  -0.61901  -0.57049  -0.55641
 Alpha  occ. eigenvalues --   -0.50711  -0.47093  -0.44341  -0.36958
 Alpha virt. eigenvalues --    0.01501   0.03486   0.03806   0.04716   0.06838
 Alpha virt. eigenvalues --    0.07491   0.09948   0.10224   0.11581   0.12231
 Alpha virt. eigenvalues --    0.13481   0.16098   0.18370   0.20229   0.21513

  Beta  occ. eigenvalues --  -84.42849 -20.60020 -20.59936 -20.51065  -7.65059
  Beta  occ. eigenvalues --   -6.88235  -4.42344  -4.41592  -4.40713  -1.54055
  Beta  occ. eigenvalues --   -1.47700  -1.39032  -0.87766  -0.74965  -0.69747
  Beta  occ. eigenvalues --   -0.65789  -0.63263  -0.60966  -0.56820  -0.55000
  Beta  occ. eigenvalues --   -0.50113  -0.45881  -0.43416
  Beta virt. eigenvalues --    0.02231   0.02846   0.03714   0.04614   0.06023
  Beta virt. eigenvalues --    0.07702   0.08429   0.10124   0.10369   0.11718
  Beta virt. eigenvalues --    0.12453   0.15080   0.16337   0.19241   0.20435

 Mulliken charges and spin densities:
               1          2
     1  B   -0.501979   1.025429
     2  P    3.378391  -0.003453
     3  O   -1.334526   0.016262
     4  O   -1.320078  -0.005287
     5  H    0.387653  -0.009831
     6  H    0.414443  -0.004992
     7  O   -1.419058   0.013366
     8  H    0.395155  -0.031492
 Sum of Mulliken charges =  -0.00000   1.00000

 Dipole moment (field-independent basis, Debye):
    X=              0.4417    Y=              0.2666    Z=             -2.7295  Tot=              2.7778
                          Isotropic Fermi Contact Couplings
        Atom                 a.u.       MegaHertz       Gauss      10(-4) cm-1
     1  B(11)              0.21166     303.59391     108.32986     101.26803
     2  P(31)             -0.00481      -8.71438      -3.10951      -2.90680
     3  O(17)              0.01920     -11.63955      -4.15328      -3.88254
     4  O(17)             -0.00663       4.01972       1.43433       1.34083
     5  H(1)              -0.00063      -2.79695      -0.99802      -0.93296
     6  H(1)               0.00013       0.59390       0.21192       0.19810
     7  O(17)              0.00490      -2.97324      -1.06093      -0.99177
     8  H(1)              -0.00832     -37.19110     -13.27071     -12.40561

 Normal termination of Gaussian 16 at Tue Apr  8 23:30:10 2025.
