 Gaussian 16, Revision C.01,

 ----------------------------------------------------------------------
 #t hf aug-cc-pvdz symm=none int=(grid=ultrafine) guess=(read,tcheck) s
 table=opt
 ----------------------------------------------------------------------
 -----
 title
 -----
 Symbolic Z-matrix:
 Charge =  0 Multiplicity = 2

 SCF Done:  E(UHF) =  -970.619718525     A.U. after   15 cycles
 Normal termination of Gaussian 16 at Wed Apr  9 00:14:08 2025.
 Gaussian 16:  ES64L-G16RevC.01  3-Jul-2019

 ----------------------------------------------------------------------
 #t hf aug-cc-pvdz iop(5/13=1,5/36=2,99/5=2) pseudo=read geom=check gue
 ss=(read,tcheck) scf=(maxcycle=1)
 ----------------------------------------------------------------------
 -----
 title
 -----
 Structure from the checkpoint file:  "BDE49_nonexpt_2449_mol2.chk"
 Charge =  0 Multiplicity = 2

                         Standard orientation:
 ---------------------------------------------------------------------
 Center     Atomic      Atomic             Coordinates (Angstroms)
 Number     Number       Type             X           Y           Z
 ---------------------------------------------------------------------
      1         14           0        2.417024    0.469825   -0.101607
      2         15           0       -0.457371   -0.486519    0.129720
      3          8           0       -0.661633    1.073552   -0.109944
      4          8           0       -0.948449   -1.124023   -1.257939
      5          1           0       -1.370065   -1.979116   -1.114116
      6          8           0       -1.095333   -1.083006    1.302024
      7          8           0        1.114436   -0.573128    0.066615
      8          1           0        2.341911    1.521490    0.944242
      9          1           0        3.610134   -0.391021    0.084916
     10          6           0       -1.986891    1.640721   -0.053015
     11          1           0       -1.858211    2.720743   -0.076582
     12          1           0       -2.485624    1.340472    0.869815
     13          1           0       -2.566739    1.316175   -0.919537
 ---------------------------------------------------------------------

 SCF Done:  E(UHF) =  -971.029831877     A.U. after    2 cycles

 The electronic state is 2-A.
 Alpha  occ. eigenvalues --  -84.45987 -69.59163 -20.59383 -20.58697 -20.57979
 Alpha  occ. eigenvalues --  -20.50446 -11.31209  -6.90777  -6.25688  -4.44997
 Alpha  occ. eigenvalues --   -4.44329  -4.44273  -4.01556  -4.00842  -4.00652
 Alpha  occ. eigenvalues --   -1.56072  -1.47940  -1.47222  -1.38897  -0.97817
 Alpha  occ. eigenvalues --   -0.86365  -0.77795  -0.72346  -0.68118  -0.67041
 Alpha  occ. eigenvalues --   -0.65323  -0.63112  -0.61248  -0.58319  -0.55975
 Alpha  occ. eigenvalues --   -0.54760  -0.52145  -0.49729  -0.49499  -0.46184
 Alpha  occ. eigenvalues --   -0.45606  -0.35482
 Alpha virt. eigenvalues --    0.03384   0.04123   0.04410   0.05847   0.06157
 Alpha virt. eigenvalues --    0.06391   0.07290   0.07972   0.09304   0.11088
 Alpha virt. eigenvalues --    0.12199   0.13097   0.13359   0.13729   0.14344

  Beta  occ. eigenvalues --  -84.45991 -69.58600 -20.59388 -20.58699 -20.57684
  Beta  occ. eigenvalues --  -20.50435 -11.31210  -6.90783  -6.24801  -4.45002
  Beta  occ. eigenvalues --   -4.44337  -4.44275  -4.00496  -4.00299  -3.99472
  Beta  occ. eigenvalues --   -1.55884  -1.47942  -1.46655  -1.38832  -0.97802
  Beta  occ. eigenvalues --   -0.85665  -0.76502  -0.72247  -0.67475  -0.66181
  Beta  occ. eigenvalues --   -0.65046  -0.61981  -0.60096  -0.57613  -0.55333
  Beta  occ. eigenvalues --   -0.54283  -0.51938  -0.49652  -0.48268  -0.45797
  Beta  occ. eigenvalues --   -0.45577
  Beta virt. eigenvalues --    0.02171   0.03569   0.04232   0.04541   0.05960
  Beta virt. eigenvalues --    0.06436   0.06582   0.08009   0.09017   0.09868
  Beta virt. eigenvalues --    0.11299   0.12337   0.13214   0.13801   0.14017

 Mulliken charges and spin densities:
               1          2
     1  Si   1.160213   0.907522
     2  P    4.383361   0.004132
     3  O   -1.578105  -0.018532
     4  O   -1.258512   0.005907
     5  H    0.351373   0.000571
     6  O   -1.352061   0.000178
     7  O   -1.978749  -0.000301
     8  H   -0.115933   0.057113
     9  H   -0.164506   0.048164
    10  C    0.227114  -0.003813
    11  H    0.009781  -0.000492
    12  H    0.162848   0.000269
    13  H    0.153175  -0.000718
 Sum of Mulliken charges =  -0.00000   1.00000

 Dipole moment (field-independent basis, Debye):
    X=             -0.0664    Y=              1.6448    Z=             -2.1269  Tot=              2.6895
                          Isotropic Fermi Contact Couplings
        Atom                 a.u.       MegaHertz       Gauss      10(-4) cm-1
     1  Si(29)             0.71978    -639.68523    -228.25560    -213.37603
     2  P(31)             -0.00537      -9.72814      -3.47124      -3.24496
     3  O(17)             -0.00135       0.81795       0.29186       0.27284
     4  O(17)             -0.00101       0.61226       0.21847       0.20423
     5  H(1)               0.00000       0.01389       0.00496       0.00463
     6  O(17)              0.00097      -0.58955      -0.21036      -0.19665
     7  O(17)              0.03585     -21.73052      -7.75399      -7.24852
     8  H(1)               0.01547      69.13136      24.66779      23.05974

 1\1\GINC-SE398\SP\UHF\Aug-CC-pVDZ\C1H6O4P1Si1(2)\OHZDE\09-Apr-2025\0\\
 #t hf aug-cc-pvdz iop(5/13=1,5/36=2,99/5=2) pseudo=read geom=check gue
 ss=(read,tcheck) scf=(maxcycle=1)\\title\\0,2\Si,0,2.417024,0.469825,-
 0.101607\P,0,-0.457371,-0.486519,0.12972\O,0,-0.661633,1.073552,-0.109
 944\O,0,-0.948449,-1.124023,-1.257939\H,0,-1.370065,-1.979116,-1.11411
 6\O,0,-1.095333,-1.083006,1.302024\O,0,1.114436,-0.573128,0.066615\H,0
 ,2.341911,1.52149,0.944242\H,0,3.610134,-0.39102,0.084916\C,0,-1.98689
 1,1.640721,-0.053015\H,0,-1.858211,2.720743,-0.076582\H,0,-2.485624,1.

 Normal termination of Gaussian 16 at Wed Apr  9 00:14:12 2025.
