 Gaussian 16, Revision C.01,

 ----------------------------------------------------------------------
 #t hf aug-cc-pvdz symm=none int=(grid=ultrafine) guess=(read,tcheck) s
 table=(opt,rrhf)
 ----------------------------------------------------------------------
 -----
 title
 -----
 Symbolic Z-matrix:
 Charge =  0 Multiplicity = 1

 SCF Done:  E(RHF) =  -837.766469805     A.U. after   16 cycles
 Normal termination of Gaussian 16 at Tue Apr  8 23:20:24 2025.
 Gaussian 16:  ES64L-G16RevC.01  3-Jul-2019

 ----------------------------------------------------------------------
 #t hf aug-cc-pvdz iop(5/13=1,5/36=2,99/5=2) pseudo=read geom=check gue
 ss=(read,tcheck) scf=(maxcycle=1)
 ----------------------------------------------------------------------
 -----
 title
 -----
 Structure from the checkpoint file:  "BDE49_nonexpt_1092_mol1.chk"
 Charge =  0 Multiplicity = 1

                         Standard orientation:
 ---------------------------------------------------------------------
 Center     Atomic      Atomic             Coordinates (Angstroms)
 Number     Number       Type             X           Y           Z
 ---------------------------------------------------------------------
      1         17           0        1.217480   -1.695293   -0.686038
      2          7           0       -1.341603   -0.039088    0.053453
      3          7           0        0.445997    1.274710    0.172909
      4          6           0       -0.143074    0.143095    0.786906
      5          6           0       -1.438802    0.930847   -0.954038
      6          1           0       -2.262462    0.938149   -1.646791
      7          6           0       -0.340308    1.702631   -0.902310
      8          1           0       -0.020550    2.501421   -1.549091
      9          6           0       -2.432165   -0.847191    0.552054
     10          1           0       -2.026036   -1.737924    1.032640
     11          1           0       -3.055130   -1.173352   -0.282747
     12          6           0        1.739737    1.791034    0.556803
     13          1           0        1.801980    2.848476    0.290639
     14          1           0        2.565201    1.253899    0.077294
     15          1           0        1.863376    1.704068    1.639758
     16          8           0        0.715972   -1.051241    0.890343
     17          1           0       -0.269086    0.231463    1.885940
     18          1           0       -3.065310   -0.308133    1.271227
 ---------------------------------------------------------------------

 SCF Done:  E(RHF) =  -838.227713104     A.U. after    2 cycles

 The electronic state is 1-A.
 Alpha  occ. eigenvalues -- -105.59451 -20.61011 -15.51361 -15.51297 -11.36801
 Alpha  occ. eigenvalues --  -11.27302 -11.27288 -11.26353 -11.26055 -10.63644
 Alpha  occ. eigenvalues --   -7.80610  -7.80120  -7.80101  -1.45538  -1.31146
 Alpha  occ. eigenvalues --   -1.20505  -1.04976  -1.02118  -0.97729  -0.93728
 Alpha  occ. eigenvalues --   -0.83141  -0.82020  -0.73793  -0.70690  -0.66106
 Alpha  occ. eigenvalues --   -0.65344  -0.62566  -0.62001  -0.61317  -0.59150
 Alpha  occ. eigenvalues --   -0.56660  -0.56193  -0.53978  -0.52735  -0.49620
 Alpha  occ. eigenvalues --   -0.45219  -0.44050  -0.42820  -0.28946
 Alpha virt. eigenvalues --    0.03507   0.03931   0.04479   0.04766   0.04852
 Alpha virt. eigenvalues --    0.05588   0.06176   0.07169   0.08290   0.08947
 Alpha virt. eigenvalues --    0.10241   0.11856   0.12126   0.12467   0.12749

 Mulliken charges:
               1
     1  Cl   0.104082
     2  N    0.934336
     3  N    0.908611
     4  C   -0.108191
     5  C    0.019275
     6  H   -0.266232
     7  C   -0.041920
     8  H   -0.281941
     9  C   -0.310205
    10  H    0.110908
    11  H    0.074219
    12  C   -0.249144
    13  H    0.070547
    14  H    0.192441
    15  H    0.148075
    16  O   -1.286928
    17  H   -0.203467
    18  H    0.185536
 Sum of Mulliken charges =  -0.00000

 Dipole moment (field-independent basis, Debye):
    X=             -1.4040    Y=              2.0476    Z=              0.4108  Tot=              2.5164

 Test job not archived.
 1\1\GINC-SE082\SP\RHF\Aug-CC-pVDZ\C5H9Cl1N2O1\OHZDE\08-Apr-2025\0\\#t
 hf aug-cc-pvdz iop(5/13=1,5/36=2,99/5=2) pseudo=read geom=check guess=
 (read,tcheck) scf=(maxcycle=1)\\title\\0,1\Cl,0,1.21748,-1.695293,-0.6
 86038\N,0,-1.341603,-0.039088,0.053453\N,0,0.445997,1.27471,0.172909\C
 ,0,-0.143074,0.143095,0.786906\C,0,-1.438802,0.930847,-0.954038\H,0,-2
 .262462,0.938149,-1.646791\C,0,-0.340308,1.702631,-0.90231\H,0,-0.0205
 51,2.501421,-1.549091\C,0,-2.432165,-0.847192,0.552054\H,0,-2.026036,-
 1.737924,1.03264\H,0,-3.05513,-1.173353,-0.282747\C,0,1.739737,1.79103

 Normal termination of Gaussian 16 at Tue Apr  8 23:20:33 2025.
