 Gaussian 16, Revision C.01,

 ----------------------------------------------------------------------
 #t hf aug-cc-pvdz symm=none int=(grid=ultrafine) guess=(read,tcheck) s
 table=(opt,rrhf)
 ----------------------------------------------------------------------
 -----
 title
 -----
 Symbolic Z-matrix:
 Charge =  0 Multiplicity = 1

 SCF Done:  E(RHF) =  -1559.93470795     A.U. after   14 cycles
 Normal termination of Gaussian 16 at Wed Apr  9 00:12:55 2025.
 Gaussian 16:  ES64L-G16RevC.01  3-Jul-2019

 ----------------------------------------------------------------------
 #t hf aug-cc-pvdz iop(5/13=1,5/36=2,99/5=2) pseudo=read geom=check gue
 ss=(read,tcheck) scf=(maxcycle=1)
 ----------------------------------------------------------------------
 -----
 title
 -----
 Structure from the checkpoint file:  "BDE49_nonexpt_2429_mol1.chk"
 Charge =  0 Multiplicity = 1

                         Standard orientation:
 ---------------------------------------------------------------------
 Center     Atomic      Atomic             Coordinates (Angstroms)
 Number     Number       Type             X           Y           Z
 ---------------------------------------------------------------------
      1         14           0        0.533563    1.058038    0.008375
      2         14           0       -0.533563   -1.058038    0.008379
      3         16           0       -2.631306   -0.783872   -0.636398
      4          1           0       -0.523766   -1.689124    1.341761
      5          1           0        0.001228   -1.964030   -1.027113
      6          6           0       -2.973756    0.531838    0.383099
      7          7           0       -3.199522    1.442096    1.064552
      8         16           0        2.631306    0.783870   -0.636402
      9          1           0        0.523767    1.689128    1.341755
     10          1           0       -0.001229    1.964026   -1.027119
     11          6           0        2.973756   -0.531836    0.383099
     12          7           0        3.199523   -1.442092    1.064556
 ---------------------------------------------------------------------

 SCF Done:  E(RHF) =  -1560.29238949     A.U. after    2 cycles

 The electronic state is 1-A.
 Alpha  occ. eigenvalues --  -94.01813 -94.01812 -69.60305 -69.60304 -15.53973
 Alpha  occ. eigenvalues --  -15.53972 -11.32465 -11.32465  -8.29974  -8.29974
 Alpha  occ. eigenvalues --   -6.27808  -6.27808  -6.27586  -6.27586  -6.27380
 Alpha  occ. eigenvalues --   -6.27380  -6.27192  -6.27173  -4.02571  -4.02571
 Alpha  occ. eigenvalues --   -4.02475  -4.02436  -4.02428  -4.02387  -1.25890
 Alpha  occ. eigenvalues --   -1.25823  -1.09894  -1.09704  -0.82236  -0.76135
 Alpha  occ. eigenvalues --   -0.69361  -0.67256  -0.61735  -0.61165  -0.59150
 Alpha  occ. eigenvalues --   -0.58273  -0.57174  -0.56953  -0.54579  -0.52909
 Alpha  occ. eigenvalues --   -0.49047  -0.47748  -0.46536  -0.42802  -0.40781
 Alpha virt. eigenvalues --    0.02727   0.02982   0.03426   0.05119   0.05809
 Alpha virt. eigenvalues --    0.05913   0.06828   0.07155   0.07609   0.08435
 Alpha virt. eigenvalues --    0.08804   0.08837   0.09859   0.10346   0.10821

 Mulliken charges:
               1
     1  Si   0.819237
     2  Si   0.819238
     3  S    0.002874
     4  H   -0.035040
     5  H   -0.046866
     6  C   -1.460870
     7  N    0.720664
     8  S    0.002874
     9  H   -0.035040
    10  H   -0.046865
    11  C   -1.460868
    12  N    0.720662
 Sum of Mulliken charges =  -0.00000

 Dipole moment (field-independent basis, Debye):
    X=             -0.0000    Y=             -0.0000    Z=             -3.5426  Tot=              3.5426

 Test job not archived.
 1\1\GINC-SE341\SP\RHF\Aug-CC-pVDZ\C2H4N2S2Si2\OHZDE\09-Apr-2025\0\\#t
 hf aug-cc-pvdz iop(5/13=1,5/36=2,99/5=2) pseudo=read geom=check guess=
 (read,tcheck) scf=(maxcycle=1)\\title\\0,1\Si,0,-0.533563,-1.058038,0.
 008375\Si,0,0.533563,1.058038,0.008379\S,0,2.631306,0.783872,-0.636398
 \H,0,0.523766,1.689124,1.341761\H,0,-0.001228,1.96403,-1.027113\C,0,2.
 973756,-0.531838,0.383099\N,0,3.199522,-1.442096,1.064552\S,0,-2.63130
 6,-0.78387,-0.636402\H,0,-0.523767,-1.689128,1.341755\H,0,0.001229,-1.
 964026,-1.027119\C,0,-2.973756,0.531836,0.383099\N,0,-3.199523,1.44209

 Normal termination of Gaussian 16 at Wed Apr  9 00:13:02 2025.
