 Gaussian 16, Revision C.01,

 ----------------------------------------------------------------------
 #t hf aug-cc-pvdz symm=none int=(grid=ultrafine) guess=(read,tcheck) s
 table=(opt,rrhf)
 ----------------------------------------------------------------------
 -----
 title
 -----
 Symbolic Z-matrix:
 Charge =  0 Multiplicity = 1

 SCF Done:  E(RHF) =  -309.101226770     A.U. after   14 cycles

 1\1\GINC-SE070\Stability\RHF\Aug-CC-pVDZ\C6H12O1\OHZDE\08-Apr-2025\0\\
 #t hf aug-cc-pvdz symm=none int=(grid=ultrafine) guess=(read,tcheck) s
 table=(opt,rrhf)\\title\\0,1\C,0,-0.909061,0.321855,-0.016726\O,0,-1.2
 59262,1.480697,-0.028124\C,0,-1.948606,-0.789898,-0.005693\H,0,-1.6765
 24,-1.618341,0.651274\H,0,-2.05195,-1.197545,-1.016526\H,0,-2.907172,-
 0.370193,0.29693\C,0,0.587289,-0.065031,-0.006974\C,0,1.43436,1.169904
 ,-0.346551\H,0,1.23596,1.985047,0.350127\H,0,1.209741,1.537419,-1.3507
 1\H,0,2.498153,0.919532,-0.301656\C,0,0.865815,-1.190893,-1.023766\H,0

 Normal termination of Gaussian 16 at Tue Apr  8 23:01:29 2025.
 Gaussian 16:  ES64L-G16RevC.01  3-Jul-2019

 ----------------------------------------------------------------------
 #t hf aug-cc-pvdz iop(5/13=1,5/36=2,99/5=2) pseudo=read geom=check gue
 ss=(read,tcheck) scf=(maxcycle=1)
 ----------------------------------------------------------------------
 -----
 title
 -----
 Structure from the checkpoint file:  "BDE49_expt_224_mol1.chk"
 Charge =  0 Multiplicity = 1

                         Standard orientation:
 ---------------------------------------------------------------------
 Center     Atomic      Atomic             Coordinates (Angstroms)
 Number     Number       Type             X           Y           Z
 ---------------------------------------------------------------------
      1          6           0       -0.909061    0.321855   -0.016726
      2          8           0       -1.259262    1.480697   -0.028124
      3          6           0       -1.948606   -0.789897   -0.005693
      4          1           0       -1.676524   -1.618340    0.651274
      5          1           0       -2.051950   -1.197544   -1.016526
      6          1           0       -2.907172   -0.370192    0.296930
      7          6           0        0.587289   -0.065031   -0.006974
      8          6           0        1.434360    1.169904   -0.346551
      9          1           0        1.235960    1.985047    0.350127
     10          1           0        1.209741    1.537419   -1.350710
     11          1           0        2.498153    0.919531   -0.301656
     12          6           0        0.865815   -1.190893   -1.023766
     13          1           0        1.932395   -1.432878   -1.023573
     14          1           0        0.595950   -0.886122   -2.039235
     15          1           0        0.320612   -2.107565   -0.786847
     16          6           0        0.937515   -0.553878    1.418731
     17          1           0        2.001070   -0.804109    1.470723
     18          1           0        0.373686   -1.447097    1.699722
     19          1           0        0.738305    0.223916    2.160634
 ---------------------------------------------------------------------

 SCF Done:  E(RHF) =  -309.431822032     A.U. after    2 cycles

 The electronic state is 1-A.
 Alpha  occ. eigenvalues --  -20.53031 -11.33303 -11.25591 -11.24226 -11.23758
 Alpha  occ. eigenvalues --  -11.23728 -11.22088  -1.46599  -1.11251  -1.00651
 Alpha  occ. eigenvalues --   -0.94726  -0.93532  -0.84138  -0.71241  -0.67051
 Alpha  occ. eigenvalues --   -0.63821  -0.62518  -0.60167  -0.59715  -0.57128
 Alpha  occ. eigenvalues --   -0.55160  -0.54956  -0.52925  -0.51748  -0.50057
 Alpha  occ. eigenvalues --   -0.48234  -0.47283  -0.39645
 Alpha virt. eigenvalues --    0.03344   0.03480   0.03785   0.04399   0.05953
 Alpha virt. eigenvalues --    0.06112   0.06264   0.06764   0.07383   0.09510
 Alpha virt. eigenvalues --    0.09530   0.09767   0.11386   0.13089   0.13809

 Mulliken charges:
               1
     1  C    1.637232
     2  O   -1.454349
     3  C   -0.653554
     4  H    0.189518
     5  H    0.316066
     6  H    0.087519
     7  C   -2.357950
     8  C    0.238195
     9  H    0.223834
    10  H    0.171935
    11  H    0.188901
    12  C    0.195417
    13  H    0.192771
    14  H    0.205652
    15  H    0.183373
    16  C    0.099829
    17  H    0.200432
    18  H    0.159952
    19  H    0.175230
 Sum of Mulliken charges =  -0.00000

 Dipole moment (field-independent basis, Debye):
    X=              1.0102    Y=             -2.8635    Z=              0.0541  Tot=              3.0369

 Test job not archived.
 1\1\GINC-SE070\SP\RHF\Aug-CC-pVDZ\C6H12O1\OHZDE\08-Apr-2025\0\\#t hf a
 ug-cc-pvdz iop(5/13=1,5/36=2,99/5=2) pseudo=read geom=check guess=(rea
 d,tcheck) scf=(maxcycle=1)\\title\\0,1\C,0,-0.909061,0.321855,-0.01672
 6\O,0,-1.259262,1.480697,-0.028124\C,0,-1.948606,-0.789898,-0.005693\H
 ,0,-1.676524,-1.618341,0.651274\H,0,-2.05195,-1.197545,-1.016526\H,0,-
 2.907172,-0.370193,0.29693\C,0,0.587289,-0.065031,-0.006974\C,0,1.4343
 6,1.169904,-0.346551\H,0,1.23596,1.985047,0.350127\H,0,1.209741,1.5374
 19,-1.35071\H,0,2.498153,0.919532,-0.301656\C,0,0.865815,-1.190893,-1.

 Normal termination of Gaussian 16 at Tue Apr  8 23:01:37 2025.
