 Gaussian 16, Revision C.01,

 ----------------------------------------------------------------------
 #t hf aug-cc-pvdz symm=none int=(grid=ultrafine) guess=(read,tcheck) s
 table=(opt,rrhf)
 ----------------------------------------------------------------------
 -----
 title
 -----
 Symbolic Z-matrix:
 Charge =  0 Multiplicity = 1

 SCF Done:  E(RHF) =  -2132.61039255     A.U. after   15 cycles
 Normal termination of Gaussian 16 at Tue Apr  8 23:39:43 2025.
 Gaussian 16:  ES64L-G16RevC.01  3-Jul-2019

 ----------------------------------------------------------------------
 #t hf aug-cc-pvdz iop(5/13=1,5/36=2,99/5=2) pseudo=read geom=check gue
 ss=(read,tcheck) scf=(maxcycle=1)
 ----------------------------------------------------------------------
 -----
 title
 -----
 Structure from the checkpoint file:  "BDE49_nonexpt_1614_mol1.chk"
 Charge =  0 Multiplicity = 1

                         Standard orientation:
 ---------------------------------------------------------------------
 Center     Atomic      Atomic             Coordinates (Angstroms)
 Number     Number       Type             X           Y           Z
 ---------------------------------------------------------------------
      1          8           0        0.790960    0.769513   -0.255506
      2         15           0        2.262927    0.056533   -0.033995
      3          8           0        3.142754    1.125499    0.418200
      4          8           0        2.608440   -0.694300   -1.381028
      5          8           0       -0.195833   -0.216958   -0.736395
      6          6           0       -1.380405   -0.003949   -0.073464
      7         17           0       -2.448552   -1.236332   -0.783302
      8         17           0       -2.037285    1.638378   -0.346825
      9         17           0       -1.228969   -0.275916    1.714261
     10          1           0        3.085004   -0.131004   -2.002773
     11          8           0        1.999894   -1.213503    0.865879
     12          1           0        1.635514   -0.999504    1.734001
 ---------------------------------------------------------------------

 SCF Done:  E(RHF) =  -2133.27735112     A.U. after    2 cycles

 The electronic state is 1-A.
 Alpha  occ. eigenvalues -- -105.61754-105.61393-105.60955 -84.48945 -20.70170
 Alpha  occ. eigenvalues --  -20.67814 -20.62428 -20.62395 -20.53255 -11.52214
 Alpha  occ. eigenvalues --  -10.66594 -10.66223 -10.65795  -7.83550  -7.83165
 Alpha  occ. eigenvalues --   -7.83090  -7.83079  -7.82749  -7.82745  -7.82728
 Alpha  occ. eigenvalues --   -7.82295  -7.82292  -6.93827  -4.48048  -4.47269
 Alpha  occ. eigenvalues --   -4.47181  -1.66811  -1.57245  -1.50827  -1.43443
 Alpha  occ. eigenvalues --   -1.38592  -1.18969  -1.09331  -1.08721  -0.89821
 Alpha  occ. eigenvalues --   -0.86863  -0.78446  -0.74649  -0.73819  -0.72708
 Alpha  occ. eigenvalues --   -0.69438  -0.67299  -0.65179  -0.62385  -0.60955
 Alpha  occ. eigenvalues --   -0.58060  -0.56784  -0.55826  -0.53551  -0.52646
 Alpha  occ. eigenvalues --   -0.52246  -0.51000  -0.49147  -0.48869  -0.48585
 Alpha  occ. eigenvalues --   -0.48357  -0.47522
 Alpha virt. eigenvalues --    0.03405   0.04350   0.06291   0.07465   0.08472
 Alpha virt. eigenvalues --    0.08910   0.09161   0.09919   0.11196   0.11746
 Alpha virt. eigenvalues --    0.12280   0.13161   0.14089   0.15206   0.15389

 Mulliken charges:
               1
     1  O   -0.881926
     2  P    4.202632
     3  O   -1.293913
     4  O   -1.239698
     5  O   -0.729796
     6  C   -0.013757
     7  Cl   0.148744
     8  Cl   0.197070
     9  Cl   0.133465
    10  H    0.372513
    11  O   -1.270776
    12  H    0.375439
 Sum of Mulliken charges =  -0.00000

 Dipole moment (field-independent basis, Debye):
    X=             -0.8740    Y=             -1.3943    Z=             -0.6502  Tot=              1.7694

 Test job not archived.
 1\1\GINC-SE457\SP\RHF\Aug-CC-pVDZ\C1H2Cl3O5P1\OHZDE\08-Apr-2025\0\\#t
 hf aug-cc-pvdz iop(5/13=1,5/36=2,99/5=2) pseudo=read geom=check guess=
 (read,tcheck) scf=(maxcycle=1)\\title\\0,1\O,0,0.79096,0.769513,-0.255
 506\P,0,2.262927,0.056533,-0.033995\O,0,3.142754,1.125499,0.4182\O,0,2
 .60844,-0.6943,-1.381028\O,0,-0.195833,-0.216958,-0.736395\C,0,-1.3804
 05,-0.003949,-0.073464\Cl,0,-2.448552,-1.236332,-0.783302\Cl,0,-2.0372
 85,1.638378,-0.346825\Cl,0,-1.228969,-0.275916,1.714261\H,0,3.085004,-
 0.131004,-2.002773\O,0,1.999894,-1.213503,0.865879\H,0,1.635514,-0.999

 Normal termination of Gaussian 16 at Tue Apr  8 23:39:52 2025.
