 Gaussian 16, Revision C.01,

 ----------------------------------------------------------------------
 #t hf aug-cc-pvdz symm=none int=(grid=ultrafine) guess=(read,tcheck) s
 table=(opt,rrhf)
 ----------------------------------------------------------------------
 -----
 title
 -----
 Symbolic Z-matrix:
 Charge =  0 Multiplicity = 1

 SCF Done:  E(RHF) =  -243.704103670     A.U. after   14 cycles
 Normal termination of Gaussian 16 at Tue Apr  8 23:02:39 2025.
 Gaussian 16:  ES64L-G16RevC.01  3-Jul-2019

 ----------------------------------------------------------------------
 #t hf aug-cc-pvdz iop(5/13=1,5/36=2,99/5=2) pseudo=read geom=check gue
 ss=(read,tcheck) scf=(maxcycle=1)
 ----------------------------------------------------------------------
 -----
 title
 -----
 Structure from the checkpoint file:  "BDE49_expt_309_mol1.chk"
 Charge =  0 Multiplicity = 1

                         Standard orientation:
 ---------------------------------------------------------------------
 Center     Atomic      Atomic             Coordinates (Angstroms)
 Number     Number       Type             X           Y           Z
 ---------------------------------------------------------------------
      1          6           0       -1.325990   -0.000610   -0.002729
      2          7           0        0.176738    0.000000   -0.011176
      3          1           0       -1.663845    0.902011   -0.503314
      4          1           0       -1.632492    0.004965    1.043089
      5          1           0       -1.663335   -0.908439   -0.494079
      6          8           0        0.729287    1.087585    0.003054
      7          8           0        0.730519   -1.086945    0.003060
 ---------------------------------------------------------------------

 SCF Done:  E(RHF) =  -243.942417622     A.U. after    2 cycles

 The electronic state is 1-A.
 Alpha  occ. eigenvalues --  -20.59626 -20.59615 -15.79218 -11.32355  -1.67530
 Alpha  occ. eigenvalues --   -1.51445  -1.12554  -0.89660  -0.78006  -0.76211
 Alpha  occ. eigenvalues --   -0.75893  -0.63614  -0.61324  -0.49732  -0.49102
 Alpha  occ. eigenvalues --   -0.45518
 Alpha virt. eigenvalues --    0.02886   0.04344   0.05223   0.07000   0.08143
 Alpha virt. eigenvalues --    0.13244   0.13344   0.13576   0.15359   0.16297
 Alpha virt. eigenvalues --    0.19334   0.22756   0.22906   0.23923   0.25412

 Mulliken charges:
               1
     1  C   -0.233148
     2  N    2.180674
     3  H    0.157950
     4  H    0.235401
     5  H    0.157075
     6  O   -1.249315
     7  O   -1.248638
 Sum of Mulliken charges =   0.00000

 Dipole moment (field-independent basis, Debye):
    X=             -3.8418    Y=             -0.0022    Z=              0.0045  Tot=              3.8418

 Test job not archived.
 1\1\GINC-SE393\SP\RHF\Aug-CC-pVDZ\C1H3N1O2\OHZDE\08-Apr-2025\0\\#t hf
 aug-cc-pvdz iop(5/13=1,5/36=2,99/5=2) pseudo=read geom=check guess=(re
 ad,tcheck) scf=(maxcycle=1)\\title\\0,1\C,0,-1.32599,-0.00061,-0.00272
 9\N,0,0.176738,0.,-0.011176\H,0,-1.663845,0.902011,-0.503314\H,0,-1.63
 2492,0.004965,1.043089\H,0,-1.663335,-0.908439,-0.494079\O,0,0.729287,
 1.087585,0.003054\O,0,0.730519,-1.086945,0.00306\\Version=ES64L-G16Rev
 C.01\State=1-A\HF=-243.9424176\RMSD=1.745e-02\Dipole=-1.5114981,-0.000
 8599,0.001787\Quadrupole=1.260002,-2.1638915,0.9038895,0.0007539,-0.05

 Normal termination of Gaussian 16 at Tue Apr  8 23:02:42 2025.
