 Gaussian 16, Revision C.01,

 ----------------------------------------------------------------------
 #t hf aug-cc-pvdz symm=none int=(grid=ultrafine) guess=(read,tcheck) s
 table=(opt,rrhf)
 ----------------------------------------------------------------------
 -----
 title
 -----
 Symbolic Z-matrix:
 Charge =  0 Multiplicity = 1

 SCF Done:  E(RHF) =  -1004.58964140     A.U. after   14 cycles
 Normal termination of Gaussian 16 at Wed Apr  9 00:10:47 2025.
 Gaussian 16:  ES64L-G16RevC.01  3-Jul-2019

 ----------------------------------------------------------------------
 #t hf aug-cc-pvdz iop(5/13=1,5/36=2,99/5=2) pseudo=read geom=check gue
 ss=(read,tcheck) scf=(maxcycle=1)
 ----------------------------------------------------------------------
 -----
 title
 -----
 Structure from the checkpoint file:  "BDE49_nonexpt_2351_mol1.chk"
 Charge =  0 Multiplicity = 1

                         Standard orientation:
 ---------------------------------------------------------------------
 Center     Atomic      Atomic             Coordinates (Angstroms)
 Number     Number       Type             X           Y           Z
 ---------------------------------------------------------------------
      1         14           0       -1.100499    1.109486    0.502541
      2         14           0        0.976135    1.158471   -0.618049
      3          6           0       -2.033534   -0.476866   -0.044611
      4          8           0       -3.067659   -0.596500   -0.601476
      5          1           0       -1.946672    2.266152    0.149131
      6          1           0       -0.887429    1.018933    1.961279
      7          9           0       -1.289829   -1.594870    0.287762
      8          6           0        1.963854   -0.409569   -0.117219
      9          1           0        1.753585    2.332932   -0.167377
     10          1           0        0.827036    1.146913   -2.085769
     11          8           0        2.365508   -1.295433   -0.785281
     12          9           0        2.182035   -0.412046    1.248337
 ---------------------------------------------------------------------

 SCF Done:  E(RHF) =  -1005.04744297     A.U. after    2 cycles

 The electronic state is 1-A.
 Alpha  occ. eigenvalues --  -69.58549 -69.58546 -26.49790 -26.49623 -20.59583
 Alpha  occ. eigenvalues --  -20.59319 -11.43482 -11.43284  -6.25740  -6.25729
 Alpha  occ. eigenvalues --   -4.01114  -4.01094  -4.01076  -4.01040  -4.01033
 Alpha  occ. eigenvalues --   -4.01004  -1.63401  -1.63205  -1.52620  -1.52394
 Alpha  occ. eigenvalues --   -0.91151  -0.88917  -0.81229  -0.78254  -0.72475
 Alpha  occ. eigenvalues --   -0.72253  -0.70650  -0.70111  -0.69686  -0.67504
 Alpha  occ. eigenvalues --   -0.59516  -0.58794  -0.55745  -0.55367  -0.54286
 Alpha  occ. eigenvalues --   -0.53314  -0.49059  -0.47060  -0.44886
 Alpha virt. eigenvalues --    0.02660   0.03047   0.04552   0.04970   0.06101
 Alpha virt. eigenvalues --    0.06375   0.06632   0.06972   0.07361   0.08002
 Alpha virt. eigenvalues --    0.08478   0.08948   0.10456   0.10988   0.12680

 Mulliken charges:
               1
     1  Si   0.688906
     2  Si   0.610414
     3  C    1.188087
     4  O   -0.972506
     5  H   -0.120660
     6  H   -0.087668
     7  F   -0.670848
     8  C    1.178004
     9  H   -0.115356
    10  H   -0.060576
    11  O   -0.962939
    12  F   -0.674858
 Sum of Mulliken charges =  -0.00000

 Dipole moment (field-independent basis, Debye):
    X=              0.1192    Y=              4.6303    Z=              0.5008  Tot=              4.6588

 Test job not archived.
 1\1\GINC-SE396\SP\RHF\Aug-CC-pVDZ\C2H4F2O2Si2\OHZDE\09-Apr-2025\0\\#t
 hf aug-cc-pvdz iop(5/13=1,5/36=2,99/5=2) pseudo=read geom=check guess=
 (read,tcheck) scf=(maxcycle=1)\\title\\0,1\Si,0,-1.100499,1.109486,0.5
 02541\Si,0,0.976135,1.158471,-0.618049\C,0,-2.033534,-0.476866,-0.0446
 11\O,0,-3.067659,-0.5965,-0.601476\H,0,-1.946672,2.266152,0.149131\H,0
 ,-0.887429,1.018933,1.961279\F,0,-1.289829,-1.59487,0.287762\C,0,1.963
 854,-0.409569,-0.117219\H,0,1.753585,2.332932,-0.167377\H,0,0.827036,1
 .146913,-2.085769\O,0,2.365508,-1.295433,-0.785281\F,0,2.182035,-0.412

 Normal termination of Gaussian 16 at Wed Apr  9 00:10:52 2025.
