 Gaussian 16, Revision C.01,

 ----------------------------------------------------------------------
 #t hf aug-cc-pvdz symm=none int=(grid=ultrafine) guess=(read,tcheck) s
 table=(opt,rrhf)
 ----------------------------------------------------------------------
 -----
 title
 -----
 Symbolic Z-matrix:
 Charge =  0 Multiplicity = 1

 SCF Done:  E(RHF) =  -1034.67262223     A.U. after   14 cycles
 Normal termination of Gaussian 16 at Wed Apr  9 00:12:16 2025.
 Gaussian 16:  ES64L-G16RevC.01  3-Jul-2019

 ----------------------------------------------------------------------
 #t hf aug-cc-pvdz iop(5/13=1,5/36=2,99/5=2) pseudo=read geom=check gue
 ss=(read,tcheck) scf=(maxcycle=1)
 ----------------------------------------------------------------------
 -----
 title
 -----
 Structure from the checkpoint file:  "BDE49_nonexpt_2357_mol1.chk"
 Charge =  0 Multiplicity = 1

                         Standard orientation:
 ---------------------------------------------------------------------
 Center     Atomic      Atomic             Coordinates (Angstroms)
 Number     Number       Type             X           Y           Z
 ---------------------------------------------------------------------
      1         14           0       -0.968941    1.635204   -0.676236
      2         14           0        0.969021    1.635225    0.676193
      3          6           0       -1.678904   -0.147941   -0.553339
      4          8           0       -1.330213   -1.052038   -1.274223
      5          1           0       -0.620850    1.865095   -2.093833
      6          1           0       -1.944190    2.647303   -0.211831
      7          8           0       -2.540048   -0.295604    0.475003
      8          6           0       -3.007390   -1.642143    0.722935
      9          1           0       -3.678191   -1.562592    1.574708
     10          1           0       -2.162965   -2.292443    0.953813
     11          1           0       -3.534128   -2.027977   -0.150562
     12          6           0        1.678965   -0.147935    0.553395
     13          1           0        0.620934    1.865196    2.093778
     14          1           0        1.944285    2.647284    0.211734
     15          8           0        1.330189   -1.052010    1.274267
     16          8           0        2.540022   -0.295689   -0.475005
     17          6           0        3.007257   -1.642268   -0.722926
     18          1           0        2.162772   -2.292521   -0.953719
     19          1           0        3.534036   -2.028107    0.150545
     20          1           0        3.677999   -1.562791   -1.574753
 ---------------------------------------------------------------------

 SCF Done:  E(RHF) =  -1035.18794699     A.U. after    2 cycles

 The electronic state is 1-A.
 Alpha  occ. eigenvalues --  -69.55017 -69.55016 -20.59308 -20.59306 -20.54259
 Alpha  occ. eigenvalues --  -20.54259 -11.37847 -11.37843 -11.29575 -11.29575
 Alpha  occ. eigenvalues --   -6.22219  -6.22207  -3.97580  -3.97559  -3.97559
 Alpha  occ. eigenvalues --   -3.97533  -3.97526  -3.97490  -1.54108  -1.54028
 Alpha  occ. eigenvalues --   -1.45122  -1.45099  -0.98406  -0.98195  -0.84355
 Alpha  occ. eigenvalues --   -0.81270  -0.76947  -0.74503  -0.68356  -0.68035
 Alpha  occ. eigenvalues --   -0.67144  -0.66812  -0.66629  -0.64182  -0.57708
 Alpha  occ. eigenvalues --   -0.56807  -0.56089  -0.54923  -0.52696  -0.52397
 Alpha  occ. eigenvalues --   -0.51350  -0.49253  -0.45998  -0.45477  -0.44850
 Alpha  occ. eigenvalues --   -0.42022  -0.40654
 Alpha virt. eigenvalues --    0.03557   0.03592   0.04163   0.04228   0.05568
 Alpha virt. eigenvalues --    0.05612   0.06034   0.06544   0.06939   0.07971
 Alpha virt. eigenvalues --    0.08174   0.08536   0.08801   0.09572   0.10178

 Mulliken charges:
               1
     1  Si   0.342428
     2  Si   0.342493
     3  C    1.484665
     4  O   -1.057091
     5  H   -0.049574
     6  H   -0.031883
     7  O   -1.220390
     8  C    0.227697
     9  H   -0.009851
    10  H    0.160568
    11  H    0.153425
    12  C    1.484633
    13  H   -0.049586
    14  H   -0.031887
    15  O   -1.057088
    16  O   -1.220384
    17  C    0.227683
    18  H    0.160573
    19  H    0.153424
    20  H   -0.009854
 Sum of Mulliken charges =  -0.00000

 Dipole moment (field-independent basis, Debye):
    X=             -0.0000    Y=              1.1379    Z=             -0.0001  Tot=              1.1379

 Test job not archived.
 1\1\GINC-SE339\SP\RHF\Aug-CC-pVDZ\C4H10O4Si2\OHZDE\09-Apr-2025\0\\#t h
 f aug-cc-pvdz iop(5/13=1,5/36=2,99/5=2) pseudo=read geom=check guess=(
 read,tcheck) scf=(maxcycle=1)\\title\\0,1\Si,0,0.968941,1.635204,0.676
 236\Si,0,-0.969021,1.635225,-0.676193\C,0,1.678904,-0.147941,0.553339\
 O,0,1.330213,-1.052038,1.274223\H,0,0.62085,1.865095,2.093833\H,0,1.94
 419,2.647303,0.211831\O,0,2.540048,-0.295604,-0.475003\C,0,3.00739,-1.
 642143,-0.722935\H,0,3.678191,-1.562592,-1.574708\H,0,2.162965,-2.2924
 43,-0.953813\H,0,3.534128,-2.027977,0.150562\C,0,-1.678965,-0.147935,-

 Normal termination of Gaussian 16 at Wed Apr  9 00:12:28 2025.
