 Gaussian 16, Revision C.01,

 ----------------------------------------------------------------------
 #t hf aug-cc-pvdz symm=none int=(grid=ultrafine) guess=(read,tcheck) s
 table=(opt,rrhf)
 ----------------------------------------------------------------------
 -----
 title
 -----
 Symbolic Z-matrix:
 Charge =  0 Multiplicity = 1

 SCF Done:  E(RHF) =  -757.204215856     A.U. after   18 cycles
 Normal termination of Gaussian 16 at Tue Apr  8 23:16:37 2025.
 Gaussian 16:  ES64L-G16RevC.01  3-Jul-2019

 ----------------------------------------------------------------------
 #t hf aug-cc-pvdz iop(5/13=1,5/36=2,99/5=2) pseudo=read geom=check gue
 ss=(read,tcheck) scf=(maxcycle=1)
 ----------------------------------------------------------------------
 -----
 title
 -----
 Structure from the checkpoint file:  "BDE49_nonexpt_1006_mol1.chk"
 Charge =  0 Multiplicity = 1

                         Standard orientation:
 ---------------------------------------------------------------------
 Center     Atomic      Atomic             Coordinates (Angstroms)
 Number     Number       Type             X           Y           Z
 ---------------------------------------------------------------------
      1          6           0        1.173570   -0.603727   -0.218310
      2          6           0        0.594090    0.779368    0.040343
      3         16           0       -1.229681    0.975437    0.148265
      4          8           0        1.237321    1.775535    0.213344
      5          7           0       -1.829573   -0.776522   -0.297967
      6          8           0       -2.992075   -0.898433   -0.302902
      7          6           0        1.276379   -1.361476    1.122227
      8          1           0        1.942346   -0.836876    1.812252
      9          1           0        1.682930   -2.360109    0.946739
     10          1           0        0.301923   -1.472795    1.601254
     11          6           0        2.535678   -0.481459   -0.912406
     12          1           0        0.478690   -1.149380   -0.860042
     13          1           0        3.238839    0.079865   -0.295127
     14          1           0        2.449068    0.032014   -1.872592
     15          1           0        2.947839   -1.477110   -1.093623
 ---------------------------------------------------------------------

 SCF Done:  E(RHF) =  -757.616754654     A.U. after    2 cycles

 The electronic state is 1-A.
 Alpha  occ. eigenvalues --  -94.00153 -20.67375 -20.56873 -15.71774 -11.39143
 Alpha  occ. eigenvalues --  -11.27354 -11.25230 -11.24245  -8.28154  -6.25879
 Alpha  occ. eigenvalues --   -6.25723  -6.25507  -1.67792  -1.51175  -1.12458
 Alpha  occ. eigenvalues --   -1.08488  -0.95872  -0.95334  -0.88062  -0.77846
 Alpha  occ. eigenvalues --   -0.74606  -0.72714  -0.68133  -0.67235  -0.64803
 Alpha  occ. eigenvalues --   -0.62091  -0.59099  -0.57057  -0.55632  -0.54827
 Alpha  occ. eigenvalues --   -0.51176  -0.50616  -0.42056  -0.41321  -0.40998
 Alpha virt. eigenvalues --    0.03355   0.03457   0.04057   0.04392   0.04995
 Alpha virt. eigenvalues --    0.06647   0.06946   0.07351   0.07627   0.08613
 Alpha virt. eigenvalues --    0.10590   0.11498   0.11751   0.13142   0.13544

 Mulliken charges:
               1
     1  C   -1.053283
     2  C    0.977852
     3  S    0.503281
     4  O   -1.307105
     5  N    0.699311
     6  O   -0.969631
     7  C   -0.192549
     8  H    0.236220
     9  H    0.137852
    10  H    0.156359
    11  C   -0.014222
    12  H    0.255108
    13  H    0.243166
    14  H    0.144983
    15  H    0.182658
 Sum of Mulliken charges =  -0.00000

 Dipole moment (field-independent basis, Debye):
    X=              0.5663    Y=             -2.2252    Z=             -0.2362  Tot=              2.3083

 Test job not archived.
 1\1\GINC-SE120\SP\RHF\Aug-CC-pVDZ\C4H7N1O2S1\OHZDE\08-Apr-2025\0\\#t h
 f aug-cc-pvdz iop(5/13=1,5/36=2,99/5=2) pseudo=read geom=check guess=(
 read,tcheck) scf=(maxcycle=1)\\title\\0,1\C,0,1.17357,-0.603727,-0.218
 31\C,0,0.59409,0.779368,0.040343\S,0,-1.229681,0.975437,0.148265\O,0,1
 .237321,1.775535,0.213344\N,0,-1.829573,-0.776522,-0.297967\O,0,-2.992
 075,-0.898432,-0.302902\C,0,1.276379,-1.361476,1.122227\H,0,1.942346,-
 0.836876,1.812252\H,0,1.682929,-2.360109,0.946739\H,0,0.301923,-1.4727
 95,1.601254\C,0,2.535678,-0.481459,-0.912406\H,0,0.47869,-1.14938,-0.8

 Normal termination of Gaussian 16 at Tue Apr  8 23:16:44 2025.
