 Gaussian 16, Revision C.01,

 ----------------------------------------------------------------------
 #t hf aug-cc-pvdz symm=none int=(grid=ultrafine) guess=(read,tcheck) s
 table=(opt,rrhf)
 ----------------------------------------------------------------------
 -----
 title
 -----
 Symbolic Z-matrix:
 Charge =  0 Multiplicity = 1

 SCF Done:  E(RHF) =  -191.957486384     A.U. after   13 cycles
 Normal termination of Gaussian 16 at Tue Apr  8 22:40:26 2025.
 Gaussian 16:  ES64L-G16RevC.01  3-Jul-2019

 ----------------------------------------------------------------------
 #t hf aug-cc-pvdz iop(5/13=1,5/36=2,99/5=2) pseudo=read geom=check gue
 ss=(read,tcheck) scf=(maxcycle=1)
 ----------------------------------------------------------------------
 -----
 title
 -----
 Structure from the checkpoint file:  "BDE49_expt_1333_mol1.chk"
 Charge =  0 Multiplicity = 1

                         Standard orientation:
 ---------------------------------------------------------------------
 Center     Atomic      Atomic             Coordinates (Angstroms)
 Number     Number       Type             X           Y           Z
 ---------------------------------------------------------------------
      1          6           0        0.593583    0.344962   -0.000001
      2          8           0        1.861704   -0.178099    0.000001
      3          1           0        2.497288    0.540908   -0.000035
      4          6           0       -0.491596   -0.423123   -0.000002
      5          6           0       -1.893548    0.111737    0.000005
      6          1           0        0.524564    1.431461    0.000003
      7          1           0       -0.353123   -1.501096   -0.000007
      8          1           0       -1.906804    1.205387    0.000006
      9          1           0       -2.453089   -0.226667    0.879496
     10          1           0       -2.453098   -0.226666   -0.879479
 ---------------------------------------------------------------------

 SCF Done:  E(RHF) =  -192.160431771     A.U. after    2 cycles

 The electronic state is 1-A.
 Alpha  occ. eigenvalues --  -20.57197 -11.29235 -11.23191 -11.22419  -1.48104
 Alpha  occ. eigenvalues --   -1.06007  -0.92799  -0.77310  -0.73049  -0.63925
 Alpha  occ. eigenvalues --   -0.57958  -0.55403  -0.55210  -0.53951  -0.50609
 Alpha  occ. eigenvalues --   -0.33529
 Alpha virt. eigenvalues --    0.03283   0.04150   0.04792   0.05724   0.06556
 Alpha virt. eigenvalues --    0.07707   0.10902   0.12324   0.12832   0.14097
 Alpha virt. eigenvalues --    0.14884   0.16706   0.17147   0.18025   0.18595

 Mulliken charges:
               1
     1  C    1.166449
     2  O   -1.366002
     3  H    0.389994
     4  C    0.229388
     5  C   -0.654939
     6  H   -0.111158
     7  H   -0.155826
     8  H    0.089407
     9  H    0.206346
    10  H    0.206342
 Sum of Mulliken charges =   0.00000

 Dipole moment (field-independent basis, Debye):
    X=              0.1400    Y=              1.7058    Z=             -0.0001  Tot=              1.7115

 Test job not archived.
 1\1\GINC-SE227\SP\RHF\Aug-CC-pVDZ\C3H6O1\OHZDE\08-Apr-2025\0\\#t hf au
 g-cc-pvdz iop(5/13=1,5/36=2,99/5=2) pseudo=read geom=check guess=(read
 ,tcheck) scf=(maxcycle=1)\\title\\0,1\C,0,0.593583,0.344962,-0.000001\
 O,0,1.861704,-0.178099,0.000001\H,0,2.497288,0.540908,-0.000035\C,0,-0
 .491596,-0.423123,-0.000002\C,0,-1.893548,0.111737,0.000005\H,0,0.5245
 64,1.431461,0.000003\H,0,-0.353123,-1.501096,-0.000007\H,0,-1.906804,1
 .205387,0.000006\H,0,-2.453089,-0.226667,0.879496\H,0,-2.453098,-0.226
 666,-0.879479\\Version=ES64L-G16RevC.01\State=1-A\HF=-192.1604318\RMSD

 Normal termination of Gaussian 16 at Tue Apr  8 22:40:29 2025.
