 Gaussian 16, Revision C.01,

 ----------------------------------------------------------------------
 #t hf aug-cc-pvdz symm=none int=(grid=ultrafine) guess=(read,tcheck) s
 table=(opt,rrhf)
 ----------------------------------------------------------------------
 -----
 title
 -----
 Symbolic Z-matrix:
 Charge =  0 Multiplicity = 1

 SCF Done:  E(RHF) =  -766.885633291     A.U. after   12 cycles
 Normal termination of Gaussian 16 at Wed Apr  9 00:15:01 2025.
 Gaussian 16:  ES64L-G16RevC.01  3-Jul-2019

 ----------------------------------------------------------------------
 #t hf aug-cc-pvdz iop(5/13=1,5/36=2,99/5=2) pseudo=read geom=check gue
 ss=(read,tcheck) scf=(maxcycle=1)
 ----------------------------------------------------------------------
 -----
 title
 -----
 Structure from the checkpoint file:  "BDE49_nonexpt_2495_mol1.chk"
 Charge =  0 Multiplicity = 1

                         Standard orientation:
 ---------------------------------------------------------------------
 Center     Atomic      Atomic             Coordinates (Angstroms)
 Number     Number       Type             X           Y           Z
 ---------------------------------------------------------------------
      1         16           0       -0.114786   -0.996419   -0.211073
      2         14           0       -1.620892    0.517477    0.048186
      3          6           0        1.365876   -0.203337    0.575907
      4          6           0        2.072072    0.822622   -0.303830
      5          1           0        2.026291   -1.044015    0.796781
      6          1           0        1.061028    0.225942    1.532268
      7          1           0        2.377219    0.379202   -1.253794
      8          1           0        2.967275    1.198553    0.202676
      9          1           0        1.428333    1.676998   -0.524360
     10          1           0       -2.877281   -0.094980   -0.431840
     11          1           0       -1.342144    1.747927   -0.729014
     12          1           0       -1.739351    0.892684    1.477388
 ---------------------------------------------------------------------

 SCF Done:  E(RHF) =  -767.072050686     A.U. after    2 cycles

 The electronic state is 1-A.
 Alpha  occ. eigenvalues --  -93.93322 -69.55355 -11.27912 -11.23940  -8.21618
 Alpha  occ. eigenvalues --   -6.22219  -6.19409  -6.19275  -6.19081  -3.97629
 Alpha  occ. eigenvalues --   -3.97552  -3.97519  -1.08048  -0.96173  -0.83671
 Alpha  occ. eigenvalues --   -0.72867  -0.63843  -0.60038  -0.55586  -0.52907
 Alpha  occ. eigenvalues --   -0.51021  -0.50013  -0.46781  -0.42692  -0.36158
 Alpha virt. eigenvalues --    0.03509   0.03911   0.04483   0.04632   0.06396
 Alpha virt. eigenvalues --    0.06796   0.07065   0.07890   0.09200   0.09873
 Alpha virt. eigenvalues --    0.11147   0.11594   0.13178   0.13971   0.15037

 Mulliken charges:
               1
     1  S   -0.258444
     2  Si   1.024176
     3  C   -0.681340
     4  C   -0.348194
     5  H    0.234643
     6  H    0.108040
     7  H    0.171386
     8  H    0.148156
     9  H    0.136213
    10  H   -0.209267
    11  H   -0.165127
    12  H   -0.160243
 Sum of Mulliken charges =   0.00000

 Dipole moment (field-independent basis, Debye):
    X=              0.9459    Y=              1.3356    Z=              0.7462  Tot=              1.7987

 Test job not archived.
 1\1\GINC-SE128\SP\RHF\Aug-CC-pVDZ\C2H8S1Si1\OHZDE\09-Apr-2025\0\\#t hf
  aug-cc-pvdz iop(5/13=1,5/36=2,99/5=2) pseudo=read geom=check guess=(r
 ead,tcheck) scf=(maxcycle=1)\\title\\0,1\S,0,-0.114786,-0.996419,-0.21
 1073\Si,0,-1.620892,0.517478,0.048186\C,0,1.365876,-0.203337,0.575907\
 C,0,2.072072,0.822621,-0.30383\H,0,2.026291,-1.044016,0.796781\H,0,1.0
 61028,0.225942,1.532268\H,0,2.377219,0.379201,-1.253794\H,0,2.967275,1
 .198552,0.202676\H,0,1.428333,1.676998,-0.52436\H,0,-2.877281,-0.09497
 9,-0.43184\H,0,-1.342144,1.747928,-0.729014\H,0,-1.739351,0.892685,1.4

 Normal termination of Gaussian 16 at Wed Apr  9 00:15:05 2025.
