 Gaussian 16, Revision C.01,

 ----------------------------------------------------------------------
 #t hf aug-cc-pvdz symm=none int=(grid=ultrafine) guess=(read,tcheck) s
 table=(opt,rrhf)
 ----------------------------------------------------------------------
 -----
 title
 -----
 Symbolic Z-matrix:
 Charge =  0 Multiplicity = 1

 SCF Done:  E(RHF) =  -359.811736234     A.U. after   13 cycles
 Normal termination of Gaussian 16 at Tue Apr  8 23:07:07 2025.
 Gaussian 16:  ES64L-G16RevC.01  3-Jul-2019

 ----------------------------------------------------------------------
 #t hf aug-cc-pvdz iop(5/13=1,5/36=2,99/5=2) pseudo=read geom=check gue
 ss=(read,tcheck) scf=(maxcycle=1)
 ----------------------------------------------------------------------
 -----
 title
 -----
 Structure from the checkpoint file:  "BDE49_expt_431_mol1.chk"
 Charge =  0 Multiplicity = 1

                         Standard orientation:
 ---------------------------------------------------------------------
 Center     Atomic      Atomic             Coordinates (Angstroms)
 Number     Number       Type             X           Y           Z
 ---------------------------------------------------------------------
      1          7           0        0.046880   -0.638410   -0.000023
      2          6           0        1.193218    0.155803   -0.000033
      3          6           0        2.480836   -0.648525    0.000015
      4          1           0        2.536723   -1.290080    0.884076
      5          1           0        3.321751    0.041259    0.000050
      6          1           0        2.536788   -1.290070   -0.884049
      7          6           0       -1.316563   -0.279776   -0.000020
      8          1           0        0.168176   -1.643441   -0.000013
      9          6           0       -1.672718    1.183248    0.000009
     10          1           0       -2.758651    1.257170    0.000046
     11          1           0       -1.251998    1.686372   -0.872051
     12          1           0       -1.251941    1.686356    0.872050
     13          8           0       -2.135997   -1.171344    0.000031
     14          8           0        1.168792    1.365945   -0.000003
 ---------------------------------------------------------------------

 SCF Done:  E(RHF) =  -360.175627585     A.U. after    2 cycles

 The electronic state is 1-A.
 Alpha  occ. eigenvalues --  -20.53992 -20.53490 -15.55695 -11.39038 -11.38171
 Alpha  occ. eigenvalues --  -11.26747 -11.24601  -1.49329  -1.48124  -1.26074
 Alpha  occ. eigenvalues --   -1.04959  -1.01145  -0.89324  -0.80848  -0.71937
 Alpha  occ. eigenvalues --   -0.69291  -0.66642  -0.63198  -0.62156  -0.61496
 Alpha  occ. eigenvalues --   -0.59264  -0.57168  -0.55638  -0.52222  -0.45845
 Alpha  occ. eigenvalues --   -0.44466  -0.43625
 Alpha virt. eigenvalues --    0.02826   0.04481   0.04689   0.04735   0.06016
 Alpha virt. eigenvalues --    0.06152   0.07210   0.08545   0.11158   0.12052
 Alpha virt. eigenvalues --    0.12481   0.12491   0.13446   0.13758   0.15007

 Mulliken charges:
               1
     1  N    0.737901
     2  C    0.757956
     3  C   -0.528055
     4  H    0.240005
     5  H    0.150164
     6  H    0.240015
     7  C    0.426006
     8  H    0.137996
     9  C   -0.318699
    10  H    0.067256
    11  H    0.299903
    12  H    0.299898
    13  O   -1.269639
    14  O   -1.240707
 Sum of Mulliken charges =  -0.00000

 Dipole moment (field-independent basis, Debye):
    X=              2.5546    Y=             -0.9051    Z=             -0.0001  Tot=              2.7102

 Test job not archived.
 1\1\GINC-SE059\SP\RHF\Aug-CC-pVDZ\C4H7N1O2\OHZDE\08-Apr-2025\0\\#t hf
 aug-cc-pvdz iop(5/13=1,5/36=2,99/5=2) pseudo=read geom=check guess=(re
 ad,tcheck) scf=(maxcycle=1)\\title\\0,1\N,0,-0.04688,-0.63841,0.000023
 \C,0,-1.193218,0.155803,0.000033\C,0,-2.480836,-0.648525,-0.000015\H,0
 ,-2.536723,-1.29008,-0.884076\H,0,-3.321751,0.041259,-0.00005\H,0,-2.5
 36788,-1.29007,0.884049\C,0,1.316563,-0.279776,0.00002\H,0,-0.168176,-
 1.643441,0.000013\C,0,1.672718,1.183248,-0.000009\H,0,2.758651,1.25717
 ,-0.000046\H,0,1.251998,1.686372,0.872051\H,0,1.251941,1.686356,-0.872

 Normal termination of Gaussian 16 at Tue Apr  8 23:07:12 2025.
