 Gaussian 16, Revision C.01,

 ----------------------------------------------------------------------
 #t hf aug-cc-pvdz symm=none int=(grid=ultrafine) guess=(read,tcheck) s
 table=(opt,rrhf)
 ----------------------------------------------------------------------
 -----
 title
 -----
 Symbolic Z-matrix:
 Charge =  0 Multiplicity = 1

 SCF Done:  E(RHF) =  -844.979989876     A.U. after   12 cycles
 Normal termination of Gaussian 16 at Wed Apr  9 00:14:41 2025.
 Gaussian 16:  ES64L-G16RevC.01  3-Jul-2019

 ----------------------------------------------------------------------
 #t hf aug-cc-pvdz iop(5/13=1,5/36=2,99/5=2) pseudo=read geom=check gue
 ss=(read,tcheck) scf=(maxcycle=1)
 ----------------------------------------------------------------------
 -----
 title
 -----
 Structure from the checkpoint file:  "BDE49_nonexpt_2468_mol1.chk"
 Charge =  0 Multiplicity = 1

                         Standard orientation:
 ---------------------------------------------------------------------
 Center     Atomic      Atomic             Coordinates (Angstroms)
 Number     Number       Type             X           Y           Z
 ---------------------------------------------------------------------
      1         14           0       -1.554037    0.884622    0.260027
      2          6           0        0.192216    0.987681   -0.427797
      3          6           0        1.220666    0.033525    0.206798
      4          1           0        0.517546    2.028220   -0.294738
      5          1           0        0.143632    0.826711   -1.511695
      6          6           0        2.635050    0.202254   -0.363849
      7          1           0        0.900159   -1.005015    0.064981
      8          1           0        1.250785    0.193545    1.291549
      9          6           0        3.656214   -0.747892    0.267746
     10          1           0        2.959253    1.239886   -0.218619
     11          1           0        2.605223    0.041605   -1.448220
     12          1           0        3.731686   -0.587014    1.347676
     13          1           0        4.652130   -0.603339   -0.159485
     14          1           0        3.375105   -1.793473    0.108558
     15         16           0       -2.318511   -1.105852   -0.167218
     16          1           0       -3.516365   -0.902214    0.409324
     17          1           0       -2.426138    1.900209   -0.376072
     18          1           0       -1.565208    1.116390    1.724475
 ---------------------------------------------------------------------

 SCF Done:  E(RHF) =  -845.254259750     A.U. after    2 cycles

 The electronic state is 1-A.
 Alpha  occ. eigenvalues --  -93.94054 -69.55144 -11.23675 -11.23050 -11.22878
 Alpha  occ. eigenvalues --  -11.22443  -8.22327  -6.21991  -6.20152  -6.20038
 Alpha  occ. eigenvalues --   -6.19819  -3.97388  -3.97283  -3.97271  -1.08032
 Alpha  occ. eigenvalues --   -1.00634  -0.98271  -0.87350  -0.80145  -0.70727
 Alpha  occ. eigenvalues --   -0.65361  -0.59894  -0.59031  -0.56108  -0.55109
 Alpha  occ. eigenvalues --   -0.52367  -0.51202  -0.49324  -0.48200  -0.47557
 Alpha  occ. eigenvalues --   -0.44598  -0.43644  -0.37606
 Alpha virt. eigenvalues --    0.03413   0.03697   0.03836   0.04053   0.05328
 Alpha virt. eigenvalues --    0.05826   0.06305   0.06716   0.08341   0.08583
 Alpha virt. eigenvalues --    0.08822   0.09656   0.10050   0.11324   0.11525

 Mulliken charges:
               1
     1  Si   1.244257
     2  C   -0.587753
     3  C   -0.257875
     4  H    0.078398
     5  H    0.145466
     6  C   -0.245485
     7  H    0.112056
     8  H    0.093199
     9  C   -0.375908
    10  H    0.116099
    11  H    0.120483
    12  H    0.164575
    13  H    0.116628
    14  H    0.161829
    15  S   -0.871735
    16  H    0.260799
    17  H   -0.155044
    18  H   -0.119991
 Sum of Mulliken charges =   0.00000

 Dipole moment (field-independent basis, Debye):
    X=              0.5772    Y=              1.2465    Z=              0.3152  Tot=              1.4094

 Test job not archived.
 1\1\GINC-SE165\SP\RHF\Aug-CC-pVDZ\C4H12S1Si1\OHZDE\09-Apr-2025\0\\#t h
 f aug-cc-pvdz iop(5/13=1,5/36=2,99/5=2) pseudo=read geom=check guess=(
 read,tcheck) scf=(maxcycle=1)\\title\\0,1\Si,0,-1.554037,0.884622,0.26
 0027\C,0,0.192216,0.987681,-0.427797\C,0,1.220666,0.033525,0.206798\H,
 0,0.517546,2.02822,-0.294738\H,0,0.143632,0.826711,-1.511695\C,0,2.635
 05,0.202254,-0.363849\H,0,0.900159,-1.005015,0.064981\H,0,1.250785,0.1
 93545,1.291549\C,0,3.656214,-0.747892,0.267746\H,0,2.959253,1.239886,-
 0.218619\H,0,2.605223,0.041605,-1.44822\H,0,3.731686,-0.587014,1.34767

 Normal termination of Gaussian 16 at Wed Apr  9 00:14:49 2025.
