 Gaussian 16, Revision C.01,

 ----------------------------------------------------------------------
 #t hf aug-cc-pvdz symm=none int=(grid=ultrafine) guess=(read,tcheck) s
 table=(opt,rrhf)
 ----------------------------------------------------------------------
 -----
 title
 -----
 Symbolic Z-matrix:
 Charge =  0 Multiplicity = 1

 SCF Done:  E(RHF) =  -488.255339659     A.U. after   13 cycles
 Normal termination of Gaussian 16 at Tue Apr  8 23:15:50 2025.
 Gaussian 16:  ES64L-G16RevC.01  3-Jul-2019

 ----------------------------------------------------------------------
 #t hf aug-cc-pvdz iop(5/13=1,5/36=2,99/5=2) pseudo=read geom=check gue
 ss=(read,tcheck) scf=(maxcycle=1)
 ----------------------------------------------------------------------
 -----
 title
 -----
 Structure from the checkpoint file:  "BDE49_nonexpt_101_mol1.chk"
 Charge =  0 Multiplicity = 1

                         Standard orientation:
 ---------------------------------------------------------------------
 Center     Atomic      Atomic             Coordinates (Angstroms)
 Number     Number       Type             X           Y           Z
 ---------------------------------------------------------------------
      1          5           0        2.094742    0.610923   -0.000001
      2          5           0        1.075668   -0.687660   -0.000316
      3         16           0       -0.699469   -0.678450    0.000014
      4          6           0       -1.201751    1.090062    0.000088
      5          1           0       -2.291082    1.117367    0.000276
      6          1           0       -0.832741    1.590522   -0.894458
      7          1           0       -0.832434    1.590543    0.894495
      8          1           0        2.497587    1.101136   -1.013952
      9          1           0        2.496943    1.101187    1.014182
     10          1           0        1.511695   -1.802239    0.000287
 ---------------------------------------------------------------------

 SCF Done:  E(RHF) =  -488.414340221     A.U. after    2 cycles

 The electronic state is 1-A.
 Alpha  occ. eigenvalues --  -93.94766 -11.27362  -8.23051  -7.59587  -7.59270
 Alpha  occ. eigenvalues --   -6.20853  -6.20672  -6.20569  -1.06649  -0.90366
 Alpha  occ. eigenvalues --   -0.74586  -0.63752  -0.60534  -0.60161  -0.51136
 Alpha  occ. eigenvalues --   -0.50125  -0.47843  -0.41291  -0.38401
 Alpha virt. eigenvalues --    0.03045   0.03532   0.03886   0.04359   0.05299
 Alpha virt. eigenvalues --    0.06745   0.06973   0.07073   0.07362   0.08449
 Alpha virt. eigenvalues --    0.10373   0.10432   0.12528   0.13504   0.13773

 Mulliken charges:
               1
     1  B   -0.721457
     2  B    0.379125
     3  S   -0.130318
     4  C   -0.752658
     5  H    0.103417
     6  H    0.170748
     7  H    0.170845
     8  H    0.326644
     9  H    0.326751
    10  H    0.126903
 Sum of Mulliken charges =  -0.00000

 Dipole moment (field-independent basis, Debye):
    X=             -0.1412    Y=              1.5591    Z=             -0.0003  Tot=              1.5655

 Test job not archived.
 1\1\GINC-SE461\SP\RHF\Aug-CC-pVDZ\C1H6B2S1\OHZDE\08-Apr-2025\0\\#t hf
 aug-cc-pvdz iop(5/13=1,5/36=2,99/5=2) pseudo=read geom=check guess=(re
 ad,tcheck) scf=(maxcycle=1)\\title\\0,1\B,0,2.094742,0.610923,-0.00000
 1\B,0,1.075668,-0.68766,-0.000316\S,0,-0.699469,-0.67845,0.000014\C,0,
 -1.201751,1.090062,0.000088\H,0,-2.291082,1.117368,0.000276\H,0,-0.832
 74,1.590522,-0.894458\H,0,-0.832433,1.590543,0.894495\H,0,2.497587,1.1
 01136,-1.013952\H,0,2.496943,1.101187,1.014182\H,0,1.511695,-1.802239,
 0.000287\\Version=ES64L-G16RevC.01\State=1-A\HF=-488.4143402\RMSD=1.60

 Normal termination of Gaussian 16 at Tue Apr  8 23:15:53 2025.
