 Gaussian 16, Revision C.01,

 ----------------------------------------------------------------------
 #t hf aug-cc-pvdz symm=none int=(grid=ultrafine) guess=(read,tcheck) s
 table=opt
 ----------------------------------------------------------------------
 -----
 title
 -----
 Symbolic Z-matrix:
 Charge =  0 Multiplicity = 2

 SCF Done:  E(UHF) =  -964.119206715     A.U. after   21 cycles
 Normal termination of Gaussian 16 at Wed Apr  9 00:16:38 2025.
 Gaussian 16:  ES64L-G16RevC.01  3-Jul-2019

 ----------------------------------------------------------------------
 #t hf aug-cc-pvdz iop(5/13=1,5/36=2,99/5=2) pseudo=read geom=check gue
 ss=(read,tcheck) scf=(maxcycle=1)
 ----------------------------------------------------------------------
 -----
 title
 -----
 Structure from the checkpoint file:  "BDE49_nonexpt_2549_mol2.chk"
 Charge =  0 Multiplicity = 2

                         Standard orientation:
 ---------------------------------------------------------------------
 Center     Atomic      Atomic             Coordinates (Angstroms)
 Number     Number       Type             X           Y           Z
 ---------------------------------------------------------------------
      1         16           0        1.702463    0.114548    0.143073
      2         15           0       -0.320031   -0.092689   -0.108687
      3          8           0       -0.530886   -1.246690   -1.000643
      4          8           0       -1.075488   -0.200978    1.307747
      5          1           0       -1.050765   -1.098078    1.664450
      6          8           0       -0.846431    1.341273   -0.558655
      7          1           0       -1.765746    1.506800   -0.310904
 ---------------------------------------------------------------------

 SCF Done:  E(UHF) =  -964.439107502     A.U. after    2 cycles

 The electronic state is 2-A.
 Alpha  occ. eigenvalues --  -94.00647 -84.46474 -20.61514 -20.61304 -20.52039
 Alpha  occ. eigenvalues --   -8.28928  -6.91579  -6.28048  -6.26300  -6.25971
 Alpha  occ. eigenvalues --   -4.45580  -4.44896  -4.43758  -1.55856  -1.49153
 Alpha  occ. eigenvalues --   -1.40609  -1.06970  -0.85604  -0.77216  -0.68294
 Alpha  occ. eigenvalues --   -0.65166  -0.61133  -0.59182  -0.57320  -0.52732
 Alpha  occ. eigenvalues --   -0.50132  -0.47909  -0.45013  -0.43279
 Alpha virt. eigenvalues --    0.03030   0.04610   0.06754   0.09171   0.10340
 Alpha virt. eigenvalues --    0.11390   0.12375   0.12780   0.13491   0.17408
 Alpha virt. eigenvalues --    0.18634   0.19788   0.21652   0.22534   0.23528

  Beta  occ. eigenvalues --  -93.99752 -84.46513 -20.61514 -20.61283 -20.51737
  Beta  occ. eigenvalues --   -8.27899  -6.91636  -6.25809  -6.25429  -6.24039
  Beta  occ. eigenvalues --   -4.45635  -4.44933  -4.43868  -1.55807  -1.49134
  Beta  occ. eigenvalues --   -1.39844  -0.99139  -0.84038  -0.77106  -0.67870
  Beta  occ. eigenvalues --   -0.64658  -0.60100  -0.58845  -0.56794  -0.51019
  Beta  occ. eigenvalues --   -0.47527  -0.44744  -0.41169
  Beta virt. eigenvalues --   -0.03233   0.03064   0.04622   0.06914   0.09536
  Beta virt. eigenvalues --    0.10469   0.11709   0.12860   0.13274   0.13942
  Beta virt. eigenvalues --    0.17684   0.18681   0.20090   0.21940   0.22967

 Mulliken charges and spin densities:
               1          2
     1  S   -0.456594   1.069757
     2  P    3.409051  -0.110301
     3  O   -1.314089   0.038849
     4  O   -1.197723  -0.006190
     5  H    0.371327   0.003540
     6  O   -1.189150   0.007951
     7  H    0.377178  -0.003605
 Sum of Mulliken charges =   0.00000   1.00000

 Dipole moment (field-independent basis, Debye):
    X=             -1.0290    Y=              1.3686    Z=              2.8586  Tot=              3.3323
                          Isotropic Fermi Contact Couplings
        Atom                 a.u.       MegaHertz       Gauss      10(-4) cm-1
     1  S(33)              0.17183      59.01862      21.05931      19.68649
     2  P(31)             -0.04630     -83.84617     -29.91840     -27.96807
     3  O(17)              0.02728     -16.53916      -5.90158      -5.51687
     4  O(17)             -0.00085       0.51664       0.18435       0.17233
     5  H(1)               0.00001       0.05281       0.01884       0.01761
     6  O(17)              0.00030      -0.18076      -0.06450      -0.06029
     7  H(1)              -0.00027      -1.21942      -0.43512      -0.40675
 --------------------------------------------------------

 Normal termination of Gaussian 16 at Wed Apr  9 00:16:41 2025.
