 Gaussian 16, Revision C.01,

 ----------------------------------------------------------------------
 #t hf aug-cc-pvdz symm=none int=(grid=ultrafine) guess=(read,tcheck) s
 table=(opt,rrhf)
 ----------------------------------------------------------------------
 -----
 title
 -----
 Symbolic Z-matrix:
 Charge =  0 Multiplicity = 1

 SCF Done:  E(RHF) =  -453.715611527     A.U. after   12 cycles
 Normal termination of Gaussian 16 at Wed Apr  9 00:53:36 2025.
 Gaussian 16:  ES64L-G16RevC.01  3-Jul-2019

 ----------------------------------------------------------------------
 #t hf aug-cc-pvdz iop(5/13=1,5/36=2,99/5=2) pseudo=read geom=check gue
 ss=(read,tcheck) scf=(maxcycle=1)
 ----------------------------------------------------------------------
 -----
 title
 -----
 Structure from the checkpoint file:  "BDE49_nonexpt_991_mol1.chk"
 Charge =  0 Multiplicity = 1

                         Standard orientation:
 ---------------------------------------------------------------------
 Center     Atomic      Atomic             Coordinates (Angstroms)
 Number     Number       Type             X           Y           Z
 ---------------------------------------------------------------------
      1          7           0        1.105220    0.136129   -0.000024
      2         16           0       -0.611922   -0.098947    0.000014
      3          1           0        1.509229   -0.286026   -0.827363
      4          1           0        1.509254   -0.285713    0.827463
      5          1           0       -0.964265    1.201993   -0.000154
 ---------------------------------------------------------------------

 SCF Done:  E(RHF) =  -453.837166216     A.U. after    2 cycles

 The electronic state is 1-A.
 Alpha  occ. eigenvalues --  -93.97770 -15.52648  -8.25520  -6.23373  -6.23194
 Alpha  occ. eigenvalues --   -6.22972  -1.20149  -0.95602  -0.71473  -0.61598
 Alpha  occ. eigenvalues --   -0.57906  -0.43871  -0.38055
 Alpha virt. eigenvalues --    0.03260   0.05311   0.06221   0.08661   0.11776
 Alpha virt. eigenvalues --    0.13181   0.16209   0.17774   0.18853   0.20864
 Alpha virt. eigenvalues --    0.21388   0.22270   0.26412   0.28144   0.33481

 Mulliken charges:
               1
     1  N   -0.387386
     2  S   -0.085798
     3  H    0.072501
     4  H    0.072502
     5  H    0.328181
 Sum of Mulliken charges =   0.00000

 Dipole moment (field-independent basis, Debye):
    X=              0.7032    Y=             -0.3640    Z=              0.0001  Tot=              0.7918

 Test job not archived.
 1\1\GINC-SE026\SP\RHF\Aug-CC-pVDZ\H3N1S1\OHZDE\09-Apr-2025\0\\#t hf au
 g-cc-pvdz iop(5/13=1,5/36=2,99/5=2) pseudo=read geom=check guess=(read
 ,tcheck) scf=(maxcycle=1)\\title\\0,1\N,0,-1.10522,0.136129,0.000024\S
 ,0,0.611922,-0.098947,-0.000014\H,0,-1.509229,-0.286026,0.827363\H,0,-
 1.509254,-0.285713,-0.827463\H,0,0.964265,1.201993,0.000154\\Version=E
 S64L-G16RevC.01\State=1-A\HF=-453.8371662\RMSD=7.898e-03\Dipole=-0.276
 6519,-0.1432206,-0.0000449\Quadrupole=1.110249,-0.4379188,-0.6723302,2
 .7549939,0.0004832,-0.0001175\PG=C01 [X(H3N1S1)]\\@

 Normal termination of Gaussian 16 at Wed Apr  9 00:53:38 2025.
