 Gaussian 16, Revision C.01,

 ----------------------------------------------------------------------
 #t hf aug-cc-pvdz symm=none int=(grid=ultrafine) guess=(read,tcheck) s
 table=opt
 ----------------------------------------------------------------------
 -----
 title
 -----
 Symbolic Z-matrix:
 Charge =  0 Multiplicity = 2

 SCF Done:  E(UHF) =  -213.406217684     A.U. after   21 cycles
 Normal termination of Gaussian 16 at Wed Apr  9 00:35:47 2025.
 Gaussian 16:  ES64L-G16RevC.01  3-Jul-2019

 ----------------------------------------------------------------------
 #t hf aug-cc-pvdz iop(5/13=1,5/36=2,99/5=2) pseudo=read geom=check gue
 ss=(read,tcheck) scf=(maxcycle=1)
 ----------------------------------------------------------------------
 -----
 title
 -----
 Structure from the checkpoint file:  "BDE49_nonexpt_476_mol2.chk"
 Charge =  0 Multiplicity = 2

                         Standard orientation:
 ---------------------------------------------------------------------
 Center     Atomic      Atomic             Coordinates (Angstroms)
 Number     Number       Type             X           Y           Z
 ---------------------------------------------------------------------
      1          1           0       -2.294701   -1.036434    0.517369
      2          5           0       -1.365243   -0.743208   -0.142271
      3          6           0       -0.047767   -0.011969   -0.007278
      4          8           0       -0.204724    1.204144    0.008312
      5          8           0        1.152837   -0.612481    0.015750
      6          1           0        1.822610    0.090985    0.045159
 ---------------------------------------------------------------------

 SCF Done:  E(UHF) =  -213.609491126     A.U. after    2 cycles

 The electronic state is 2-A.
 Alpha  occ. eigenvalues --  -20.61473 -20.56097 -11.38793  -7.66234  -1.55775
 Alpha  occ. eigenvalues --   -1.46801  -0.91400  -0.76731  -0.71964  -0.64945
 Alpha  occ. eigenvalues --   -0.64102  -0.57694  -0.51340  -0.46123  -0.36456
 Alpha virt. eigenvalues --    0.02726   0.03919   0.04919   0.05082   0.07123
 Alpha virt. eigenvalues --    0.08186   0.09697   0.13022   0.14559   0.15323
 Alpha virt. eigenvalues --    0.16271   0.19708   0.20829   0.21083   0.21911

  Beta  occ. eigenvalues --  -20.61532 -20.55151 -11.39131  -7.64472  -1.55551
  Beta  occ. eigenvalues --   -1.45168  -0.89920  -0.74936  -0.71426  -0.63859
  Beta  occ. eigenvalues --   -0.61979  -0.57122  -0.46643  -0.44917
  Beta virt. eigenvalues --    0.03319   0.03590   0.04103   0.05089   0.06991
  Beta virt. eigenvalues --    0.07498   0.09457   0.10402   0.13244   0.14996
  Beta virt. eigenvalues --    0.15466   0.19477   0.20514   0.20971   0.22140

 Mulliken charges and spin densities:
               1          2
     1  H    0.312385  -0.022431
     2  B   -0.305893   0.951048
     3  C    1.766245  -0.148496
     4  O   -1.043416   0.217950
     5  O   -1.070382   0.003996
     6  H    0.341060  -0.002065
 Sum of Mulliken charges =   0.00000   1.00000

 Dipole moment (field-independent basis, Debye):
    X=              0.5301    Y=             -1.4451    Z=              0.4276  Tot=              1.5975
                          Isotropic Fermi Contact Couplings
        Atom                 a.u.       MegaHertz       Gauss      10(-4) cm-1
     1  H(1)              -0.00821     -36.68229     -13.08915     -12.23590
     2  B(11)              0.22032     316.02473     112.76548     105.41450
     3  C(13)             -0.03521     -39.57831     -14.12253     -13.20190
     4  O(17)              0.07262     -44.02457     -15.70906     -14.68502
     5  O(17)             -0.01213       7.35073       2.62292       2.45194
     6  H(1)              -0.00037      -1.64354      -0.58646      -0.54823
 --------------------------------------------------------
       Center         ----  Spin Dipole Couplings  ----

 Normal termination of Gaussian 16 at Wed Apr  9 00:35:49 2025.
