 Gaussian 16, Revision C.01,

 ----------------------------------------------------------------------
 #t hf aug-cc-pvdz symm=none int=(grid=ultrafine) guess=(read,tcheck) s
 table=(opt,rrhf)
 ----------------------------------------------------------------------
 -----
 title
 -----
 Symbolic Z-matrix:
 Charge =  0 Multiplicity = 1

 SCF Done:  E(RHF) =  -537.063622658     A.U. after   13 cycles
 Normal termination of Gaussian 16 at Tue Apr  8 22:54:00 2025.
 Gaussian 16:  ES64L-G16RevC.01  3-Jul-2019

 ----------------------------------------------------------------------
 #t hf aug-cc-pvdz iop(5/13=1,5/36=2,99/5=2) pseudo=read geom=check gue
 ss=(read,tcheck) scf=(maxcycle=1)
 ----------------------------------------------------------------------
 -----
 title
 -----
 Structure from the checkpoint file:  "BDE49_expt_1815_mol1.chk"
 Charge =  0 Multiplicity = 1

                         Standard orientation:
 ---------------------------------------------------------------------
 Center     Atomic      Atomic             Coordinates (Angstroms)
 Number     Number       Type             X           Y           Z
 ---------------------------------------------------------------------
      1         14           0       -0.327856   -0.000003    0.048194
      2          7           0        1.265198    0.000050   -0.921980
      3          8           0        2.287063    0.000013   -0.258061
      4          6           0       -1.208007    1.550360   -0.531915
      5          1           0       -0.680293    2.452800   -0.211340
      6          1           0       -2.221661    1.591176   -0.120951
      7          1           0       -1.284943    1.572818   -1.622168
      8          6           0       -1.208017   -1.550291   -0.532098
      9          1           0       -1.284955   -1.572618   -1.622354
     10          1           0       -2.221671   -1.591150   -0.121138
     11          1           0       -0.680308   -2.452773   -0.211632
     12          6           0        0.010853   -0.000113    1.887230
     13          1           0        0.584750    0.882225    2.181801
     14          1           0        0.584734   -0.882494    2.181699
     15          1           0       -0.927541   -0.000137    2.450416
 ---------------------------------------------------------------------

 SCF Done:  E(RHF) =  -537.352622266     A.U. after    2 cycles

 The electronic state is 1-A.
 Alpha  occ. eigenvalues --  -69.54388 -20.60823 -15.59650 -11.22702 -11.22701
 Alpha  occ. eigenvalues --  -11.22398  -6.21371  -3.96728  -3.96640  -3.96636
 Alpha  occ. eigenvalues --   -1.56001  -1.00962  -0.95080  -0.94689  -0.94285
 Alpha  occ. eigenvalues --   -0.72987  -0.65946  -0.61889  -0.59498  -0.58385
 Alpha  occ. eigenvalues --   -0.57547  -0.56785  -0.56153  -0.55864  -0.55192
 Alpha  occ. eigenvalues --   -0.46152  -0.46077  -0.37596
 Alpha virt. eigenvalues --    0.02862   0.04004   0.04178   0.04442   0.05739
 Alpha virt. eigenvalues --    0.06025   0.07205   0.07263   0.07500   0.08679
 Alpha virt. eigenvalues --    0.09403   0.10751   0.10756   0.11231   0.14440

 Mulliken charges:
               1
     1  Si   2.117146
     2  N    0.820124
     3  O   -0.958119
     4  C   -0.598982
     5  H   -0.043852
     6  H    0.009256
     7  H   -0.022055
     8  C   -0.598982
     9  H   -0.022055
    10  H    0.009255
    11  H   -0.043850
    12  C   -0.656898
    13  H    0.002424
    14  H    0.002419
    15  H   -0.015831
 Sum of Mulliken charges =  -0.00000

 Dipole moment (field-independent basis, Debye):
    X=             -2.9240    Y=             -0.0001    Z=              1.4888  Tot=              3.2813

 Test job not archived.
 1\1\GINC-SE086\SP\RHF\Aug-CC-pVDZ\C3H9N1O1Si1\OHZDE\08-Apr-2025\0\\#t
 hf aug-cc-pvdz iop(5/13=1,5/36=2,99/5=2) pseudo=read geom=check guess=
 (read,tcheck) scf=(maxcycle=1)\\title\\0,1\Si,0,-0.327856,-0.000003,0.
 048194\N,0,1.265198,0.00005,-0.92198\O,0,2.287063,0.000013,-0.258061\C
 ,0,-1.208007,1.55036,-0.531915\H,0,-0.680293,2.4528,-0.21134\H,0,-2.22
 1661,1.591176,-0.120951\H,0,-1.284943,1.572818,-1.622168\C,0,-1.208017
 ,-1.550291,-0.532098\H,0,-1.284955,-1.572618,-1.622354\H,0,-2.221671,-
 1.59115,-0.121138\H,0,-0.680308,-2.452773,-0.211632\C,0,0.010853,-0.00

 Normal termination of Gaussian 16 at Tue Apr  8 22:54:06 2025.
