 Gaussian 16, Revision C.01,

 ----------------------------------------------------------------------
 #t hf aug-cc-pvdz symm=none int=(grid=ultrafine) guess=(read,tcheck) s
 table=(opt,rrhf)
 ----------------------------------------------------------------------
 -----
 title
 -----
 Symbolic Z-matrix:
 Charge =  0 Multiplicity = 1

 SCF Done:  E(RHF) =  -1767.12079076     A.U. after   10 cycles
 Normal termination of Gaussian 16 at Tue Apr  8 23:49:17 2025.
 Gaussian 16:  ES64L-G16RevC.01  3-Jul-2019

 ----------------------------------------------------------------------
 #t hf aug-cc-pvdz iop(5/13=1,5/36=2,99/5=2) pseudo=read geom=check gue
 ss=(read,tcheck) scf=(maxcycle=1)
 ----------------------------------------------------------------------
 -----
 title
 -----
 Structure from the checkpoint file:  "BDE49_nonexpt_1823_mol1.chk"
 Charge =  0 Multiplicity = 1

                         Standard orientation:
 ---------------------------------------------------------------------
 Center     Atomic      Atomic             Coordinates (Angstroms)
 Number     Number       Type             X           Y           Z
 ---------------------------------------------------------------------
      1         14           0        0.000002   -0.000004    0.245957
      2         17           0       -1.645822   -1.011053   -0.390625
      3         17           0        1.698525   -0.919771   -0.390625
      4          9           0       -0.000001    0.000070    1.831190
      5         17           0       -0.052704    1.930790   -0.390757
 ---------------------------------------------------------------------

 SCF Done:  E(RHF) =  -1767.47190465     A.U. after    2 cycles

 The electronic state is 1-A.
 Alpha  occ. eigenvalues -- -105.59926-105.59926-105.59926 -69.72651 -26.49825
 Alpha  occ. eigenvalues --  -10.65016 -10.65004 -10.65004  -7.81902  -7.81896
 Alpha  occ. eigenvalues --   -7.81896  -7.81546  -7.81546  -7.81544  -7.81542
 Alpha  occ. eigenvalues --   -7.81542  -7.81541  -6.38022  -4.13411  -4.13329
 Alpha  occ. eigenvalues --   -4.13329  -1.61534  -1.13225  -1.08314  -1.08314
 Alpha  occ. eigenvalues --   -0.79025  -0.69343  -0.69343  -0.67777  -0.59274
 Alpha  occ. eigenvalues --   -0.59273  -0.53733  -0.52820  -0.52820  -0.50199
 Alpha  occ. eigenvalues --   -0.50199  -0.48950
 Alpha virt. eigenvalues --    0.04900   0.05942   0.05942   0.06411   0.10438
 Alpha virt. eigenvalues --    0.12254   0.12254   0.13626   0.13626   0.15320
 Alpha virt. eigenvalues --    0.16304   0.17656   0.17656   0.17989   0.18405

 Mulliken charges:
               1
     1  Si   2.190418
     2  Cl  -0.445529
     3  Cl  -0.445528
     4  F   -0.853838
     5  Cl  -0.445522
 Sum of Mulliken charges =  -0.00000

 Dipole moment (field-independent basis, Debye):
    X=              0.0000    Y=             -0.0001    Z=             -0.4560  Tot=              0.4560

 Test job not archived.
 1\1\GINC-SE195\SP\RHF\Aug-CC-pVDZ\Cl3F1Si1\OHZDE\08-Apr-2025\0\\#t hf
 aug-cc-pvdz iop(5/13=1,5/36=2,99/5=2) pseudo=read geom=check guess=(re
 ad,tcheck) scf=(maxcycle=1)\\title\\0,1\Si,0,-0.000002,0.000004,0.2459
 57\Cl,0,1.651987,1.000948,-0.390625\Cl,0,-1.692856,0.930163,-0.390625\
 F,0,0.000001,-0.00007,1.83119\Cl,0,0.04087,-1.931077,-0.390757\\Versio
 n=ES64L-G16RevC.01\State=1-A\HF=-1767.4719047\RMSD=3.009e-03\Dipole=-0
 .0000081,0.000033,-0.1794032\Quadrupole=0.5899667,0.5898777,-1.1798444
 ,-0.0000114,0.,0.0000861\PG=C01 [X(Cl3F1Si1)]\\@

 Normal termination of Gaussian 16 at Tue Apr  8 23:49:21 2025.
