 Gaussian 16, Revision C.01,

 ----------------------------------------------------------------------
 #t hf aug-cc-pvdz symm=none int=(grid=ultrafine) guess=(read,tcheck) s
 table=(opt,rrhf)
 ----------------------------------------------------------------------
 -----
 title
 -----
 Symbolic Z-matrix:
 Charge =  0 Multiplicity = 1

 SCF Done:  E(RHF) =  -1749.24837037     A.U. after   17 cycles
 Normal termination of Gaussian 16 at Wed Apr  9 00:29:57 2025.
 Gaussian 16:  ES64L-G16RevC.01  3-Jul-2019

 ----------------------------------------------------------------------
 #t hf aug-cc-pvdz iop(5/13=1,5/36=2,99/5=2) pseudo=read geom=check gue
 ss=(read,tcheck) scf=(maxcycle=1)
 ----------------------------------------------------------------------
 -----
 title
 -----
 Structure from the checkpoint file:  "BDE49_nonexpt_2720_mol1.chk"
 Charge =  0 Multiplicity = 1

                         Standard orientation:
 ---------------------------------------------------------------------
 Center     Atomic      Atomic             Coordinates (Angstroms)
 Number     Number       Type             X           Y           Z
 ---------------------------------------------------------------------
      1          6           0       -3.449560    0.471823   -0.475892
      2          8           0       -2.844863    1.418216   -0.883053
      3         16           0       -2.819844   -0.634045    0.855200
      4         16           0       -1.001275    0.242754    1.290509
      5          6           0        0.035320   -0.349107   -0.113653
      6          8           0       -0.346960   -1.129344   -0.932679
      7          6           0       -4.781584   -0.007110   -1.006419
      8          1           0       -5.366794    0.856666   -1.324104
      9          1           0       -5.337926   -0.592231   -0.272669
     10          1           0       -4.591449   -0.638140   -1.879529
     11          6           0        1.388103    0.292088   -0.074293
     12          6           0        1.474459    1.689215   -0.010068
     13          6           0        2.708396    2.329367   -0.029829
     14          6           0        3.875712    1.574307   -0.096984
     15          6           0        3.811084    0.184609   -0.152027
     16          6           0        2.574437   -0.452107   -0.149942
     17          1           0        2.755456    3.410871    0.005459
     18          1           0        4.713172   -0.411524   -0.197198
     19          1           0        0.558588    2.266308    0.025707
     20          1           0        4.843380    2.062188   -0.106784
     21         17           0        2.545873   -2.200175   -0.200102
 ---------------------------------------------------------------------

 SCF Done:  E(RHF) =  -1749.93242291     A.U. after    2 cycles

 The electronic state is 1-A.
 Alpha  occ. eigenvalues -- -105.58009 -93.99677 -93.99493 -20.56652 -20.56371
 Alpha  occ. eigenvalues --  -11.39247 -11.38904 -11.33418 -11.28706 -11.27787
 Alpha  occ. eigenvalues --  -11.27575 -11.27173 -11.26834 -11.26757 -10.62814
 Alpha  occ. eigenvalues --   -8.27673  -8.27524  -7.79786  -7.79374  -7.79358
 Alpha  occ. eigenvalues --   -6.25459  -6.25309  -6.25235  -6.25090  -6.25025
 Alpha  occ. eigenvalues --   -6.24882  -1.50879  -1.50642  -1.20547  -1.12604
 Alpha  occ. eigenvalues --   -1.11146  -1.07520  -1.04344  -1.00758  -0.95857
 Alpha  occ. eigenvalues --   -0.89128  -0.85403  -0.79536  -0.75695  -0.71928
 Alpha  occ. eigenvalues --   -0.69591  -0.68132  -0.66990  -0.65865  -0.64698
 Alpha  occ. eigenvalues --   -0.63470  -0.62639  -0.61808  -0.58561  -0.57286
 Alpha  occ. eigenvalues --   -0.56202  -0.55576  -0.53697  -0.53124  -0.49714
 Alpha  occ. eigenvalues --   -0.48730  -0.47469  -0.43478  -0.43037  -0.39905
 Alpha  occ. eigenvalues --   -0.38337  -0.37633  -0.36017
 Alpha virt. eigenvalues --    0.02903   0.03499   0.03758   0.04918   0.05473
 Alpha virt. eigenvalues --    0.05614   0.05858   0.06952   0.07303   0.07956
 Alpha virt. eigenvalues --    0.08544   0.09034   0.09871   0.10373   0.10822

 Mulliken charges:
               1
     1  C    0.912646
     2  O   -1.197454
     3  S    0.051953
     4  S   -0.023075
     5  C    0.308759
     6  O   -1.217499
     7  C   -0.504568
     8  H    0.192735
     9  H    0.215389
    10  H    0.298201
    11  C    2.368978
    12  C    0.078484
    13  C   -0.278211
    14  C    0.104624
    15  C    0.544620
    16  C   -0.707699
    17  H   -0.225381
    18  H   -0.171616
    19  H   -0.233463
    20  H   -0.201609
    21  Cl  -0.315813
 Sum of Mulliken charges =  -0.00000

 Dipole moment (field-independent basis, Debye):
    X=              0.1910    Y=              1.9442    Z=              0.2700  Tot=              1.9721

 Test job not archived.
 1\1\GINC-SE058\SP\RHF\Aug-CC-pVDZ\C9H7Cl1O2S2\OHZDE\09-Apr-2025\0\\#t
 hf aug-cc-pvdz iop(5/13=1,5/36=2,99/5=2) pseudo=read geom=check guess=
 (read,tcheck) scf=(maxcycle=1)\\title\\0,1\C,0,-3.44956,0.471823,-0.47
 5892\O,0,-2.844863,1.418216,-0.883053\S,0,-2.819844,-0.634045,0.8552\S
 ,0,-1.001275,0.242754,1.290509\C,0,0.03532,-0.349107,-0.113653\O,0,-0.
 34696,-1.129344,-0.932679\C,0,-4.781584,-0.00711,-1.006419\H,0,-5.3667
 94,0.856666,-1.324104\H,0,-5.337926,-0.592231,-0.272669\H,0,-4.591449,
 -0.63814,-1.879529\C,0,1.388103,0.292088,-0.074293\C,0,1.474459,1.6892

 Normal termination of Gaussian 16 at Wed Apr  9 00:30:17 2025.
