 Gaussian 16, Revision C.01,

 ----------------------------------------------------------------------
 #t hf aug-cc-pvdz symm=none int=(grid=ultrafine) guess=(read,tcheck) s
 table=(opt,rrhf)
 ----------------------------------------------------------------------
 -----
 title
 -----
 Symbolic Z-matrix:
 Charge =  0 Multiplicity = 1

 SCF Done:  E(RHF) =  -1191.42777852     A.U. after   12 cycles
 Normal termination of Gaussian 16 at Wed Apr  9 00:41:31 2025.
 Gaussian 16:  ES64L-G16RevC.01  3-Jul-2019

 ----------------------------------------------------------------------
 #t hf aug-cc-pvdz iop(5/13=1,5/36=2,99/5=2) pseudo=read geom=check gue
 ss=(read,tcheck) scf=(maxcycle=1)
 ----------------------------------------------------------------------
 -----
 title
 -----
 Structure from the checkpoint file:  "BDE49_nonexpt_671_mol1.chk"
 Charge =  0 Multiplicity = 1

                         Standard orientation:
 ---------------------------------------------------------------------
 Center     Atomic      Atomic             Coordinates (Angstroms)
 Number     Number       Type             X           Y           Z
 ---------------------------------------------------------------------
      1         17           0       -1.969906    1.523690   -0.000036
      2         17           0       -2.271773   -1.514716    0.000061
      3          8           0        0.104910   -0.267144   -0.000042
      4          7           0        2.430202    0.323379   -0.000035
      5          6           0        1.124703    0.831273   -0.000149
      6          6           0        2.832082   -0.367806    1.221793
      7          6           0        2.832183   -0.368153   -1.221638
      8          5           0       -1.207778   -0.093421   -0.000013
      9          1           0        3.916236   -0.501694    1.220281
     10          1           0        2.359264   -1.354330    1.330638
     11          1           0        2.567732    0.240316    2.089908
     12          1           0        2.359417   -1.354730   -1.330214
     13          1           0        3.916344   -0.501987   -1.220039
     14          1           0        2.567840    0.239695   -2.089946
     15          1           0        0.938019    1.424558    0.895042
     16          1           0        0.938081    1.424349   -0.895492
 ---------------------------------------------------------------------

 SCF Done:  E(RHF) =  -1191.86249280     A.U. after    2 cycles

 The electronic state is 1-A.
 Alpha  occ. eigenvalues -- -105.57056-105.56331 -20.57387 -15.50964 -11.34178
 Alpha  occ. eigenvalues --  -11.26684 -11.26683 -10.62058 -10.61325  -7.78954
 Alpha  occ. eigenvalues --   -7.78666  -7.78644  -7.78229  -7.77936  -7.77905
 Alpha  occ. eigenvalues --   -7.73047  -1.48915  -1.24929  -1.09111  -1.05032
 Alpha  occ. eigenvalues --   -0.98804  -0.97836  -0.84300  -0.75538  -0.70412
 Alpha  occ. eigenvalues --   -0.69975  -0.65422  -0.62386  -0.61222  -0.61002
 Alpha  occ. eigenvalues --   -0.56274  -0.55704  -0.54272  -0.53371  -0.50875
 Alpha  occ. eigenvalues --   -0.49365  -0.47844  -0.46755  -0.45580  -0.41560
 Alpha virt. eigenvalues --    0.03306   0.04199   0.04496   0.05164   0.05486
 Alpha virt. eigenvalues --    0.05744   0.06380   0.06650   0.07661   0.09335
 Alpha virt. eigenvalues --    0.09634   0.10025   0.11808   0.12657   0.13410

 Mulliken charges:
               1
     1  Cl  -0.363080
     2  Cl  -0.416096
     3  O   -0.464321
     4  N    0.474299
     5  C   -0.202333
     6  C   -0.288317
     7  C   -0.288292
     8  B    0.582909
     9  H    0.093188
    10  H    0.250549
    11  H    0.092719
    12  H    0.250555
    13  H    0.093184
    14  H    0.092704
    15  H    0.046168
    16  H    0.046165
 Sum of Mulliken charges =  -0.00000

 Dipole moment (field-independent basis, Debye):
    X=              2.8297    Y=              0.4716    Z=             -0.0001  Tot=              2.8688

 Test job not archived.
 1\1\GINC-SE435\SP\RHF\Aug-CC-pVDZ\C3H8B1Cl2N1O1\OHZDE\09-Apr-2025\0\\#
 t hf aug-cc-pvdz iop(5/13=1,5/36=2,99/5=2) pseudo=read geom=check gues
 s=(read,tcheck) scf=(maxcycle=1)\\title\\0,1\Cl,0,1.969906,1.52369,0.0
 00036\Cl,0,2.271773,-1.514716,-0.000061\O,0,-0.10491,-0.267144,0.00004
 2\N,0,-2.430202,0.323379,0.000035\C,0,-1.124703,0.831273,0.000149\C,0,
 -2.832082,-0.367806,-1.221793\C,0,-2.832183,-0.368153,1.221638\B,0,1.2
 07778,-0.093421,0.000013\H,0,-3.916236,-0.501694,-1.220281\H,0,-2.3592
 64,-1.35433,-1.330638\H,0,-2.567732,0.240316,-2.089908\H,0,-2.359417,-

 Normal termination of Gaussian 16 at Wed Apr  9 00:41:37 2025.
