 Gaussian 16, Revision C.01,

 ----------------------------------------------------------------------
 #t hf aug-cc-pvdz symm=none int=(grid=ultrafine) guess=(read,tcheck) s
 table=(opt,rrhf)
 ----------------------------------------------------------------------
 -----
 title
 -----
 Symbolic Z-matrix:
 Charge =  0 Multiplicity = 1

 SCF Done:  E(RHF) =  -475.583892914     A.U. after   12 cycles
 Normal termination of Gaussian 16 at Tue Apr  8 23:27:01 2025.
 Gaussian 16:  ES64L-G16RevC.01  3-Jul-2019

 ----------------------------------------------------------------------
 #t hf aug-cc-pvdz iop(5/13=1,5/36=2,99/5=2) pseudo=read geom=check gue
 ss=(read,tcheck) scf=(maxcycle=1)
 ----------------------------------------------------------------------
 -----
 title
 -----
 Structure from the checkpoint file:  "BDE49_nonexpt_1306_mol1.chk"
 Charge =  0 Multiplicity = 1

                         Standard orientation:
 ---------------------------------------------------------------------
 Center     Atomic      Atomic             Coordinates (Angstroms)
 Number     Number       Type             X           Y           Z
 ---------------------------------------------------------------------
      1          6           0        0.032797    0.584751   -0.014713
      2          6           0       -1.062795   -0.483028    0.012385
      3         15           0        1.751047   -0.163483   -0.090919
      4          1           0       -0.064758    1.250421    0.847144
      5          1           0       -0.096761    1.193221   -0.914181
      6          7           0       -2.385540    0.147302   -0.082161
      7          1           0       -0.935068   -1.113920    0.907968
      8          1           0       -0.944778   -1.141854   -0.853773
      9          1           0       -2.584911    0.665582    0.768841
     10          1           0       -3.106692   -0.563043   -0.162128
     11          1           0        1.870165   -0.524087    1.278321
     12          1           0        2.475868    1.044474    0.080680
 ---------------------------------------------------------------------

 SCF Done:  E(RHF) =  -475.778886501     A.U. after    2 cycles

 The electronic state is 1-A.
 Alpha  occ. eigenvalues --  -84.26783 -15.48907 -11.26563 -11.24052  -6.73846
 Alpha  occ. eigenvalues --   -4.26399  -4.26196  -4.25509  -1.18315  -1.01663
 Alpha  occ. eigenvalues --   -0.87047  -0.78976  -0.69246  -0.65253  -0.61637
 Alpha  occ. eigenvalues --   -0.55416  -0.51546  -0.48250  -0.46251  -0.43178
 Alpha  occ. eigenvalues --   -0.33938
 Alpha virt. eigenvalues --    0.03370   0.04327   0.04883   0.05239   0.06724
 Alpha virt. eigenvalues --    0.06821   0.07325   0.08374   0.10323   0.10942
 Alpha virt. eigenvalues --    0.12173   0.13660   0.14653   0.16283   0.16507

 Mulliken charges:
               1
     1  C   -0.624454
     2  C   -0.695161
     3  P   -0.370963
     4  H    0.129260
     5  H    0.184494
     6  N    0.189764
     7  H    0.073899
     8  H    0.085979
     9  H    0.122663
    10  H    0.130281
    11  H    0.382186
    12  H    0.392051
 Sum of Mulliken charges =  -0.00000

 Dipole moment (field-independent basis, Debye):
    X=             -0.7067    Y=             -0.2950    Z=              1.4127  Tot=              1.6069

 Test job not archived.
 1\1\GINC-SE341\SP\RHF\Aug-CC-pVDZ\C2H8N1P1\OHZDE\08-Apr-2025\0\\#t hf
 aug-cc-pvdz iop(5/13=1,5/36=2,99/5=2) pseudo=read geom=check guess=(re
 ad,tcheck) scf=(maxcycle=1)\\title\\0,1\C,0,0.032797,0.584751,-0.01471
 3\C,0,-1.062795,-0.483028,0.012385\P,0,1.751047,-0.163483,-0.090919\H,
 0,-0.064758,1.250421,0.847144\H,0,-0.096761,1.193221,-0.914181\N,0,-2.
 38554,0.147302,-0.082161\H,0,-0.935068,-1.11392,0.907968\H,0,-0.944778
 ,-1.141854,-0.853773\H,0,-2.584911,0.665582,0.768841\H,0,-3.106692,-0.
 563043,-0.162128\H,0,1.870165,-0.524087,1.278321\H,0,2.475868,1.044474

 Normal termination of Gaussian 16 at Tue Apr  8 23:27:04 2025.
