 Gaussian 16, Revision C.01,

 ----------------------------------------------------------------------
 #t hf aug-cc-pvdz symm=none int=(grid=ultrafine) guess=(read,tcheck) s
 table=(opt,rrhf)
 ----------------------------------------------------------------------
 -----
 title
 -----
 Symbolic Z-matrix:
 Charge =  0 Multiplicity = 1

 SCF Done:  E(RHF) =  -1372.70694096     A.U. after   15 cycles
 Normal termination of Gaussian 16 at Wed Apr  9 00:53:11 2025.
 Gaussian 16:  ES64L-G16RevC.01  3-Jul-2019

 ----------------------------------------------------------------------
 #t hf aug-cc-pvdz iop(5/13=1,5/36=2,99/5=2) pseudo=read geom=check gue
 ss=(read,tcheck) scf=(maxcycle=1)
 ----------------------------------------------------------------------
 -----
 title
 -----
 Structure from the checkpoint file:  "BDE49_nonexpt_981_mol1.chk"
 Charge =  0 Multiplicity = 1

                         Standard orientation:
 ---------------------------------------------------------------------
 Center     Atomic      Atomic             Coordinates (Angstroms)
 Number     Number       Type             X           Y           Z
 ---------------------------------------------------------------------
      1         16           0        1.176199    1.031605   -0.408065
      2          7           0        2.214747   -0.451094   -0.007219
      3          8           0        1.721289   -1.541973   -0.040329
      4          8           0        3.349736   -0.114893    0.245862
      5          8           0       -0.278588    0.285934   -0.786830
      6          6           0       -1.222979    0.184381    0.227393
      7         17           0       -2.596720   -0.710866   -0.439140
      8          9           0       -1.619855    1.402989    0.626868
      9          9           0       -0.733457   -0.447671    1.298794
 ---------------------------------------------------------------------

 SCF Done:  E(RHF) =  -1373.31344586     A.U. after    2 cycles

 The electronic state is 1-A.
 Alpha  occ. eigenvalues -- -105.61823 -94.11692 -26.54166 -26.54147 -20.67765
 Alpha  occ. eigenvalues --  -20.63861 -20.63146 -15.83818 -11.58208 -10.66718
 Alpha  occ. eigenvalues --   -8.38755  -7.83674  -7.83216  -7.83212  -6.36489
 Alpha  occ. eigenvalues --   -6.36277  -6.35921  -1.73612  -1.72135  -1.64916
 Alpha  occ. eigenvalues --   -1.57595  -1.56618  -1.16758  -1.11264  -0.96783
 Alpha  occ. eigenvalues --   -0.92121  -0.85292  -0.83572  -0.81252  -0.78868
 Alpha  occ. eigenvalues --   -0.78589  -0.77456  -0.71059  -0.69193  -0.66484
 Alpha  occ. eigenvalues --   -0.63909  -0.61274  -0.58806  -0.53303  -0.51592
 Alpha  occ. eigenvalues --   -0.51375  -0.49406  -0.49108  -0.46066
 Alpha virt. eigenvalues --    0.02986   0.04045   0.05447   0.06944   0.08914
 Alpha virt. eigenvalues --    0.09215   0.09326   0.10151   0.11946   0.12816
 Alpha virt. eigenvalues --    0.13977   0.14626   0.15726   0.15797   0.16778

 Mulliken charges:
               1
     1  S    0.994663
     2  N    1.770424
     3  O   -1.089931
     4  O   -1.146555
     5  O   -1.191856
     6  C    1.998799
     7  Cl  -0.075504
     8  F   -0.633781
     9  F   -0.626260
 Sum of Mulliken charges =  -0.00000

 Dipole moment (field-independent basis, Debye):
    X=             -1.3289    Y=              1.7516    Z=             -0.5970  Tot=              2.2782

 Test job not archived.
 1\1\GINC-SE340\SP\RHF\Aug-CC-pVDZ\C1Cl1F2N1O3S1\OHZDE\09-Apr-2025\0\\#
 t hf aug-cc-pvdz iop(5/13=1,5/36=2,99/5=2) pseudo=read geom=check gues
 s=(read,tcheck) scf=(maxcycle=1)\\title\\0,1\S,0,1.176199,1.031605,-0.
 408065\N,0,2.214747,-0.451094,-0.007219\O,0,1.721289,-1.541973,-0.0403
 29\O,0,3.349736,-0.114893,0.245862\O,0,-0.278588,0.285934,-0.78683\C,0
 ,-1.222979,0.184381,0.227393\Cl,0,-2.59672,-0.710866,-0.43914\F,0,-1.6
 19855,1.402989,0.626868\F,0,-0.733457,-0.447671,1.298794\\Version=ES64
 L-G16RevC.01\State=1-A\HF=-1373.3134459\RMSD=8.999e-03\Dipole=-0.52282

 Normal termination of Gaussian 16 at Wed Apr  9 00:53:15 2025.
