 Gaussian 16, Revision C.01,

 ----------------------------------------------------------------------
 #t hf aug-cc-pvdz symm=none int=(grid=ultrafine) guess=(read,tcheck) s
 table=(opt,rrhf)
 ----------------------------------------------------------------------
 -----
 title
 -----
 Symbolic Z-matrix:
 Charge =  0 Multiplicity = 1

 SCF Done:  E(RHF) =  -644.458021236     A.U. after   17 cycles
 Normal termination of Gaussian 16 at Tue Apr  8 23:16:09 2025.
 Gaussian 16:  ES64L-G16RevC.01  3-Jul-2019

 ----------------------------------------------------------------------
 #t hf aug-cc-pvdz iop(5/13=1,5/36=2,99/5=2) pseudo=read geom=check gue
 ss=(read,tcheck) scf=(maxcycle=1)
 ----------------------------------------------------------------------
 -----
 title
 -----
 Structure from the checkpoint file:  "BDE49_nonexpt_1010_mol1.chk"
 Charge =  0 Multiplicity = 1

                         Standard orientation:
 ---------------------------------------------------------------------
 Center     Atomic      Atomic             Coordinates (Angstroms)
 Number     Number       Type             X           Y           Z
 ---------------------------------------------------------------------
      1         16           0       -0.769612   -1.004337   -0.407798
      2          7           0       -1.846296    0.508688   -0.267972
      3          8           0       -1.518732    1.328882    0.512386
      4          6           0        0.538096   -0.674166    0.811274
      5          6           0        1.897764   -0.295997    0.207506
      6          1           0        0.613244   -1.566607    1.435598
      7          1           0        0.148148    0.141237    1.433664
      8          6           0        1.905473    1.050005   -0.519670
      9          1           0        2.228332   -1.089497   -0.470248
     10          1           0        2.622229   -0.272635    1.030158
     11          1           0        1.197229    1.054289   -1.352372
     12          1           0        2.896476    1.265970   -0.926062
     13          1           0        1.634067    1.865705    0.156083
 ---------------------------------------------------------------------

 SCF Done:  E(RHF) =  -644.766071601     A.U. after    2 cycles

 The electronic state is 1-A.
 Alpha  occ. eigenvalues --  -93.98119 -20.64690 -15.69383 -11.27889 -11.24856
 Alpha  occ. eigenvalues --  -11.23106  -8.26095  -6.23863  -6.23668  -6.23473
 Alpha  occ. eigenvalues --   -1.64626  -1.12050  -1.05304  -0.96792  -0.88221
 Alpha  occ. eigenvalues --   -0.80300  -0.72722  -0.71437  -0.66000  -0.63305
 Alpha  occ. eigenvalues --   -0.62592  -0.58217  -0.52495  -0.51778  -0.50412
 Alpha  occ. eigenvalues --   -0.46847  -0.40356  -0.38333
 Alpha virt. eigenvalues --    0.03437   0.03903   0.04321   0.05051   0.05529
 Alpha virt. eigenvalues --    0.06628   0.07184   0.07565   0.08689   0.09377
 Alpha virt. eigenvalues --    0.12220   0.14003   0.14191   0.14615   0.15263

 Mulliken charges:
               1
     1  S    0.417383
     2  N    0.618623
     3  O   -0.941089
     4  C   -0.621608
     5  C   -0.408074
     6  H    0.167567
     7  H    0.312878
     8  C   -0.356686
     9  H    0.136331
    10  H    0.162564
    11  H    0.224740
    12  H    0.092920
    13  H    0.194451
 Sum of Mulliken charges =   0.00000

 Dipole moment (field-independent basis, Debye):
    X=              2.4015    Y=             -0.5288    Z=              1.1652  Tot=              2.7211

 Test job not archived.
 1\1\GINC-SE339\SP\RHF\Aug-CC-pVDZ\C3H7N1O1S1\OHZDE\08-Apr-2025\0\\#t h
 f aug-cc-pvdz iop(5/13=1,5/36=2,99/5=2) pseudo=read geom=check guess=(
 read,tcheck) scf=(maxcycle=1)\\title\\0,1\S,0,-0.769612,-1.004337,-0.4
 07798\N,0,-1.846296,0.508688,-0.267972\O,0,-1.518732,1.328882,0.512386
 \C,0,0.538096,-0.674166,0.811274\C,0,1.897764,-0.295997,0.207506\H,0,0
 .613244,-1.566607,1.435598\H,0,0.148148,0.141237,1.433664\C,0,1.905473
 ,1.050005,-0.51967\H,0,2.228332,-1.089497,-0.470248\H,0,2.622229,-0.27
 2635,1.030158\H,0,1.197229,1.054289,-1.352372\H,0,2.896476,1.26597,-0.

 Normal termination of Gaussian 16 at Tue Apr  8 23:16:13 2025.
