 Gaussian 16, Revision C.01,

 ----------------------------------------------------------------------
 #t hf aug-cc-pvdz symm=none int=(grid=ultrafine) guess=(read,tcheck) s
 table=(opt,rrhf)
 ----------------------------------------------------------------------
 -----
 title
 -----
 Symbolic Z-matrix:
 Charge =  0 Multiplicity = 1

 SCF Done:  E(RHF) =  -311.653896496     A.U. after   12 cycles
 Normal termination of Gaussian 16 at Tue Apr  8 22:44:26 2025.
 Gaussian 16:  ES64L-G16RevC.01  3-Jul-2019

 ----------------------------------------------------------------------
 #t hf aug-cc-pvdz iop(5/13=1,5/36=2,99/5=2) pseudo=read geom=check gue
 ss=(read,tcheck) scf=(maxcycle=1)
 ----------------------------------------------------------------------
 -----
 title
 -----
 Structure from the checkpoint file:  "BDE49_expt_1528_mol1.chk"
 Charge =  0 Multiplicity = 1

                         Standard orientation:
 ---------------------------------------------------------------------
 Center     Atomic      Atomic             Coordinates (Angstroms)
 Number     Number       Type             X           Y           Z
 ---------------------------------------------------------------------
      1          6           0        0.000000   -0.000000    0.145731
      2          8           0        0.000000   -0.000000    1.316449
      3          9           0        0.000000    1.066228   -0.633665
      4          9           0       -0.000000   -1.066228   -0.633665
 ---------------------------------------------------------------------

 SCF Done:  E(RHF) =  -311.939330433     A.U. after    2 cycles

 The electronic state is 1-A1.
 Alpha  occ. eigenvalues --  -26.55669 -26.55666 -20.61314 -11.55028  -1.74487
 Alpha  occ. eigenvalues --   -1.66045  -1.56329  -0.94184  -0.85177  -0.80026
 Alpha  occ. eigenvalues --   -0.79684  -0.69867  -0.69445  -0.67498  -0.57105
 Alpha  occ. eigenvalues --   -0.54678
 Alpha virt. eigenvalues --    0.07056   0.08300   0.09251   0.09307   0.15240
 Alpha virt. eigenvalues --    0.21221   0.21641   0.23865   0.25020   0.26434
 Alpha virt. eigenvalues --    0.28406   0.30700   0.32077   0.32415   0.34330

 Mulliken charges:
               1
     1  C    1.845305
     2  O   -0.767325
     3  F   -0.538990
     4  F   -0.538990
 Sum of Mulliken charges =  -0.00000

 Dipole moment (field-independent basis, Debye):
    X=              0.0000    Y=              0.0000    Z=             -1.1745  Tot=              1.1745

 Test job not archived.
 1\1\GINC-SE402\SP\RHF\Aug-CC-pVDZ\C1F2O1\OHZDE\08-Apr-2025\0\\#t hf au
 g-cc-pvdz iop(5/13=1,5/36=2,99/5=2) pseudo=read geom=check guess=(read
 ,tcheck) scf=(maxcycle=1)\\title\\0,1\C,0,0.,0.,0.145731\O,0,0.,0.,1.3
 16449\F,0,0.,1.066228,-0.633665\F,0,0.,-1.066228,-0.633665\\Version=ES
 64L-G16RevC.01\State=1-A1\HF=-311.9393304\RMSD=5.995e-03\Dipole=0.,0.,
 -0.4621013\Quadrupole=1.7032893,-0.0512578,-1.6520315,0.,0.,0.\PG=C02V
  [C2(C1O1),SGV(F2)]\\@

 Normal termination of Gaussian 16 at Tue Apr  8 22:44:27 2025.
