 Gaussian 16, Revision C.01,

 ----------------------------------------------------------------------
 #t hf aug-cc-pvdz symm=none int=(grid=ultrafine) guess=(read,tcheck) s
 table=(opt,rrhf)
 ----------------------------------------------------------------------
 -----
 title
 -----
 Symbolic Z-matrix:
 Charge =  0 Multiplicity = 1

 SCF Done:  E(RHF) =  -1030.51954549     A.U. after   16 cycles
 Normal termination of Gaussian 16 at Wed Apr  9 00:53:46 2025.
 Gaussian 16:  ES64L-G16RevC.01  3-Jul-2019

 ----------------------------------------------------------------------
 #t hf aug-cc-pvdz iop(5/13=1,5/36=2,99/5=2) pseudo=read geom=check gue
 ss=(read,tcheck) scf=(maxcycle=1)
 ----------------------------------------------------------------------
 -----
 title
 -----
 Structure from the checkpoint file:  "BDE49_nonexpt_960_mol1.chk"
 Charge =  0 Multiplicity = 1

                         Standard orientation:
 ---------------------------------------------------------------------
 Center     Atomic      Atomic             Coordinates (Angstroms)
 Number     Number       Type             X           Y           Z
 ---------------------------------------------------------------------
      1          9           0       -1.424537    1.090948    1.567243
      2          9           0       -1.424463   -1.090820    1.567346
      3         16           0       -1.125723   -0.000036   -0.755239
      4          8           0       -1.516042    1.266044   -1.307187
      5          8           0       -1.516028   -1.266155   -1.307107
      6          7           0       -1.977637    0.000013    0.891833
      7          6           0        1.255632    1.221417   -0.203491
      8          6           0        2.611381    1.211636    0.105867
      9          6           0        3.284421    0.000022    0.261144
     10          6           0        2.611394   -1.211609    0.105947
     11          6           0        1.255645   -1.221426   -0.203410
     12          6           0        0.597928   -0.000013   -0.353684
     13          1           0        0.714407    2.148012   -0.338553
     14          1           0        3.141977    2.148814    0.222615
     15          1           0        4.341351    0.000035    0.501405
     16          1           0        3.142000   -2.148774    0.222757
     17          1           0        0.714430   -2.148036   -0.338410
 ---------------------------------------------------------------------

 SCF Done:  E(RHF) =  -1031.18953542     A.U. after    2 cycles

 The electronic state is 1-A.
 Alpha  occ. eigenvalues --  -94.24840 -26.52881 -26.52876 -20.58033 -20.58030
 Alpha  occ. eigenvalues --  -15.74355 -11.31181 -11.29705 -11.29698 -11.29159
 Alpha  occ. eigenvalues --  -11.28115 -11.28100  -8.49906  -6.47994  -6.47777
 Alpha  occ. eigenvalues --   -6.47676  -1.69302  -1.60295  -1.60103  -1.48516
 Alpha  occ. eigenvalues --   -1.20881  -1.14679  -1.08526  -1.06470  -0.95665
 Alpha  occ. eigenvalues --   -0.88421  -0.86290  -0.80641  -0.78616  -0.77934
 Alpha  occ. eigenvalues --   -0.76020  -0.71131  -0.70545  -0.67683  -0.67000
 Alpha  occ. eigenvalues --   -0.66631  -0.66326  -0.64692  -0.63270  -0.58317
 Alpha  occ. eigenvalues --   -0.57543  -0.55737  -0.55233  -0.53174  -0.52539
 Alpha  occ. eigenvalues --   -0.50535  -0.48238  -0.40175  -0.38694
 Alpha virt. eigenvalues --    0.02351   0.03044   0.03618   0.04095   0.05947
 Alpha virt. eigenvalues --    0.06432   0.07503   0.08633   0.09988   0.10296
 Alpha virt. eigenvalues --    0.11317   0.11920   0.12325   0.12995   0.13017

 Mulliken charges:
               1
     1  F   -0.607345
     2  F   -0.607346
     3  S    3.943284
     4  O   -1.613269
     5  O   -1.613267
     6  N    0.839288
     7  C   -0.583732
     8  C    0.589992
     9  C   -0.086168
    10  C    0.589982
    11  C   -0.583742
    12  C    0.852652
    13  H   -0.253599
    14  H   -0.208365
    15  H   -0.196398
    16  H   -0.208366
    17  H   -0.253600
 Sum of Mulliken charges =  -0.00000

 Dipole moment (field-independent basis, Debye):
    X=              5.9902    Y=              0.0001    Z=              1.0128  Tot=              6.0753

 Test job not archived.
 1\1\GINC-SE341\SP\RHF\Aug-CC-pVDZ\C6H5F2N1O2S1\OHZDE\09-Apr-2025\0\\#t
  hf aug-cc-pvdz iop(5/13=1,5/36=2,99/5=2) pseudo=read geom=check guess
 =(read,tcheck) scf=(maxcycle=1)\\title\\0,1\F,0,-1.424537,1.090948,1.5
 67243\F,0,-1.424463,-1.09082,1.567346\S,0,-1.125723,-0.000036,-0.75523
 9\O,0,-1.516042,1.266044,-1.307187\O,0,-1.516028,-1.266155,-1.307107\N
 ,0,-1.977637,0.000013,0.891833\C,0,1.255632,1.221417,-0.203491\C,0,2.6
 11381,1.211636,0.105867\C,0,3.284421,0.000022,0.261144\C,0,2.611394,-1
 .211609,0.105947\C,0,1.255645,-1.221426,-0.20341\C,0,0.597928,-0.00001

 Normal termination of Gaussian 16 at Wed Apr  9 00:53:57 2025.
