 Gaussian 16, Revision C.01,

 ----------------------------------------------------------------------
 #t hf aug-cc-pvdz symm=none int=(grid=ultrafine) guess=(read,tcheck) s
 table=(opt,rrhf)
 ----------------------------------------------------------------------
 -----
 title
 -----
 Symbolic Z-matrix:
 Charge =  0 Multiplicity = 1

 SCF Done:  E(RHF) =  -844.974784097     A.U. after   12 cycles
 Normal termination of Gaussian 16 at Wed Apr  9 00:16:13 2025.
 Gaussian 16:  ES64L-G16RevC.01  3-Jul-2019

 ----------------------------------------------------------------------
 #t hf aug-cc-pvdz iop(5/13=1,5/36=2,99/5=2) pseudo=read geom=check gue
 ss=(read,tcheck) scf=(maxcycle=1)
 ----------------------------------------------------------------------
 -----
 title
 -----
 Structure from the checkpoint file:  "BDE49_nonexpt_2500_mol1.chk"
 Charge =  0 Multiplicity = 1

                         Standard orientation:
 ---------------------------------------------------------------------
 Center     Atomic      Atomic             Coordinates (Angstroms)
 Number     Number       Type             X           Y           Z
 ---------------------------------------------------------------------
      1          6           0       -0.994737    0.545829   -0.842306
      2          6           0       -1.976572    0.912627    0.273402
      3          6           0       -3.094833   -0.109773    0.485611
      4          1           0       -2.415574    1.884893    0.014980
      5          1           0       -1.427103    1.062464    1.208046
      6          1           0       -2.689763   -1.084690    0.765561
      7          1           0       -3.686613   -0.240842   -0.426043
      8         16           0       -0.000323   -0.992903   -0.535088
      9          1           0       -0.308540    1.369221   -1.047385
     10          1           0       -1.530940    0.339362   -1.771899
     11         14           0        1.640434   -0.254516    0.655957
     12          6           0        2.783457    0.904542   -0.279063
     13          1           0        3.204041    0.410440   -1.158013
     14          1           0        3.608086    1.218368    0.369131
     15          1           0        2.261120    1.805644   -0.611265
     16          1           0       -3.773262    0.213923    1.279013
     17          1           0        2.357635   -1.484526    1.061152
     18          1           0        1.136111    0.436067    1.868867
 ---------------------------------------------------------------------

 SCF Done:  E(RHF) =  -845.249514156     A.U. after    2 cycles

 The electronic state is 1-A.
 Alpha  occ. eigenvalues --  -93.92595 -69.54631 -11.27287 -11.23890 -11.22438
 Alpha  occ. eigenvalues --  -11.22347  -8.20872  -6.21455  -6.18667  -6.18531
 Alpha  occ. eigenvalues --   -6.18349  -3.96850  -3.96774  -3.96740  -1.08907
 Alpha  occ. eigenvalues --   -0.99857  -0.95704  -0.89607  -0.80176  -0.69686
 Alpha  occ. eigenvalues --   -0.63613  -0.62610  -0.58081  -0.57622  -0.56629
 Alpha  occ. eigenvalues --   -0.52592  -0.50973  -0.50129  -0.48576  -0.47708
 Alpha  occ. eigenvalues --   -0.45613  -0.41529  -0.35542
 Alpha virt. eigenvalues --    0.03258   0.03734   0.03856   0.04189   0.05598
 Alpha virt. eigenvalues --    0.05678   0.06176   0.07152   0.07702   0.08322
 Alpha virt. eigenvalues --    0.08794   0.09070   0.10523   0.11186   0.11863

 Mulliken charges:
               1
     1  C   -0.425362
     2  C   -0.383178
     3  C   -0.428081
     4  H    0.168776
     5  H    0.130926
     6  H    0.196037
     7  H    0.155509
     8  S   -0.367129
     9  H    0.004907
    10  H    0.231987
    11  Si   1.479290
    12  C   -0.624990
    13  H    0.085844
    14  H    0.003540
    15  H    0.057064
    16  H    0.118247
    17  H   -0.243694
    18  H   -0.159693
 Sum of Mulliken charges =  -0.00000

 Dipole moment (field-independent basis, Debye):
    X=              0.0899    Y=              2.0969    Z=              0.0157  Tot=              2.0989

 Test job not archived.
 1\1\GINC-SE044\SP\RHF\Aug-CC-pVDZ\C4H12S1Si1\OHZDE\09-Apr-2025\0\\#t h
 f aug-cc-pvdz iop(5/13=1,5/36=2,99/5=2) pseudo=read geom=check guess=(
 read,tcheck) scf=(maxcycle=1)\\title\\0,1\C,0,0.994737,0.545829,0.8423
 06\C,0,1.976572,0.912627,-0.273402\C,0,3.094833,-0.109773,-0.485611\H,
 0,2.415574,1.884893,-0.01498\H,0,1.427103,1.062464,-1.208046\H,0,2.689
 763,-1.08469,-0.765561\H,0,3.686613,-0.240842,0.426043\S,0,0.000323,-0
 .992903,0.535088\H,0,0.30854,1.369221,1.047385\H,0,1.53094,0.339362,1.
 771899\Si,0,-1.640434,-0.254516,-0.655957\C,0,-2.783457,0.904542,0.279

 Normal termination of Gaussian 16 at Wed Apr  9 00:16:20 2025.
