 Gaussian 16, Revision C.01,

 ----------------------------------------------------------------------
 #t hf aug-cc-pvdz symm=none int=(grid=ultrafine) guess=(read,tcheck) s
 table=(opt,rrhf)
 ----------------------------------------------------------------------
 -----
 title
 -----
 Symbolic Z-matrix:
 Charge =  0 Multiplicity = 1

 SCF Done:  E(RHF) =  -1465.04616151     A.U. after   13 cycles
 Normal termination of Gaussian 16 at Tue Apr  8 23:36:10 2025.
 Gaussian 16:  ES64L-G16RevC.01  3-Jul-2019

 ----------------------------------------------------------------------
 #t hf aug-cc-pvdz iop(5/13=1,5/36=2,99/5=2) pseudo=read geom=check gue
 ss=(read,tcheck) scf=(maxcycle=1)
 ----------------------------------------------------------------------
 -----
 title
 -----
 Structure from the checkpoint file:  "BDE49_nonexpt_1513_mol1.chk"
 Charge =  0 Multiplicity = 1

                         Standard orientation:
 ---------------------------------------------------------------------
 Center     Atomic      Atomic             Coordinates (Angstroms)
 Number     Number       Type             X           Y           Z
 ---------------------------------------------------------------------
      1         15           0        0.218944    0.112645   -0.813622
      2          7           0       -1.095060   -0.796029   -0.108197
      3          8           0       -1.117730   -0.851117    1.294967
      4          8           0       -2.264085   -0.109972   -0.555689
      5         17           0        0.318162    1.851400    0.360944
      6         17           0        1.768869   -1.017357    0.021007
      7          1           0       -2.808604   -0.816081   -0.926461
      8          1           0       -1.235125   -1.791413    1.480784
 ---------------------------------------------------------------------

 SCF Done:  E(RHF) =  -1465.44513022     A.U. after    2 cycles

 The electronic state is 1-A.
 Alpha  occ. eigenvalues -- -105.58222-105.57514 -84.41713 -20.62394 -20.61952
 Alpha  occ. eigenvalues --  -15.64638 -10.63139 -10.62408  -7.80044  -7.79663
 Alpha  occ. eigenvalues --   -7.79646  -7.79312  -7.78934  -7.78917  -6.87631
 Alpha  occ. eigenvalues --   -4.39924  -4.39200  -4.38804  -1.57184  -1.47828
 Alpha  occ. eigenvalues --   -1.14496  -1.06022  -1.04986  -0.82350  -0.76577
 Alpha  occ. eigenvalues --   -0.75103  -0.67394  -0.64210  -0.57181  -0.54390
 Alpha  occ. eigenvalues --   -0.53458  -0.50837  -0.49506  -0.48828  -0.46898
 Alpha  occ. eigenvalues --   -0.46304  -0.39066
 Alpha virt. eigenvalues --    0.02949   0.04832   0.07253   0.07724   0.08058
 Alpha virt. eigenvalues --    0.10941   0.12398   0.12618   0.13397   0.14099
 Alpha virt. eigenvalues --    0.14716   0.15818   0.16935   0.17223   0.18610

 Mulliken charges:
               1
     1  P    1.164262
     2  N    1.203908
     3  O   -1.064254
     4  O   -0.997827
     5  Cl  -0.470238
     6  Cl  -0.463256
     7  H    0.318918
     8  H    0.308487
 Sum of Mulliken charges =   0.00000

 Dipole moment (field-independent basis, Debye):
    X=             -1.9120    Y=             -2.5560    Z=             -1.2225  Tot=              3.4181

 Test job not archived.
 1\1\GINC-SE423\SP\RHF\Aug-CC-pVDZ\Cl2H2N1O2P1\OHZDE\08-Apr-2025\0\\#t
 hf aug-cc-pvdz iop(5/13=1,5/36=2,99/5=2) pseudo=read geom=check guess=
 (read,tcheck) scf=(maxcycle=1)\\title\\0,1\P,0,0.218944,0.112645,-0.81
 3622\N,0,-1.09506,-0.796029,-0.108197\O,0,-1.11773,-0.851117,1.294967\
 O,0,-2.264085,-0.109972,-0.555689\Cl,0,0.318162,1.8514,0.360944\Cl,0,1
 .768869,-1.017357,0.021007\H,0,-2.808604,-0.816081,-0.926461\H,0,-1.23
 5125,-1.791413,1.480784\\Version=ES64L-G16RevC.01\State=1-A\HF=-1465.4
 451302\RMSD=1.148e-02\Dipole=-0.7522495,-1.0056022,-0.4809571\Quadrupo

 Normal termination of Gaussian 16 at Tue Apr  8 23:36:13 2025.
