 Gaussian 16, Revision C.01,

 ----------------------------------------------------------------------
 #t hf aug-cc-pvdz symm=none int=(grid=ultrafine) guess=(read,tcheck) s
 table=(opt,rrhf)
 ----------------------------------------------------------------------
 -----
 title
 -----
 Symbolic Z-matrix:
 Charge =  0 Multiplicity = 1

 SCF Done:  E(RHF) =  -347.308987831     A.U. after   13 cycles
 Normal termination of Gaussian 16 at Wed Apr  9 00:38:25 2025.
 Gaussian 16:  ES64L-G16RevC.01  3-Jul-2019

 ----------------------------------------------------------------------
 #t hf aug-cc-pvdz iop(5/13=1,5/36=2,99/5=2) pseudo=read geom=check gue
 ss=(read,tcheck) scf=(maxcycle=1)
 ----------------------------------------------------------------------
 -----
 title
 -----
 Structure from the checkpoint file:  "BDE49_nonexpt_584_mol1.chk"
 Charge =  0 Multiplicity = 1

                         Standard orientation:
 ---------------------------------------------------------------------
 Center     Atomic      Atomic             Coordinates (Angstroms)
 Number     Number       Type             X           Y           Z
 ---------------------------------------------------------------------
      1          6           0        0.894567   -0.842450   -0.159633
      2          5           0       -1.485221    0.069683   -0.013437
      3          8           0       -1.206480    1.399519   -0.204711
      4          8           0       -2.785048   -0.320068    0.186632
      5          6           0        1.656654    0.176159    0.261353
      6          6           0        3.137892    0.257348    0.026712
      7          1           0        1.208266    0.978372    0.842694
      8          1           0        3.507073   -0.630145   -0.494328
      9          1           0        3.686962    0.345364    0.970855
     10          1           0        3.410250    1.130492   -0.577572
     11          1           0       -0.288746    1.551709   -0.452992
     12          1           0       -3.385309    0.428794    0.133714
     13          7           0       -0.492608   -0.963418   -0.036894
     14          1           0        1.373329   -1.680634   -0.663387
     15          1           0       -0.839923   -1.910392   -0.059511
 ---------------------------------------------------------------------

 SCF Done:  E(RHF) =  -347.667173222     A.U. after    2 cycles

 The electronic state is 1-A.
 Alpha  occ. eigenvalues --  -20.55027 -20.54578 -15.49681 -11.28058 -11.23562
 Alpha  occ. eigenvalues --  -11.23239  -7.64586  -1.47357  -1.43330  -1.21214
 Alpha  occ. eigenvalues --   -1.05522  -0.92987  -0.81548  -0.75902  -0.73704
 Alpha  occ. eigenvalues --   -0.71440  -0.66660  -0.61119  -0.57941  -0.57197
 Alpha  occ. eigenvalues --   -0.55801  -0.55191  -0.54850  -0.51686  -0.49213
 Alpha  occ. eigenvalues --   -0.48678  -0.33840
 Alpha virt. eigenvalues --    0.03585   0.03956   0.04362   0.04898   0.05304
 Alpha virt. eigenvalues --    0.06163   0.06576   0.07946   0.08700   0.08843
 Alpha virt. eigenvalues --    0.09712   0.11133   0.12411   0.13438   0.14517

 Mulliken charges:
               1
     1  C   -1.310652
     2  B    1.436922
     3  O   -1.274266
     4  O   -1.230799
     5  C    0.839207
     6  C   -0.786869
     7  H   -0.265423
     8  H    0.107180
     9  H    0.210620
    10  H    0.205171
    11  H    0.618168
    12  H    0.505770
    13  N    1.170986
    14  H   -0.219606
    15  H   -0.006409
 Sum of Mulliken charges =  -0.00000

 Dipole moment (field-independent basis, Debye):
    X=              1.3107    Y=             -0.1347    Z=             -0.5651  Tot=              1.4337

 Test job not archived.
 1\1\GINC-SE150\SP\RHF\Aug-CC-pVDZ\C3H8B1N1O2\OHZDE\09-Apr-2025\0\\#t h
 f aug-cc-pvdz iop(5/13=1,5/36=2,99/5=2) pseudo=read geom=check guess=(
 read,tcheck) scf=(maxcycle=1)\\title\\0,1\C,0,0.894567,-0.84245,-0.159
 633\B,0,-1.485221,0.069683,-0.013437\O,0,-1.20648,1.399519,-0.204711\O
 ,0,-2.785048,-0.320068,0.186632\C,0,1.656654,0.176159,0.261353\C,0,3.1
 37892,0.257348,0.026712\H,0,1.208266,0.978372,0.842694\H,0,3.507073,-0
 .630145,-0.494328\H,0,3.686962,0.345364,0.970855\H,0,3.41025,1.130492,
 -0.577572\H,0,-0.288746,1.551709,-0.452992\H,0,-3.385309,0.428794,0.13

 Normal termination of Gaussian 16 at Wed Apr  9 00:38:30 2025.
