 Gaussian 16, Revision C.01,

 ----------------------------------------------------------------------
 #t hf aug-cc-pvdz symm=none int=(grid=ultrafine) guess=(read,tcheck) s
 table=(opt,rrhf)
 ----------------------------------------------------------------------
 -----
 title
 -----
 Symbolic Z-matrix:
 Charge =  0 Multiplicity = 1

 SCF Done:  E(RHF) =  -840.987700895     A.U. after   17 cycles
 Normal termination of Gaussian 16 at Wed Apr  9 00:24:50 2025.
 Gaussian 16:  ES64L-G16RevC.01  3-Jul-2019

 ----------------------------------------------------------------------
 #t hf aug-cc-pvdz iop(5/13=1,5/36=2,99/5=2) pseudo=read geom=check gue
 ss=(read,tcheck) scf=(maxcycle=1)
 ----------------------------------------------------------------------
 -----
 title
 -----
 Structure from the checkpoint file:  "BDE49_nonexpt_2694_mol1.chk"
 Charge =  0 Multiplicity = 1

                         Standard orientation:
 ---------------------------------------------------------------------
 Center     Atomic      Atomic             Coordinates (Angstroms)
 Number     Number       Type             X           Y           Z
 ---------------------------------------------------------------------
      1          9           0        3.042979   -0.103416   -0.000017
      2         16           0        1.672324   -1.059307   -0.000003
      3          6           0        0.461734    0.229281   -0.000006
      4          6           0       -0.872415   -0.208824    0.000006
      5          6           0       -1.909731    0.715931    0.000005
      6          1           0       -2.940832    0.388037    0.000014
      7          6           0       -1.610023    2.082129   -0.000008
      8          6           0        0.754752    1.586991   -0.000020
      9          1           0        1.787233    1.908354   -0.000029
     10          6           0       -0.289669    2.514256   -0.000021
     11          1           0       -0.061065    3.573291   -0.000031
     12          1           0       -2.420006    2.801812   -0.000009
     13          8           0       -1.000569   -1.570101    0.000017
     14          6           0       -2.304629   -2.139629    0.000041
     15          1           0       -2.159097   -3.218085    0.000054
     16          1           0       -2.862907   -1.846893   -0.895111
     17          1           0       -2.862883   -1.846869    0.895200
 ---------------------------------------------------------------------

 SCF Done:  E(RHF) =  -841.485852479     A.U. after    2 cycles

 The electronic state is 1-A.
 Alpha  occ. eigenvalues --  -94.03806 -26.46706 -20.59219 -11.32409 -11.31031
 Alpha  occ. eigenvalues --  -11.28364 -11.25788 -11.25637 -11.25506 -11.24809
 Alpha  occ. eigenvalues --   -8.31026  -6.28826  -6.28514  -6.28216  -1.56813
 Alpha  occ. eigenvalues --   -1.51594  -1.17479  -1.07815  -1.03420  -0.97646
 Alpha  occ. eigenvalues --   -0.95503  -0.84430  -0.82761  -0.74299  -0.70132
 Alpha  occ. eigenvalues --   -0.68687  -0.67468  -0.64980  -0.64969  -0.64411
 Alpha  occ. eigenvalues --   -0.62211  -0.60636  -0.56544  -0.55759  -0.53791
 Alpha  occ. eigenvalues --   -0.52855  -0.48685  -0.48381  -0.42754  -0.34836
 Alpha  occ. eigenvalues --   -0.31460
 Alpha virt. eigenvalues --    0.02918   0.03386   0.04106   0.04902   0.05166
 Alpha virt. eigenvalues --    0.06208   0.07973   0.08610   0.08971   0.09011
 Alpha virt. eigenvalues --    0.10957   0.11699   0.11772   0.12505   0.12866

 Mulliken charges:
               1
     1  F   -0.729824
     2  S    0.753489
     3  C    0.041740
     4  C    1.400692
     5  C    0.139377
     6  H   -0.408375
     7  C    0.111902
     8  C    0.306153
     9  H   -0.149848
    10  C    0.327799
    11  H   -0.214056
    12  H   -0.221447
    13  O   -1.818296
    14  C    0.133520
    15  H   -0.022967
    16  H    0.175070
    17  H    0.175070
 Sum of Mulliken charges =  -0.00000

 Dipole moment (field-independent basis, Debye):
    X=             -3.7676    Y=              0.0636    Z=              0.0000  Tot=              3.7682

 Test job not archived.
 1\1\GINC-SE367\SP\RHF\Aug-CC-pVDZ\C7H7F1O1S1\OHZDE\09-Apr-2025\0\\#t h
 f aug-cc-pvdz iop(5/13=1,5/36=2,99/5=2) pseudo=read geom=check guess=(
 read,tcheck) scf=(maxcycle=1)\\title\\0,1\F,0,3.042979,-0.103416,-0.00
 0017\S,0,1.672324,-1.059307,-0.000003\C,0,0.461734,0.229281,-0.000006\
 C,0,-0.872415,-0.208824,0.000006\C,0,-1.909731,0.715931,0.000005\H,0,-
 2.940832,0.388037,0.000014\C,0,-1.610023,2.082129,-0.000008\C,0,0.7547
 52,1.586991,-0.00002\H,0,1.787233,1.908354,-0.000029\C,0,-0.289669,2.5
 14256,-0.000021\H,0,-0.061065,3.573291,-0.000031\H,0,-2.420006,2.80181

 Normal termination of Gaussian 16 at Wed Apr  9 00:24:58 2025.
