 Gaussian 16, Revision C.01,

 ----------------------------------------------------------------------
 #t hf aug-cc-pvdz symm=none int=(grid=ultrafine) guess=(read,tcheck) s
 table=opt
 ----------------------------------------------------------------------
 -----
 title
 -----
 Symbolic Z-matrix:
 Charge =  0 Multiplicity = 2

 SCF Done:  E(UHF) =  -241.828289932     A.U. after   14 cycles
 Normal termination of Gaussian 16 at Wed Apr  9 00:32:24 2025.
 Gaussian 16:  ES64L-G16RevC.01  3-Jul-2019

 ----------------------------------------------------------------------
 #t hf aug-cc-pvdz iop(5/13=1,5/36=2,99/5=2) pseudo=read geom=check gue
 ss=(read,tcheck) scf=(maxcycle=1)
 ----------------------------------------------------------------------
 -----
 title
 -----
 Structure from the checkpoint file:  "BDE49_nonexpt_373_mol2.chk"
 Charge =  0 Multiplicity = 2

                         Standard orientation:
 ---------------------------------------------------------------------
 Center     Atomic      Atomic             Coordinates (Angstroms)
 Number     Number       Type             X           Y           Z
 ---------------------------------------------------------------------
      1          9           0       -2.188181   -0.565528   -0.000001
      2          5           0       -1.613410    0.622681   -0.000000
      3          6           0       -0.062913    0.831468    0.000001
      4          6           0        0.800032   -0.447097   -0.000000
      5          1           0        0.179386    1.465075   -0.865359
      6          6           0        2.302654   -0.153439    0.000001
      7          1           0        0.544989   -1.055783   -0.873684
      8          1           0        0.544988   -1.055785    0.873683
      9          1           0        2.592581    0.424688   -0.882953
     10          1           0        2.888131   -1.077198   -0.000000
     11          1           0        0.179385    1.465073    0.865362
     12          1           0        2.592580    0.424686    0.882956
 ---------------------------------------------------------------------

 SCF Done:  E(UHF) =  -242.072333678     A.U. after    2 cycles

 The electronic state is 2-A.
 Alpha  occ. eigenvalues --  -26.47592 -11.23871 -11.22826 -11.22669  -7.67401
 Alpha  occ. eigenvalues --   -1.60701  -1.06805  -0.94792  -0.82264  -0.77071
 Alpha  occ. eigenvalues --   -0.68973  -0.66222  -0.63396  -0.61504  -0.55904
 Alpha  occ. eigenvalues --   -0.54893  -0.51767  -0.49114  -0.48520  -0.34387
 Alpha virt. eigenvalues --    0.03682   0.03769   0.03864   0.04174   0.06286
 Alpha virt. eigenvalues --    0.06365   0.06773   0.07385   0.09429   0.10191
 Alpha virt. eigenvalues --    0.11432   0.12334   0.13039   0.14331   0.15972

  Beta  occ. eigenvalues --  -26.47266 -11.23775 -11.22813 -11.22380  -7.65529
  Beta  occ. eigenvalues --   -1.59795  -1.06330  -0.94026  -0.81758  -0.75776
  Beta  occ. eigenvalues --   -0.66112  -0.66073  -0.63373  -0.60001  -0.55265
  Beta  occ. eigenvalues --   -0.54810  -0.49659  -0.48473  -0.48423
  Beta virt. eigenvalues --    0.03247   0.03802   0.03820   0.04039   0.06245
  Beta virt. eigenvalues --    0.06635   0.06744   0.07414   0.09152   0.09570
  Beta virt. eigenvalues --    0.10413   0.12153   0.14343   0.14722   0.14794

 Mulliken charges and spin densities:
               1          2
     1  F   -0.532459  -0.052065
     2  B    0.538588   1.020739
     3  C   -0.146682   0.063863
     4  C   -0.550323   0.003306
     5  H    0.178020  -0.012387
     6  C   -0.305088  -0.010832
     7  H    0.093566   0.000231
     8  H    0.093567   0.000231
     9  H    0.164302  -0.001051
    10  H    0.124189   0.001405
    11  H    0.178019  -0.012387
    12  H    0.164301  -0.001051
 Sum of Mulliken charges =   0.00000   1.00000

 Dipole moment (field-independent basis, Debye):
    X=              1.4077    Y=              0.2793    Z=              0.0000  Tot=              1.4351
                          Isotropic Fermi Contact Couplings
        Atom                 a.u.       MegaHertz       Gauss      10(-4) cm-1
     1  F(19)              0.07533     316.95816     113.09855     105.72586
     2  B(11)              0.31851     456.86038     163.01914     152.39222
     3  C(13)              0.07116      79.99643      28.54471      26.68394
     4  C(13)              0.01834      20.62142       7.35824       6.87857
     5  H(1)              -0.00137      -6.13923      -2.19063      -2.04783
     6  C(13)              0.00327       3.67294       1.31059       1.22516
     7  H(1)              -0.00060      -2.70075      -0.96369      -0.90087
     8  H(1)              -0.00060      -2.70075      -0.96370      -0.90087

 Normal termination of Gaussian 16 at Wed Apr  9 00:32:27 2025.
