 Gaussian 16, Revision C.01,

 ----------------------------------------------------------------------
 #t hf aug-cc-pvdz symm=none int=(grid=ultrafine) guess=(read,tcheck) s
 table=opt
 ----------------------------------------------------------------------
 -----
 title
 -----
 Symbolic Z-matrix:
 Charge =  0 Multiplicity = 2

 SCF Done:  E(UHF) =  -457.788201252     A.U. after   17 cycles
 Normal termination of Gaussian 16 at Wed Apr  9 00:42:57 2025.
 Gaussian 16:  ES64L-G16RevC.01  3-Jul-2019

 ----------------------------------------------------------------------
 #t hf aug-cc-pvdz iop(5/13=1,5/36=2,99/5=2) pseudo=read geom=check gue
 ss=(read,tcheck) scf=(maxcycle=1)
 ----------------------------------------------------------------------
 -----
 title
 -----
 Structure from the checkpoint file:  "BDE49_nonexpt_719_mol2.chk"
 Charge =  0 Multiplicity = 2

                         Standard orientation:
 ---------------------------------------------------------------------
 Center     Atomic      Atomic             Coordinates (Angstroms)
 Number     Number       Type             X           Y           Z
 ---------------------------------------------------------------------
      1          6           0        0.216805   -0.056289    0.548008
      2          6           0        1.347682    0.749595   -0.069961
      3          6           0        1.335450   -0.732622   -0.254042
      4          1           0        1.083297   -1.126226   -1.231474
      5          1           0        2.038009   -1.336859    0.307831
      6          1           0        2.072066    1.184530    0.608574
      7          1           0        1.108654    1.370068   -0.926747
      8         15           0       -1.456470    0.064559   -0.173454
      9          1           0        0.273316   -0.203873    1.620427
     10          1           0       -2.127915   -0.620123    0.879169
 ---------------------------------------------------------------------

 SCF Done:  E(UHF) =  -457.956259344     A.U. after    2 cycles

 The electronic state is 2-A.
 Alpha  occ. eigenvalues --  -84.27359 -11.24938 -11.24882 -11.24661  -6.74563
 Alpha  occ. eigenvalues --   -4.27095  -4.26784  -4.26026  -1.15198  -0.89843
 Alpha  occ. eigenvalues --   -0.83541  -0.76389  -0.67967  -0.61882  -0.53239
 Alpha  occ. eigenvalues --   -0.50987  -0.46177  -0.43103  -0.38084  -0.30562
 Alpha virt. eigenvalues --    0.03686   0.04554   0.04644   0.04869   0.06936
 Alpha virt. eigenvalues --    0.07079   0.09098   0.10306   0.11235   0.12338
 Alpha virt. eigenvalues --    0.13338   0.14566   0.15562   0.16133   0.16176

  Beta  occ. eigenvalues --  -84.26690 -11.25097 -11.24686 -11.24590  -6.73714
  Beta  occ. eigenvalues --   -4.26290  -4.25635  -4.23808  -1.14704  -0.86815
  Beta  occ. eigenvalues --   -0.83028  -0.73752  -0.67530  -0.61198  -0.53062
  Beta  occ. eigenvalues --   -0.50712  -0.43989  -0.42609  -0.35940
  Beta virt. eigenvalues --    0.03560   0.03714   0.04568   0.04909   0.05922
  Beta virt. eigenvalues --    0.07001   0.07582   0.09179   0.10536   0.12476
  Beta virt. eigenvalues --    0.13270   0.13576   0.14697   0.16168   0.16251

 Mulliken charges and spin densities:
               1          2
     1  C   -0.116046  -0.180328
     2  C    0.225935   0.040732
     3  C    0.128898   0.072435
     4  H   -0.100825  -0.007968
     5  H   -0.097030  -0.002095
     6  H   -0.112657  -0.001466
     7  H   -0.106926  -0.006399
     8  P    0.148215   1.263524
     9  H   -0.167618  -0.001725
    10  H    0.198055  -0.176708
 Sum of Mulliken charges =   0.00000   1.00000

 Dipole moment (field-independent basis, Debye):
    X=              1.0294    Y=             -0.2339    Z=              0.6444  Tot=              1.2367
                          Isotropic Fermi Contact Couplings
        Atom                 a.u.       MegaHertz       Gauss      10(-4) cm-1
     1  C(13)             -0.03574     -40.17866     -14.33674     -13.40216
     2  C(13)              0.01012      11.37142       4.05761       3.79310
     3  C(13)              0.03950      44.40492      15.84478      14.81189
     4  H(1)              -0.00141      -6.30984      -2.25151      -2.10473
     5  H(1)               0.00044       1.94583       0.69432       0.64906
     6  H(1)               0.00035       1.58290       0.56482       0.52800
     7  H(1)              -0.00053      -2.37442      -0.84725      -0.79202
     8  P(31)              0.20420     369.82434     131.96252     123.36012

 Normal termination of Gaussian 16 at Wed Apr  9 00:43:00 2025.
