 Gaussian 16, Revision C.01,

 ----------------------------------------------------------------------
 #t hf aug-cc-pvdz symm=none int=(grid=ultrafine) guess=(read,tcheck) s
 table=(opt,rrhf)
 ----------------------------------------------------------------------
 -----
 title
 -----
 Symbolic Z-matrix:
 Charge =  0 Multiplicity = 1

 SCF Done:  E(RHF) =  -1002.59202972     A.U. after   13 cycles
 Normal termination of Gaussian 16 at Tue Apr  8 23:40:40 2025.
 Gaussian 16:  ES64L-G16RevC.01  3-Jul-2019

 ----------------------------------------------------------------------
 #t hf aug-cc-pvdz iop(5/13=1,5/36=2,99/5=2) pseudo=read geom=check gue
 ss=(read,tcheck) scf=(maxcycle=1)
 ----------------------------------------------------------------------
 -----
 title
 -----
 Structure from the checkpoint file:  "BDE49_nonexpt_1621_mol1.chk"
 Charge =  0 Multiplicity = 1

                         Standard orientation:
 ---------------------------------------------------------------------
 Center     Atomic      Atomic             Coordinates (Angstroms)
 Number     Number       Type             X           Y           Z
 ---------------------------------------------------------------------
      1          7           0        1.900085   -1.296879    0.229928
      2         15           0        1.197355   -0.042208   -0.693754
      3          1           0        1.921580   -2.193321   -0.237405
      4          1           0        1.611180   -1.395229    1.196970
      5          6           0        1.718756    1.434119    0.289434
      6         15           0       -0.925616   -0.120589   -0.044110
      7          1           0        2.786880    1.588216    0.122739
      8          1           0        1.528955    1.314915    1.357565
      9          1           0        1.174082    2.308882   -0.071808
     10          8           0       -1.718301   -1.262601   -0.535360
     11          8           0       -1.557816    1.315884   -0.464471
     12          1           0       -2.185519    1.206222   -1.189863
     13          8           0       -0.834495   -0.003249    1.567803
     14          1           0       -1.641468   -0.314577    1.999895
 ---------------------------------------------------------------------

 SCF Done:  E(RHF) =  -1003.00785587     A.U. after    2 cycles

 The electronic state is 1-A.
 Alpha  occ. eigenvalues --  -84.42030 -84.31087 -20.59380 -20.59057 -20.50190
 Alpha  occ. eigenvalues --  -15.51101 -11.24790  -6.87427  -6.77893  -4.41425
 Alpha  occ. eigenvalues --   -4.40751  -4.39685  -4.30544  -4.30056  -4.29542
 Alpha  occ. eigenvalues --   -1.52647  -1.47073  -1.38266  -1.18304  -0.99534
 Alpha  occ. eigenvalues --   -0.87334  -0.78905  -0.72901  -0.71222  -0.67111
 Alpha  occ. eigenvalues --   -0.65069  -0.62016  -0.59030  -0.58211  -0.55020
 Alpha  occ. eigenvalues --   -0.54662  -0.53231  -0.52077  -0.47281  -0.45349
 Alpha  occ. eigenvalues --   -0.40589  -0.34276
 Alpha virt. eigenvalues --    0.03407   0.04334   0.04561   0.05210   0.06311
 Alpha virt. eigenvalues --    0.06718   0.07265   0.08312   0.09821   0.10997
 Alpha virt. eigenvalues --    0.11906   0.12158   0.13836   0.14720   0.15579

 Mulliken charges:
               1
     1  N   -0.192530
     2  P    0.527155
     3  H    0.086974
     4  H   -0.006086
     5  C   -0.906249
     6  P    3.548287
     7  H    0.102621
     8  H    0.155041
     9  H    0.138797
    10  O   -1.487387
    11  O   -1.295075
    12  H    0.322362
    13  O   -1.322283
    14  H    0.328373
 Sum of Mulliken charges =  -0.00000

 Dipole moment (field-independent basis, Debye):
    X=              0.5290    Y=              1.4567    Z=              1.2873  Tot=              2.0147

 Test job not archived.
 1\1\GINC-SE186\SP\RHF\Aug-CC-pVDZ\C1H7N1O3P2\OHZDE\08-Apr-2025\0\\#t h
 f aug-cc-pvdz iop(5/13=1,5/36=2,99/5=2) pseudo=read geom=check guess=(
 read,tcheck) scf=(maxcycle=1)\\title\\0,1\N,0,1.900085,-1.296879,0.229
 928\P,0,1.197355,-0.042208,-0.693754\H,0,1.92158,-2.193321,-0.237405\H
 ,0,1.61118,-1.395229,1.19697\C,0,1.718756,1.434119,0.289434\P,0,-0.925
 616,-0.120589,-0.04411\H,0,2.78688,1.588216,0.122739\H,0,1.528955,1.31
 4915,1.357565\H,0,1.174082,2.308882,-0.071808\O,0,-1.718301,-1.262601,
 -0.53536\O,0,-1.557816,1.315884,-0.464471\H,0,-2.185519,1.206222,-1.18

 Normal termination of Gaussian 16 at Tue Apr  8 23:40:46 2025.
