 Gaussian 16, Revision C.01,

 ----------------------------------------------------------------------
 #t hf aug-cc-pvdz symm=none int=(grid=ultrafine) guess=(read,tcheck) s
 table=(opt,rrhf)
 ----------------------------------------------------------------------
 -----
 title
 -----
 Symbolic Z-matrix:
 Charge =  0 Multiplicity = 1

 SCF Done:  E(RHF) =  -305.601646251     A.U. after   14 cycles
 Normal termination of Gaussian 16 at Tue Apr  8 22:40:43 2025.
 Gaussian 16:  ES64L-G16RevC.01  3-Jul-2019

 ----------------------------------------------------------------------
 #t hf aug-cc-pvdz iop(5/13=1,5/36=2,99/5=2) pseudo=read geom=check gue
 ss=(read,tcheck) scf=(maxcycle=1)
 ----------------------------------------------------------------------
 -----
 title
 -----
 Structure from the checkpoint file:  "BDE49_expt_1340_mol1.chk"
 Charge =  0 Multiplicity = 1

                         Standard orientation:
 ---------------------------------------------------------------------
 Center     Atomic      Atomic             Coordinates (Angstroms)
 Number     Number       Type             X           Y           Z
 ---------------------------------------------------------------------
      1          6           0        1.854544    0.027319   -0.000001
      2          6           0        1.169393   -1.188282    0.000000
      3          6           0       -0.220292   -1.221064    0.000000
      4          6           0        1.130698    1.216584    0.000000
      5          6           0       -0.262526    1.196860    0.000000
      6          6           0       -0.940299   -0.024158    0.000000
      7          1           0        2.937752    0.045722   -0.000001
      8          1           0        1.721690   -2.121452   -0.000001
      9          1           0       -0.764844   -2.157488    0.000000
     10          1           0        1.648305    2.169358    0.000000
     11          1           0       -0.822797    2.127754    0.000000
     12          8           0       -2.304034   -0.110540    0.000000
     13          1           0       -2.676939    0.776871    0.000002
 ---------------------------------------------------------------------

 SCF Done:  E(RHF) =  -305.915204549     A.U. after    2 cycles

 The electronic state is 1-A.
 Alpha  occ. eigenvalues --  -20.58207 -11.31116 -11.25109 -11.24913 -11.24301
 Alpha  occ. eigenvalues --  -11.23701 -11.23592  -1.49531  -1.15183  -1.02323
 Alpha  occ. eigenvalues --   -1.00940  -0.85592  -0.83241  -0.74267  -0.69616
 Alpha  occ. eigenvalues --   -0.66284  -0.62212  -0.60452  -0.58971  -0.57507
 Alpha  occ. eigenvalues --   -0.52827  -0.50451  -0.48884  -0.35260  -0.32312
 Alpha virt. eigenvalues --    0.03158   0.03740   0.04047   0.05213   0.05626
 Alpha virt. eigenvalues --    0.07986   0.09968   0.11208   0.11891   0.12549
 Alpha virt. eigenvalues --    0.13350   0.13945   0.14299   0.14477   0.14728

 Mulliken charges:
               1
     1  C   -0.064267
     2  C    0.601296
     3  C   -0.076458
     4  C    0.473300
     5  C   -0.282547
     6  C    1.849158
     7  H   -0.216276
     8  H   -0.211723
     9  H   -0.218130
    10  H   -0.207460
    11  H   -0.320358
    12  O   -1.731688
    13  H    0.405154
 Sum of Mulliken charges =  -0.00000

 Dipole moment (field-independent basis, Debye):
    X=              0.1307    Y=              1.3257    Z=              0.0000  Tot=              1.3322

 Test job not archived.
 1\1\GINC-SE366\SP\RHF\Aug-CC-pVDZ\C6H6O1\OHZDE\08-Apr-2025\0\\#t hf au
 g-cc-pvdz iop(5/13=1,5/36=2,99/5=2) pseudo=read geom=check guess=(read
 ,tcheck) scf=(maxcycle=1)\\title\\0,1\C,0,-1.854544,0.027319,0.000001\
 C,0,-1.169393,-1.188282,0.\C,0,0.220292,-1.221064,0.\C,0,-1.130698,1.2
 16584,0.\C,0,0.262526,1.19686,0.\C,0,0.940299,-0.024158,0.\H,0,-2.9377
 52,0.045722,0.000001\H,0,-1.72169,-2.121452,0.000001\H,0,0.764844,-2.1
 57488,0.\H,0,-1.648305,2.169358,0.\H,0,0.822797,2.127754,0.\O,0,2.3040
 34,-0.11054,0.\H,0,2.676939,0.776871,-0.000002\\Version=ES64L-G16RevC.

 Normal termination of Gaussian 16 at Tue Apr  8 22:40:47 2025.
