 Gaussian 16, Revision C.01,

 ----------------------------------------------------------------------
 #t hf aug-cc-pvdz symm=none int=(grid=ultrafine) guess=(read,tcheck) s
 table=(opt,rrhf)
 ----------------------------------------------------------------------
 -----
 title
 -----
 Symbolic Z-matrix:
 Charge =  0 Multiplicity = 1

 SCF Done:  E(RHF) =  -680.580251535     A.U. after   12 cycles
 Normal termination of Gaussian 16 at Tue Apr  8 23:54:55 2025.
 Gaussian 16:  ES64L-G16RevC.01  3-Jul-2019

 ----------------------------------------------------------------------
 #t hf aug-cc-pvdz iop(5/13=1,5/36=2,99/5=2) pseudo=read geom=check gue
 ss=(read,tcheck) scf=(maxcycle=1)
 ----------------------------------------------------------------------
 -----
 title
 -----
 Structure from the checkpoint file:  "BDE49_nonexpt_1958_mol1.chk"
 Charge =  0 Multiplicity = 1

                         Standard orientation:
 ---------------------------------------------------------------------
 Center     Atomic      Atomic             Coordinates (Angstroms)
 Number     Number       Type             X           Y           Z
 ---------------------------------------------------------------------
      1         14           0        0.570434   -1.334940   -0.092491
      2          6           0       -1.082449   -0.960397    0.789770
      3          5           0       -1.884138    0.192250    0.106556
      4          5           0        1.816671    0.283218   -0.064661
      5          1           0        0.258508   -1.734455   -1.493684
      6          1           0        1.192380   -2.517505    0.556832
      7          8           0       -3.013020    0.045549   -0.652294
      8          1           0       -3.316076   -0.863064   -0.721248
      9          8           0       -1.409225    1.486406    0.226565
     10          1           0       -1.958281    2.119148   -0.250538
     11          8           0        1.407473    1.563538    0.142522
     12          1           0        0.447760    1.662556    0.257334
     13          8           0        3.144782    0.042739   -0.269006
     14          1           0        3.659440    0.860462   -0.251435
     15          1           0       -0.819253   -0.669726    1.813247
     16          1           0       -1.658610   -1.889064    0.853988
 ---------------------------------------------------------------------

 SCF Done:  E(RHF) =  -681.005388029     A.U. after    2 cycles

 The electronic state is 1-A.
 Alpha  occ. eigenvalues --  -69.51358 -20.57416 -20.57104 -20.54896 -20.54306
 Alpha  occ. eigenvalues --  -11.21080  -7.65261  -7.63153  -6.18520  -3.93885
 Alpha  occ. eigenvalues --   -3.93874  -3.93825  -1.49801  -1.47074  -1.45325
 Alpha  occ. eigenvalues --   -1.42663  -0.96889  -0.78445  -0.77320  -0.74612
 Alpha  occ. eigenvalues --   -0.73253  -0.69188  -0.63580  -0.60513  -0.58903
 Alpha  occ. eigenvalues --   -0.57865  -0.56227  -0.55759  -0.54260  -0.52421
 Alpha  occ. eigenvalues --   -0.50847  -0.47944  -0.46301  -0.45050  -0.41008
 Alpha virt. eigenvalues --    0.02714   0.03564   0.04188   0.04263   0.05581
 Alpha virt. eigenvalues --    0.06343   0.06542   0.07137   0.07604   0.08840
 Alpha virt. eigenvalues --    0.09258   0.09448   0.10107   0.10450   0.10947

 Mulliken charges:
               1
     1  Si   0.384396
     2  C   -0.593598
     3  B    2.093153
     4  B    1.685514
     5  H   -0.114664
     6  H   -0.147292
     7  O   -1.228701
     8  H    0.522416
     9  O   -1.415839
    10  H    0.538618
    11  O   -1.488860
    12  H    0.800907
    13  O   -1.335513
    14  H    0.560354
    15  H    0.023232
    16  H   -0.284124
 Sum of Mulliken charges =  -0.00000

 Dipole moment (field-independent basis, Debye):
    X=             -2.5735    Y=              0.1009    Z=              0.2017  Tot=              2.5834

 Test job not archived.
 1\1\GINC-SE423\SP\RHF\Aug-CC-pVDZ\C1H8B2O4Si1\OHZDE\08-Apr-2025\0\\#t
 hf aug-cc-pvdz iop(5/13=1,5/36=2,99/5=2) pseudo=read geom=check guess=
 (read,tcheck) scf=(maxcycle=1)\\title\\0,1\Si,0,0.570434,-1.33494,-0.0
 92491\C,0,-1.082449,-0.960397,0.78977\B,0,-1.884138,0.19225,0.106556\B
 ,0,1.816671,0.283218,-0.064661\H,0,0.258508,-1.734455,-1.493684\H,0,1.
 19238,-2.517505,0.556832\O,0,-3.01302,0.045549,-0.652294\H,0,-3.316076
 ,-0.863064,-0.721248\O,0,-1.409225,1.486406,0.226565\H,0,-1.958281,2.1
 19148,-0.250538\O,0,1.407473,1.563538,0.142522\H,0,0.44776,1.662556,0.

 Normal termination of Gaussian 16 at Tue Apr  8 23:55:01 2025.
