 Gaussian 16, Revision C.01,

 ----------------------------------------------------------------------
 #t hf aug-cc-pvdz symm=none int=(grid=ultrafine) guess=(read,tcheck) s
 table=(opt,rrhf)
 ----------------------------------------------------------------------
 -----
 title
 -----
 Symbolic Z-matrix:
 Charge =  0 Multiplicity = 1

 SCF Done:  E(RHF) =  -1429.27070296     A.U. after   14 cycles
 Normal termination of Gaussian 16 at Wed Apr  9 00:17:05 2025.
 Gaussian 16:  ES64L-G16RevC.01  3-Jul-2019

 ----------------------------------------------------------------------
 #t hf aug-cc-pvdz iop(5/13=1,5/36=2,99/5=2) pseudo=read geom=check gue
 ss=(read,tcheck) scf=(maxcycle=1)
 ----------------------------------------------------------------------
 -----
 title
 -----
 Structure from the checkpoint file:  "BDE49_nonexpt_2557_mol1.chk"
 Charge =  0 Multiplicity = 1

                         Standard orientation:
 ---------------------------------------------------------------------
 Center     Atomic      Atomic             Coordinates (Angstroms)
 Number     Number       Type             X           Y           Z
 ---------------------------------------------------------------------
      1         17           0       -2.293843    0.110496   -0.000119
      2         16           0       -0.475293   -0.857118    0.000182
      3          6           0        0.649459    0.505076    0.000070
      4          8           0        0.463882    1.665032    0.000072
      5         17           0        2.293659   -0.265603   -0.000111
 ---------------------------------------------------------------------

 SCF Done:  E(RHF) =  -1429.58678846     A.U. after    2 cycles

 The electronic state is 1-A.
 Alpha  occ. eigenvalues -- -105.61845-105.61244 -94.06747 -20.61461 -11.46866
 Alpha  occ. eigenvalues --  -10.66548 -10.66059  -8.34513  -7.83497  -7.83013
 Alpha  occ. eigenvalues --   -7.82983  -7.82980  -7.82584  -7.82578  -6.32281
 Alpha  occ. eigenvalues --   -6.32045  -6.31753  -1.56693  -1.18502  -1.11916
 Alpha  occ. eigenvalues --   -1.00301  -0.80030  -0.70565  -0.70088  -0.64773
 Alpha  occ. eigenvalues --   -0.57423  -0.54718  -0.51654  -0.50436  -0.50210
 Alpha  occ. eigenvalues --   -0.46621  -0.42141
 Alpha virt. eigenvalues --    0.02929   0.05810   0.07864   0.08514   0.09484
 Alpha virt. eigenvalues --    0.09855   0.11046   0.11205   0.13006   0.13045
 Alpha virt. eigenvalues --    0.13533   0.14786   0.17148   0.17744   0.18647

 Mulliken charges:
               1
     1  Cl  -0.220178
     2  S    0.683727
     3  C    0.261786
     4  O   -0.749454
     5  Cl   0.024119
 Sum of Mulliken charges =   0.00000

 Dipole moment (field-independent basis, Debye):
    X=             -0.2010    Y=             -1.5031    Z=              0.0001  Tot=              1.5165

 Test job not archived.
 1\1\GINC-SE096\SP\RHF\Aug-CC-pVDZ\C1Cl2O1S1\OHZDE\09-Apr-2025\0\\#t hf
  aug-cc-pvdz iop(5/13=1,5/36=2,99/5=2) pseudo=read geom=check guess=(r
 ead,tcheck) scf=(maxcycle=1)\\title\\0,1\Cl,0,2.293843,0.110496,0.0001
 19\S,0,0.475293,-0.857118,-0.000182\C,0,-0.649459,0.505076,-0.00007\O,
 0,-0.463882,1.665032,-0.000072\Cl,0,-2.293659,-0.265603,0.000111\\Vers
 ion=ES64L-G16RevC.01\State=1-A\HF=-1429.5867885\RMSD=5.288e-03\Dipole=
 0.0790803,-0.5913706,-0.0000456\Quadrupole=1.3538423,-1.3183979,-0.035
 4444,0.7037722,0.000133,0.0003563\PG=C01 [X(C1Cl2O1S1)]\\@

 Normal termination of Gaussian 16 at Wed Apr  9 00:17:07 2025.
