 Gaussian 16, Revision C.01,

 ----------------------------------------------------------------------
 #t hf aug-cc-pvdz symm=none int=(grid=ultrafine) guess=(read,tcheck) s
 table=(opt,rrhf)
 ----------------------------------------------------------------------
 -----
 title
 -----
 Symbolic Z-matrix:
 Charge =  0 Multiplicity = 1

 SCF Done:  E(RHF) =  -1950.65389133     A.U. after   14 cycles

 1\1\GINC-SE253\Stability\RHF\Aug-CC-pVDZ\C1Cl4O1\OHZDE\08-Apr-2025\0\\
 #t hf aug-cc-pvdz symm=none int=(grid=ultrafine) guess=(read,tcheck) s
 table=(opt,rrhf)\\title\\0,1\Cl,0,-0.719029,-2.188589,0.\O,0,0.602186,
 -1.046655,0.\C,0,0.221335,0.279894,0.\Cl,0,1.795588,1.116987,0.\Cl,0,-
 0.719029,0.732679,1.464252\Cl,0,-0.719029,0.732679,-1.464252\\Version=
 ES64L-G16RevC.01\HF=-1950.6538913\RMSD=6.004e-09\Dipole=-0.2358208,-0.
 1672888,0.\Quadrupole=0.199636,0.5014117,-0.7010477,1.9340358,0.,0.\PG
 =Unknown\\@

 Normal termination of Gaussian 16 at Tue Apr  8 23:16:53 2025.
 Gaussian 16:  ES64L-G16RevC.01  3-Jul-2019

 ----------------------------------------------------------------------
 #t hf aug-cc-pvdz iop(5/13=1,5/36=2,99/5=2) pseudo=read geom=check gue
 ss=(read,tcheck) scf=(maxcycle=1)
 ----------------------------------------------------------------------
 -----
 title
 -----
 Structure from the checkpoint file:  "BDE49_nonexpt_1031_mol1.chk"
 Charge =  0 Multiplicity = 1

                         Standard orientation:
 ---------------------------------------------------------------------
 Center     Atomic      Atomic             Coordinates (Angstroms)
 Number     Number       Type             X           Y           Z
 ---------------------------------------------------------------------
      1         17           0       -0.719029   -2.188589    0.000000
      2          8           0        0.602186   -1.046655    0.000000
      3          6           0        0.221335    0.279894   -0.000000
      4         17           0        1.795588    1.116987   -0.000000
      5         17           0       -0.719029    0.732679    1.464252
      6         17           0       -0.719029    0.732679   -1.464252
 ---------------------------------------------------------------------

 SCF Done:  E(RHF) =  -1951.05929176     A.U. after    2 cycles

 The electronic state is 1-A'.
 Alpha  occ. eigenvalues -- -105.65852-105.60988-105.60628-105.60628 -20.68363
 Alpha  occ. eigenvalues --  -11.51750 -10.70013 -10.65848 -10.65485 -10.65475
 Alpha  occ. eigenvalues --   -7.87005  -7.86418  -7.86391  -7.82798  -7.82428
 Alpha  occ. eigenvalues --   -7.82419  -7.82340  -7.82330  -7.81984  -7.81982
 Alpha  occ. eigenvalues --   -7.81978  -7.81976  -1.56463  -1.20145  -1.09600
 Alpha  occ. eigenvalues --   -1.08264  -1.05807  -0.84914  -0.72029  -0.71378
 Alpha  occ. eigenvalues --   -0.70530  -0.59533  -0.59158  -0.52552  -0.52101
 Alpha  occ. eigenvalues --   -0.51658  -0.50381  -0.48256  -0.48148  -0.48110
 Alpha  occ. eigenvalues --   -0.46937
 Alpha virt. eigenvalues --    0.02954   0.05878   0.08432   0.08441   0.08681
 Alpha virt. eigenvalues --    0.10159   0.11652   0.12670   0.13749   0.14603
 Alpha virt. eigenvalues --    0.14677   0.16802   0.17791   0.18052   0.18604

 Mulliken charges:
               1
     1  Cl   0.418489
     2  O   -0.954868
     3  C   -0.092504
     4  Cl   0.210776
     5  Cl   0.209053
     6  Cl   0.209053
 Sum of Mulliken charges =   0.00000

 Dipole moment (field-independent basis, Debye):
    X=             -0.4136    Y=             -0.3674    Z=             -0.0000  Tot=              0.5532

 Test job not archived.
 1\1\GINC-SE253\SP\RHF\Aug-CC-pVDZ\C1Cl4O1\OHZDE\08-Apr-2025\0\\#t hf a
 ug-cc-pvdz iop(5/13=1,5/36=2,99/5=2) pseudo=read geom=check guess=(rea
 d,tcheck) scf=(maxcycle=1)\\title\\0,1\Cl,0,-0.719029,-2.188589,0.\O,0
 ,0.602186,-1.046655,0.\C,0,0.221335,0.279894,0.\Cl,0,1.795588,1.116987
 ,0.\Cl,0,-0.719029,0.732679,1.464252\Cl,0,-0.719029,0.732679,-1.464252
 \\Version=ES64L-G16RevC.01\State=1-A'\HF=-1951.0592918\RMSD=4.652e-03\
 Dipole=-0.1627346,-0.1445301,0.\Quadrupole=0.2834246,0.3430031,-0.6264
 278,1.7323313,0.,0.\PG=CS [SG(C1Cl2O1),X(Cl2)]\\@

 Normal termination of Gaussian 16 at Tue Apr  8 23:16:55 2025.
