 Gaussian 16, Revision C.01,

 ----------------------------------------------------------------------
 #t hf aug-cc-pvdz symm=none int=(grid=ultrafine) guess=(read,tcheck) s
 table=(opt,rrhf)
 ----------------------------------------------------------------------
 -----
 title
 -----
 Symbolic Z-matrix:
 Charge =  0 Multiplicity = 1

 SCF Done:  E(RHF) =  -724.702216955     A.U. after   17 cycles

 1\1\GINC-SE343\Stability\RHF\Aug-CC-pVDZ\C10H9P1\OHZDE\08-Apr-2025\0\\
 #t hf aug-cc-pvdz symm=none int=(grid=ultrafine) guess=(read,tcheck) s
 table=(opt,rrhf)\\title\\0,1\C,0,-0.631902,-1.564382,-0.007709\C,0,-1.
 982412,-1.819151,-0.007765\C,0,-2.910696,-0.754881,0.003306\C,0,-2.464
 447,0.54347,0.007346\C,0,-1.077022,0.841276,0.003276\C,0,-0.131426,-0.
 235342,-0.000211\H,0,0.063649,-2.395928,-0.020508\H,0,-2.339165,-2.842
 836,-0.017186\H,0,-3.973695,-0.967583,0.006154\H,0,-3.170965,1.36699,0
 .012925\C,0,1.269582,0.067155,0.012836\C,0,1.673332,1.387435,0.007996\

 Normal termination of Gaussian 16 at Tue Apr  8 23:27:15 2025.
 Gaussian 16:  ES64L-G16RevC.01  3-Jul-2019

 ----------------------------------------------------------------------
 #t hf aug-cc-pvdz iop(5/13=1,5/36=2,99/5=2) pseudo=read geom=check gue
 ss=(read,tcheck) scf=(maxcycle=1)
 ----------------------------------------------------------------------
 -----
 title
 -----
 Structure from the checkpoint file:  "BDE49_nonexpt_1267_mol1.chk"
 Charge =  0 Multiplicity = 1

                         Standard orientation:
 ---------------------------------------------------------------------
 Center     Atomic      Atomic             Coordinates (Angstroms)
 Number     Number       Type             X           Y           Z
 ---------------------------------------------------------------------
      1          6           0       -0.631902   -1.564382   -0.007709
      2          6           0       -1.982412   -1.819151   -0.007765
      3          6           0       -2.910696   -0.754881    0.003306
      4          6           0       -2.464447    0.543470    0.007346
      5          6           0       -1.077022    0.841276    0.003276
      6          6           0       -0.131426   -0.235342   -0.000211
      7          1           0        0.063649   -2.395928   -0.020508
      8          1           0       -2.339165   -2.842836   -0.017186
      9          1           0       -3.973695   -0.967583    0.006154
     10          1           0       -3.170965    1.366990    0.012925
     11          6           0        1.269582    0.067155    0.012836
     12          6           0        1.673332    1.387435    0.007996
     13          6           0       -0.607783    2.180085   -0.000538
     14          6           0        0.737292    2.445595   -0.002819
     15          1           0       -1.331404    2.988316   -0.001236
     16          1           0        1.094271    3.469350   -0.004357
     17          1           0        2.730292    1.628683    0.019360
     18         15           0        2.512866   -1.296256   -0.103459
     19          1           0        2.351650   -1.836741    1.201008
     20          1           0        3.635263   -0.513964    0.261425
 ---------------------------------------------------------------------

 SCF Done:  E(RHF) =  -725.138315977     A.U. after    2 cycles

 The electronic state is 1-A.
 Alpha  occ. eigenvalues --  -84.27754 -11.25828 -11.25731 -11.25474 -11.25095
 Alpha  occ. eigenvalues --  -11.24929 -11.24907 -11.24882 -11.24801 -11.24773
 Alpha  occ. eigenvalues --  -11.24765  -6.74829  -4.27825  -4.27459  -4.26679
 Alpha  occ. eigenvalues --   -1.18365  -1.11755  -1.06139  -1.01521  -0.99337
 Alpha  occ. eigenvalues --   -0.88780  -0.85820  -0.85269  -0.79195  -0.72123
 Alpha  occ. eigenvalues --   -0.70705  -0.69539  -0.63605  -0.62111  -0.60579
 Alpha  occ. eigenvalues --   -0.58254  -0.56950  -0.55070  -0.52767  -0.51002
 Alpha  occ. eigenvalues --   -0.49876  -0.47649  -0.45933  -0.40852  -0.34873
 Alpha  occ. eigenvalues --   -0.33413  -0.29526
 Alpha virt. eigenvalues --    0.03264   0.03348   0.03657   0.04541   0.04710
 Alpha virt. eigenvalues --    0.05861   0.06794   0.07046   0.07380   0.08363
 Alpha virt. eigenvalues --    0.08867   0.09920   0.09995   0.10452   0.11868

 Mulliken charges:
               1
     1  C   -0.130929
     2  C   -0.181949
     3  C   -0.102485
     4  C    0.200008
     5  C    1.077186
     6  C    1.312095
     7  H   -0.356584
     8  H   -0.239581
     9  H   -0.237476
    10  H   -0.310107
    11  C   -0.067216
    12  C   -0.216943
    13  C    0.016724
    14  C   -0.128945
    15  H   -0.303932
    16  H   -0.242106
    17  H   -0.311034
    18  P   -0.586451
    19  H    0.479607
    20  H    0.330117
 Sum of Mulliken charges =  -0.00000

 Dipole moment (field-independent basis, Debye):
    X=             -0.4636    Y=              0.5809    Z=              0.3616  Tot=              0.8265

 Test job not archived.
 1\1\GINC-SE343\SP\RHF\Aug-CC-pVDZ\C10H9P1\OHZDE\08-Apr-2025\0\\#t hf a
 ug-cc-pvdz iop(5/13=1,5/36=2,99/5=2) pseudo=read geom=check guess=(rea
 d,tcheck) scf=(maxcycle=1)\\title\\0,1\C,0,-0.631902,-1.564382,-0.0077
 09\C,0,-1.982412,-1.819151,-0.007765\C,0,-2.910696,-0.754881,0.003306\
 C,0,-2.464447,0.54347,0.007346\C,0,-1.077022,0.841276,0.003276\C,0,-0.
 131426,-0.235342,-0.000211\H,0,0.063649,-2.395928,-0.020508\H,0,-2.339
 165,-2.842836,-0.017186\H,0,-3.973695,-0.967583,0.006154\H,0,-3.170965
 ,1.36699,0.012925\C,0,1.269582,0.067155,0.012836\C,0,1.673332,1.387435

 Normal termination of Gaussian 16 at Tue Apr  8 23:27:29 2025.
