 Gaussian 16, Revision C.01,

 ----------------------------------------------------------------------
 #t hf aug-cc-pvdz symm=none int=(grid=ultrafine) guess=(read,tcheck) s
 table=opt
 ----------------------------------------------------------------------
 -----
 title
 -----
 Symbolic Z-matrix:
 Charge =  0 Multiplicity = 2

 SCF Done:  E(UHF) =  -457.789125519     A.U. after   16 cycles
 Normal termination of Gaussian 16 at Tue Apr  8 23:37:12 2025.
 Gaussian 16:  ES64L-G16RevC.01  3-Jul-2019

 ----------------------------------------------------------------------
 #t hf aug-cc-pvdz iop(5/13=1,5/36=2,99/5=2) pseudo=read geom=check gue
 ss=(read,tcheck) scf=(maxcycle=1)
 ----------------------------------------------------------------------
 -----
 title
 -----
 Structure from the checkpoint file:  "BDE49_nonexpt_1531_mol2.chk"
 Charge =  0 Multiplicity = 2

                         Standard orientation:
 ---------------------------------------------------------------------
 Center     Atomic      Atomic             Coordinates (Angstroms)
 Number     Number       Type             X           Y           Z
 ---------------------------------------------------------------------
      1          6           0       -0.217760   -0.000002    0.556945
      2          6           0       -1.331918   -0.747414   -0.171229
      3          6           0       -1.331915    0.747415   -0.171230
      4          1           0       -1.072403    1.262989   -1.087860
      5          1           0       -2.058356    1.265335    0.444578
      6          1           0       -2.058360   -1.265330    0.444579
      7          1           0       -1.072408   -1.262990   -1.087859
      8         15           0        1.510634    0.000000   -0.015699
      9          1           0       -0.296970   -0.000001    1.639753
     10          1           0        1.188537   -0.000008   -1.404615
 ---------------------------------------------------------------------

 SCF Done:  E(UHF) =  -457.957090599     A.U. after    2 cycles

 The electronic state is 2-A.
 Alpha  occ. eigenvalues --  -84.27362 -11.25010 -11.24928 -11.24911  -6.74577
 Alpha  occ. eigenvalues --   -4.27047  -4.26720  -4.26102  -1.15229  -0.89873
 Alpha  occ. eigenvalues --   -0.83681  -0.77074  -0.67454  -0.62333  -0.53335
 Alpha  occ. eigenvalues --   -0.47637  -0.46941  -0.46304  -0.37680  -0.30392
 Alpha virt. eigenvalues --    0.03770   0.04285   0.04625   0.05014   0.06862
 Alpha virt. eigenvalues --    0.07222   0.09758   0.10757   0.11161   0.12185
 Alpha virt. eigenvalues --    0.13344   0.14185   0.15663   0.16186   0.16364

  Beta  occ. eigenvalues --  -84.26697 -11.25125 -11.24824 -11.24761  -6.73734
  Beta  occ. eigenvalues --   -4.26229  -4.25698  -4.23786  -1.14672  -0.86918
  Beta  occ. eigenvalues --   -0.83105  -0.74662  -0.66902  -0.61659  -0.53148
  Beta  occ. eigenvalues --   -0.47499  -0.46014  -0.44013  -0.35591
  Beta virt. eigenvalues --    0.03466   0.03786   0.04321   0.05086   0.05911
  Beta virt. eigenvalues --    0.07314   0.07505   0.09889   0.10844   0.12317
  Beta virt. eigenvalues --    0.13143   0.13544   0.14207   0.16223   0.16497

 Mulliken charges and spin densities:
               1          2
     1  C   -0.207578  -0.164696
     2  C    0.175268   0.053828
     3  C    0.175266   0.053829
     4  H   -0.107851  -0.004691
     5  H   -0.097029  -0.001953
     6  H   -0.097032  -0.001953
     7  H   -0.107849  -0.004691
     8  P    0.334588   1.237718
     9  H   -0.163853  -0.007405
    10  H    0.096070  -0.159985
 Sum of Mulliken charges =  -0.00000   1.00000

 Dipole moment (field-independent basis, Debye):
    X=             -1.2959    Y=             -0.0000    Z=              0.0025  Tot=              1.2959
                          Isotropic Fermi Contact Couplings
        Atom                 a.u.       MegaHertz       Gauss      10(-4) cm-1
     1  C(13)             -0.03656     -41.10407     -14.66695     -13.71084
     2  C(13)              0.02724      30.62498      10.92775      10.21539
     3  C(13)              0.02724      30.62581      10.92805      10.21567
     4  H(1)              -0.00107      -4.80255      -1.71367      -1.60196
     5  H(1)               0.00052       2.31845       0.82728       0.77335
     6  H(1)               0.00052       2.31850       0.82730       0.77337
     7  H(1)              -0.00107      -4.80243      -1.71363      -1.60192
     8  P(31)              0.20330     368.19699     131.38184     122.81730

 Normal termination of Gaussian 16 at Tue Apr  8 23:37:16 2025.
