 Gaussian 16, Revision C.01,

 ----------------------------------------------------------------------
 #t hf aug-cc-pvdz symm=none int=(grid=ultrafine) guess=(read,tcheck) s
 table=(opt,rrhf)
 ----------------------------------------------------------------------
 -----
 title
 -----
 Symbolic Z-matrix:
 Charge =  0 Multiplicity = 1

 SCF Done:  E(RHF) =  -592.417466338     A.U. after   14 cycles
 Normal termination of Gaussian 16 at Wed Apr  9 00:35:50 2025.
 Gaussian 16:  ES64L-G16RevC.01  3-Jul-2019

 ----------------------------------------------------------------------
 #t hf aug-cc-pvdz iop(5/13=1,5/36=2,99/5=2) pseudo=read geom=check gue
 ss=(read,tcheck) scf=(maxcycle=1)
 ----------------------------------------------------------------------
 -----
 title
 -----
 Structure from the checkpoint file:  "BDE49_nonexpt_474_mol1.chk"
 Charge =  0 Multiplicity = 1

                         Standard orientation:
 ---------------------------------------------------------------------
 Center     Atomic      Atomic             Coordinates (Angstroms)
 Number     Number       Type             X           Y           Z
 ---------------------------------------------------------------------
      1          1           0       -2.396722    1.142664   -0.433592
      2          1           0       -2.229577   -0.749863   -1.253885
      3          5           0       -1.762190    0.169967   -0.668170
      4         15           0       -0.031087   -0.023527    0.083287
      5          8           0       -0.215125   -0.691544    1.388806
      6          8           0        0.994276   -0.811112   -0.895160
      7          1           0        0.992843   -1.758772   -0.711788
      8          8           0        0.635991    1.432608    0.042873
      9          1           0        1.589566    1.429422    0.198651
 ---------------------------------------------------------------------

 SCF Done:  E(RHF) =  -592.711602008     A.U. after    2 cycles

 The electronic state is 1-A.
 Alpha  occ. eigenvalues --  -84.41859 -20.59615 -20.59588 -20.50397  -7.64278
 Alpha  occ. eigenvalues --   -6.87334  -4.41404  -4.40685  -4.39807  -1.53458
 Alpha  occ. eigenvalues --   -1.47287  -1.38526  -0.88070  -0.75837  -0.73413
 Alpha  occ. eigenvalues --   -0.66381  -0.62815  -0.58868  -0.56661  -0.55434
 Alpha  occ. eigenvalues --   -0.53507  -0.49279  -0.45496  -0.42612
 Alpha virt. eigenvalues --    0.02200   0.03411   0.04015   0.04653   0.06290
 Alpha virt. eigenvalues --    0.07824   0.07997   0.10305   0.11516   0.12381
 Alpha virt. eigenvalues --    0.13638   0.13932   0.16434   0.18543   0.20023

 Mulliken charges:
               1
     1  H    0.290165
     2  H    0.232870
     3  B   -0.437946
     4  P    3.195743
     5  O   -1.437585
     6  O   -1.298544
     7  H    0.361243
     8  O   -1.255107
     9  H    0.349161
 Sum of Mulliken charges =  -0.00000

 Dipole moment (field-independent basis, Debye):
    X=              0.7737    Y=              0.1327    Z=             -2.7424  Tot=              2.8525

 Test job not archived.
 1\1\GINC-SE015\SP\RHF\Aug-CC-pVDZ\B1H4O3P1\OHZDE\09-Apr-2025\0\\#t hf
 aug-cc-pvdz iop(5/13=1,5/36=2,99/5=2) pseudo=read geom=check guess=(re
 ad,tcheck) scf=(maxcycle=1)\\title\\0,1\H,0,-2.396722,1.142665,-0.4335
 92\H,0,-2.229577,-0.749862,-1.253885\B,0,-1.76219,0.169968,-0.66817\P,
 0,-0.031087,-0.023527,0.083287\O,0,-0.215125,-0.691544,1.388806\O,0,0.
 994276,-0.811113,-0.89516\H,0,0.992842,-1.758773,-0.711788\O,0,0.63599
 2,1.432608,0.042873\H,0,1.589567,1.429421,0.198651\\Version=ES64L-G16R
 evC.01\State=1-A\HF=-592.711602\RMSD=1.554e-02\Dipole=0.3044002,0.0522

 Normal termination of Gaussian 16 at Wed Apr  9 00:35:53 2025.
