 Gaussian 16, Revision C.01,

 ----------------------------------------------------------------------
 #t hf aug-cc-pvdz symm=none int=(grid=ultrafine) guess=(read,tcheck) s
 table=opt
 ----------------------------------------------------------------------
 -----
 title
 -----
 Symbolic Z-matrix:
 Charge =  0 Multiplicity = 2

 SCF Done:  E(UHF) =  -1247.50923576     A.U. after   16 cycles
 Normal termination of Gaussian 16 at Tue Apr  8 23:56:58 2025.
 Gaussian 16:  ES64L-G16RevC.01  3-Jul-2019

 ----------------------------------------------------------------------
 #t hf aug-cc-pvdz iop(5/13=1,5/36=2,99/5=2) pseudo=read geom=check gue
 ss=(read,tcheck) scf=(maxcycle=1)
 ----------------------------------------------------------------------
 -----
 title
 -----
 Structure from the checkpoint file:  "BDE49_nonexpt_2025_mol2.chk"
 Charge =  0 Multiplicity = 2

                         Standard orientation:
 ---------------------------------------------------------------------
 Center     Atomic      Atomic             Coordinates (Angstroms)
 Number     Number       Type             X           Y           Z
 ---------------------------------------------------------------------
      1         14           0        1.534921   -0.942654   -0.033455
      2          6           0       -0.034212   -0.003574    0.507581
      3         17           0       -1.510871   -0.858311   -0.078977
      4         17           0        0.015351    1.704643   -0.107389
      5          1           0       -0.140591    0.078684    1.585438
      6          1           0        1.561802   -1.010291   -1.511496
      7          1           0        2.718999   -0.237451    0.517164
 ---------------------------------------------------------------------

 SCF Done:  E(UHF) =  -1247.73056984     A.U. after    2 cycles

 The electronic state is 2-A.
 Alpha  occ. eigenvalues -- -105.58317-105.58203 -69.56824 -11.37007 -10.63098
 Alpha  occ. eigenvalues --  -10.62974  -7.80035  -7.79975  -7.79649  -7.79633
 Alpha  occ. eigenvalues --   -7.79528  -7.79496  -6.23913  -3.99864  -3.98963
 Alpha  occ. eigenvalues --   -3.98922  -1.15463  -1.05025  -0.88863  -0.75680
 Alpha  occ. eigenvalues --   -0.64299  -0.59742  -0.57448  -0.51757  -0.48781
 Alpha  occ. eigenvalues --   -0.47720  -0.45904  -0.44117  -0.36008
 Alpha virt. eigenvalues --    0.03335   0.04120   0.05776   0.06304   0.07315
 Alpha virt. eigenvalues --    0.07804   0.09069   0.09886   0.12665   0.13486
 Alpha virt. eigenvalues --    0.14596   0.15512   0.15815   0.16675   0.17556

  Beta  occ. eigenvalues -- -105.58318-105.58137 -69.56246 -11.36985 -10.63099
  Beta  occ. eigenvalues --  -10.62902  -7.80045  -7.79788  -7.79640  -7.79635
  Beta  occ. eigenvalues --   -7.79457  -7.79422  -6.23030  -3.98570  -3.98532
  Beta  occ. eigenvalues --   -3.97654  -1.15231  -1.04751  -0.88060  -0.72431
  Beta  occ. eigenvalues --   -0.63655  -0.59222  -0.56654  -0.50761  -0.48368
  Beta  occ. eigenvalues --   -0.47528  -0.45716  -0.43450
  Beta virt. eigenvalues --    0.00944   0.03768   0.04321   0.05897   0.07513
  Beta virt. eigenvalues --    0.07758   0.08055   0.09360   0.10161   0.13220
  Beta virt. eigenvalues --    0.14083   0.15284   0.15990   0.16156   0.16970

 Mulliken charges and spin densities:
               1          2
     1  Si   0.973567   0.930427
     2  C   -0.925746  -0.011130
     3  Cl  -0.020246  -0.007924
     4  Cl  -0.042399   0.028220
     5  H    0.314130   0.001742
     6  H   -0.152547   0.022644
     7  H   -0.146759   0.036019
 Sum of Mulliken charges =   0.00000   1.00000

 Dipole moment (field-independent basis, Debye):
    X=              1.4417    Y=             -0.8152    Z=              1.0320  Tot=              1.9514
                          Isotropic Fermi Contact Couplings
        Atom                 a.u.       MegaHertz       Gauss      10(-4) cm-1
     1  Si(29)             0.62346    -554.08280    -197.71052    -184.82213
     2  C(13)              0.02085      23.44479       8.36568       7.82034
     3  Cl(35)             0.00046       0.20072       0.07162       0.06695
     4  Cl(35)             0.03838      16.82742       6.00444       5.61302
     5  H(1)              -0.00004      -0.18406      -0.06568      -0.06140
     6  H(1)               0.00543      24.26798       8.65942       8.09493
     7  H(1)               0.00717      32.04665      11.43504      10.68961
 --------------------------------------------------------

 Normal termination of Gaussian 16 at Tue Apr  8 23:57:00 2025.
