 Gaussian 16, Revision C.01,

 ----------------------------------------------------------------------
 #t hf aug-cc-pvdz symm=none int=(grid=ultrafine) guess=(read,tcheck) s
 table=(opt,rrhf)
 ----------------------------------------------------------------------
 -----
 title
 -----
 Symbolic Z-matrix:
 Charge =  0 Multiplicity = 1

 SCF Done:  E(RHF) =  -880.692850676     A.U. after   15 cycles

 1\1\GINC-SE454\Stability\RHF\Aug-CC-pVDZ\H6O4Si2\OHZDE\09-Apr-2025\0\\
 #t hf aug-cc-pvdz symm=none int=(grid=ultrafine) guess=(read,tcheck) s
 table=(opt,rrhf)\\title\\0,1\Si,0,-1.271965,-0.907971,-0.238177\Si,0,1
 .014704,-1.031648,0.378262\O,0,-1.655693,0.717329,-0.477779\H,0,-2.137
 684,-1.547566,0.779938\H,0,-1.532071,-1.504172,-1.569181\O,0,-1.292146
 ,1.37361,0.786235\H,0,-0.405295,1.703744,0.549759\O,0,1.913663,0.13906
 ,-0.470321\H,0,1.689142,-2.260627,-0.095636\H,0,1.22216,-0.873359,1.83
 6406\O,0,1.438386,1.487163,-0.144194\H,0,1.531725,1.899337,-1.014018\\

 Normal termination of Gaussian 16 at Wed Apr  9 00:10:57 2025.
 Gaussian 16:  ES64L-G16RevC.01  3-Jul-2019

 ----------------------------------------------------------------------
 #t hf aug-cc-pvdz iop(5/13=1,5/36=2,99/5=2) pseudo=read geom=check gue
 ss=(read,tcheck) scf=(maxcycle=1)
 ----------------------------------------------------------------------
 -----
 title
 -----
 Structure from the checkpoint file:  "BDE49_nonexpt_2360_mol1.chk"
 Charge =  0 Multiplicity = 1

                         Standard orientation:
 ---------------------------------------------------------------------
 Center     Atomic      Atomic             Coordinates (Angstroms)
 Number     Number       Type             X           Y           Z
 ---------------------------------------------------------------------
      1         14           0       -1.271965   -0.907971   -0.238177
      2         14           0        1.014704   -1.031647    0.378262
      3          8           0       -1.655693    0.717329   -0.477779
      4          1           0       -2.137683   -1.547567    0.779938
      5          1           0       -1.532070   -1.504172   -1.569181
      6          8           0       -1.292147    1.373610    0.786235
      7          1           0       -0.405296    1.703744    0.549759
      8          8           0        1.913663    0.139061   -0.470321
      9          1           0        1.689143   -2.260626   -0.095636
     10          1           0        1.222160   -0.873358    1.836406
     11          8           0        1.438385    1.487164   -0.144194
     12          1           0        1.531724    1.899338   -1.014018
 ---------------------------------------------------------------------

 SCF Done:  E(RHF) =  -881.049281130     A.U. after    2 cycles

 The electronic state is 1-A.
 Alpha  occ. eigenvalues --  -69.57489 -69.57111 -20.64677 -20.62100 -20.61850
 Alpha  occ. eigenvalues --  -20.60180  -6.24217  -6.23816  -3.99658  -3.99529
 Alpha  occ. eigenvalues --   -3.99468  -3.99253  -3.99126  -3.99083  -1.58888
 Alpha  occ. eigenvalues --   -1.56775  -1.29473  -1.27116  -0.79428  -0.74009
 Alpha  occ. eigenvalues --   -0.72374  -0.70918  -0.64252  -0.62287  -0.61815
 Alpha  occ. eigenvalues --   -0.58972  -0.53935  -0.53338  -0.49717  -0.48749
 Alpha  occ. eigenvalues --   -0.47384  -0.46877  -0.41026
 Alpha virt. eigenvalues --    0.03600   0.04136   0.04295   0.05669   0.06278
 Alpha virt. eigenvalues --    0.07158   0.07388   0.07653   0.08154   0.10066
 Alpha virt. eigenvalues --    0.10350   0.10748   0.12242   0.13976   0.15049

 Mulliken charges:
               1
     1  Si   1.210416
     2  Si   1.176828
     3  O   -0.854802
     4  H   -0.134068
     5  H   -0.156394
     6  O   -0.699834
     7  H    0.675542
     8  O   -0.852848
     9  H   -0.169192
    10  H   -0.110963
    11  O   -0.587023
    12  H    0.502337
 Sum of Mulliken charges =  -0.00000

 Dipole moment (field-independent basis, Debye):
    X=              1.2236    Y=             -0.9442    Z=             -0.7505  Tot=              1.7181

 Test job not archived.
 1\1\GINC-SE454\SP\RHF\Aug-CC-pVDZ\H6O4Si2\OHZDE\09-Apr-2025\0\\#t hf a
 ug-cc-pvdz iop(5/13=1,5/36=2,99/5=2) pseudo=read geom=check guess=(rea
 d,tcheck) scf=(maxcycle=1)\\title\\0,1\Si,0,-1.271965,-0.907971,-0.238
 177\Si,0,1.014704,-1.031648,0.378262\O,0,-1.655693,0.717329,-0.477779\
 H,0,-2.137684,-1.547566,0.779938\H,0,-1.532071,-1.504172,-1.569181\O,0
 ,-1.292146,1.37361,0.786235\H,0,-0.405295,1.703744,0.549759\O,0,1.9136
 63,0.13906,-0.470321\H,0,1.689142,-2.260627,-0.095636\H,0,1.22216,-0.8
 73359,1.836406\O,0,1.438386,1.487163,-0.144194\H,0,1.531725,1.899337,-

 Normal termination of Gaussian 16 at Wed Apr  9 00:11:02 2025.
