 Gaussian 16, Revision C.01,

 ----------------------------------------------------------------------
 #t hf aug-cc-pvdz symm=none int=(grid=ultrafine) guess=(read,tcheck) s
 table=(opt,rrhf)
 ----------------------------------------------------------------------
 -----
 title
 -----
 Symbolic Z-matrix:
 Charge =  0 Multiplicity = 1

 SCF Done:  E(RHF) =  -840.545210821     A.U. after   13 cycles
 Normal termination of Gaussian 16 at Tue Apr  8 23:58:26 2025.
 Gaussian 16:  ES64L-G16RevC.01  3-Jul-2019

 ----------------------------------------------------------------------
 #t hf aug-cc-pvdz iop(5/13=1,5/36=2,99/5=2) pseudo=read geom=check gue
 ss=(read,tcheck) scf=(maxcycle=1)
 ----------------------------------------------------------------------
 -----
 title
 -----
 Structure from the checkpoint file:  "BDE49_nonexpt_2057_mol1.chk"
 Charge =  0 Multiplicity = 1

                         Standard orientation:
 ---------------------------------------------------------------------
 Center     Atomic      Atomic             Coordinates (Angstroms)
 Number     Number       Type             X           Y           Z
 ---------------------------------------------------------------------
      1         14           0        1.916578   -0.369456    0.000009
      2          6           0        0.050435    0.025757   -0.000041
      3         16           0       -0.564760    1.546622   -0.000005
      4          8           0       -0.660127   -1.105805   -0.000017
      5          6           0       -2.102015   -1.048481    0.000022
      6          1           0       -2.424142   -2.087035    0.000036
      7          1           0       -2.457248   -0.526525   -0.889609
      8          1           0       -2.457200   -0.526515    0.889667
      9          1           0        2.678606    0.890698   -0.000301
     10          1           0        2.227264   -1.170994   -1.205400
     11          1           0        2.227291   -1.170408    1.205801
 ---------------------------------------------------------------------

 SCF Done:  E(RHF) =  -840.791842908     A.U. after    2 cycles

 The electronic state is 1-A.
 Alpha  occ. eigenvalues --  -93.92618 -69.54954 -20.61525 -11.37002 -11.30774
 Alpha  occ. eigenvalues --   -8.20908  -6.22049  -6.18738  -6.18509  -6.18327
 Alpha  occ. eigenvalues --   -3.97444  -3.97402  -3.97397  -1.53674  -1.06644
 Alpha  occ. eigenvalues --   -0.98572  -0.81456  -0.75668  -0.67356  -0.66548
 Alpha  occ. eigenvalues --   -0.62297  -0.55785  -0.53923  -0.50472  -0.49675
 Alpha  occ. eigenvalues --   -0.47678  -0.38381  -0.35118
 Alpha virt. eigenvalues --    0.03380   0.04030   0.04915   0.05018   0.05966
 Alpha virt. eigenvalues --    0.06231   0.06730   0.06999   0.08953   0.09250
 Alpha virt. eigenvalues --    0.10134   0.11796   0.14008   0.14351   0.15410

 Mulliken charges:
               1
     1  Si   1.022542
     2  C   -0.017531
     3  S    0.090678
     4  O   -1.155822
     5  C    0.256958
     6  H   -0.000314
     7  H    0.186030
     8  H    0.186030
     9  H   -0.159653
    10  H   -0.204423
    11  H   -0.204493
 Sum of Mulliken charges =  -0.00000

 Dipole moment (field-independent basis, Debye):
    X=             -0.4852    Y=             -2.3299    Z=              0.0000  Tot=              2.3799

 Test job not archived.
 1\1\GINC-SE398\SP\RHF\Aug-CC-pVDZ\C2H6O1S1Si1\OHZDE\08-Apr-2025\0\\#t
 hf aug-cc-pvdz iop(5/13=1,5/36=2,99/5=2) pseudo=read geom=check guess=
 (read,tcheck) scf=(maxcycle=1)\\title\\0,1\Si,0,1.916578,-0.369456,0.0
 00009\C,0,0.050435,0.025757,-0.000041\S,0,-0.56476,1.546622,-0.000005\
 O,0,-0.660127,-1.105805,-0.000017\C,0,-2.102015,-1.048481,0.000022\H,0
 ,-2.424141,-2.087035,0.000036\H,0,-2.457248,-0.526525,-0.889609\H,0,-2
 .4572,-0.526515,0.889667\H,0,2.678606,0.890699,-0.000301\H,0,2.227264,
 -1.170993,-1.2054\H,0,2.227291,-1.170407,1.205801\\Version=ES64L-G16Re

 Normal termination of Gaussian 16 at Tue Apr  8 23:58:30 2025.
