 Gaussian 16, Revision C.01,

 ----------------------------------------------------------------------
 #t hf aug-cc-pvdz symm=none int=(grid=ultrafine) guess=(read,tcheck) s
 table=(opt,rrhf)
 ----------------------------------------------------------------------
 -----
 title
 -----
 Symbolic Z-matrix:
 Charge =  0 Multiplicity = 1

 SCF Done:  E(RHF) =  -1535.00394900     A.U. after   11 cycles
 Normal termination of Gaussian 16 at Wed Apr  9 00:09:38 2025.
 Gaussian 16:  ES64L-G16RevC.01  3-Jul-2019

 ----------------------------------------------------------------------
 #t hf aug-cc-pvdz iop(5/13=1,5/36=2,99/5=2) pseudo=read geom=check gue
 ss=(read,tcheck) scf=(maxcycle=1)
 ----------------------------------------------------------------------
 -----
 title
 -----
 Structure from the checkpoint file:  "BDE49_nonexpt_2327_mol1.chk"
 Charge =  0 Multiplicity = 1

                         Standard orientation:
 ---------------------------------------------------------------------
 Center     Atomic      Atomic             Coordinates (Angstroms)
 Number     Number       Type             X           Y           Z
 ---------------------------------------------------------------------
      1         14           0        1.363824   -0.125405    0.000002
      2         14           0       -0.904780    0.433200    0.000003
      3          9           0       -1.237864    1.309388   -1.282323
      4          9           0       -1.237871    1.309352    1.282352
      5          9           0        2.270805    1.172543    0.000032
      6          9           0        1.723486   -0.980738    1.283040
      7         17           0       -2.094418   -1.222227   -0.000023
      8          9           0        1.723497   -0.980686   -1.283067
 ---------------------------------------------------------------------

 SCF Done:  E(RHF) =  -1535.59020280     A.U. after    2 cycles

 The electronic state is 1-A.
 Alpha  occ. eigenvalues -- -105.60488 -69.70504 -69.70463 -26.50468 -26.50467
 Alpha  occ. eigenvalues --  -26.50456 -26.50422 -26.50421 -10.65552  -7.82434
 Alpha  occ. eigenvalues --   -7.82100  -7.82095  -6.36357  -6.36276  -4.11656
 Alpha  occ. eigenvalues --   -4.11654  -4.11623  -4.11552  -4.11415  -4.11312
 Alpha  occ. eigenvalues --   -1.64314  -1.63125  -1.60988  -1.60974  -1.60807
 Alpha  occ. eigenvalues --   -1.10472  -0.85455  -0.81666  -0.75262  -0.75207
 Alpha  occ. eigenvalues --   -0.74232  -0.73979  -0.71305  -0.70159  -0.69126
 Alpha  occ. eigenvalues --   -0.69096  -0.67615  -0.66405  -0.66365  -0.65600
 Alpha  occ. eigenvalues --   -0.64604  -0.62065  -0.53923  -0.52236  -0.49600
 Alpha virt. eigenvalues --    0.04575   0.04988   0.05234   0.05649   0.07973
 Alpha virt. eigenvalues --    0.08151   0.08389   0.10770   0.10836   0.11790
 Alpha virt. eigenvalues --    0.14646   0.14735   0.16477   0.19678   0.20495

 Mulliken charges:
               1
     1  Si   2.558207
     2  Si   2.026694
     3  F   -0.823152
     4  F   -0.823152
     5  F   -0.811658
     6  F   -0.824980
     7  Cl  -0.476978
     8  F   -0.824981
 Sum of Mulliken charges =  -0.00000

 Dipole moment (field-independent basis, Debye):
    X=             -0.3258    Y=             -0.2701    Z=             -0.0000  Tot=              0.4232

 Test job not archived.
 1\1\GINC-SE284\SP\RHF\Aug-CC-pVDZ\Cl1F5Si2\OHZDE\09-Apr-2025\0\\#t hf
 aug-cc-pvdz iop(5/13=1,5/36=2,99/5=2) pseudo=read geom=check guess=(re
 ad,tcheck) scf=(maxcycle=1)\\title\\0,1\Si,0,-1.363824,-0.125405,-0.00
 0002\Si,0,0.90478,0.4332,-0.000003\F,0,1.237864,1.309388,1.282323\F,0,
 1.237871,1.309352,-1.282352\F,0,-2.270805,1.172543,-0.000032\F,0,-1.72
 3486,-0.980738,-1.28304\Cl,0,2.094418,-1.222227,0.000023\F,0,-1.723497
 ,-0.980686,1.283067\\Version=ES64L-G16RevC.01\State=1-A\HF=-1535.59020
 28\RMSD=2.222e-03\Dipole=0.1281968,-0.1062711,0.0000029\Quadrupole=-0.

 Normal termination of Gaussian 16 at Wed Apr  9 00:09:42 2025.
