 Gaussian 16, Revision C.01,

 ----------------------------------------------------------------------
 #t hf aug-cc-pvdz symm=none int=(grid=ultrafine) guess=(read,tcheck) s
 table=(opt,rrhf)
 ----------------------------------------------------------------------
 -----
 title
 -----
 Symbolic Z-matrix:
 Charge =  0 Multiplicity = 1

 SCF Done:  E(RHF) =  -1825.50955981     A.U. after   13 cycles
 Normal termination of Gaussian 16 at Wed Apr  9 00:13:48 2025.
 Gaussian 16:  ES64L-G16RevC.01  3-Jul-2019

 ----------------------------------------------------------------------
 #t hf aug-cc-pvdz iop(5/13=1,5/36=2,99/5=2) pseudo=read geom=check gue
 ss=(read,tcheck) scf=(maxcycle=1)
 ----------------------------------------------------------------------
 -----
 title
 -----
 Structure from the checkpoint file:  "BDE49_nonexpt_2423_mol1.chk"
 Charge =  0 Multiplicity = 1

                         Standard orientation:
 ---------------------------------------------------------------------
 Center     Atomic      Atomic             Coordinates (Angstroms)
 Number     Number       Type             X           Y           Z
 ---------------------------------------------------------------------
      1         14           0        1.183390    1.690705   -0.123249
      2         14           0       -1.183426    1.690679    0.123265
      3         16           0       -1.941950   -0.418786    0.066340
      4          1           0       -1.855221    2.419297   -0.969685
      5          1           0       -1.591704    2.179453    1.454579
      6          8           0       -1.196614   -1.174285    1.073134
      7          8           0       -1.504934   -0.950836   -1.381762
      8          8           0       -3.376900   -0.420538    0.092108
      9         16           0        1.941947   -0.418766   -0.066347
     10          1           0        1.855187    2.419326    0.969697
     11          1           0        1.591651    2.179478   -1.454568
     12          8           0        1.196607   -1.174312   -1.073107
     13          8           0        3.376896   -0.420492   -0.092152
     14          8           0        1.505012   -0.950869    1.381759
     15          1           0       -0.548455   -1.202671   -1.358902
     16          1           0        0.548547   -1.202761    1.358936
 ---------------------------------------------------------------------

 SCF Done:  E(RHF) =  -1826.13906292     A.U. after    2 cycles

 The electronic state is 1-A.
 Alpha  occ. eigenvalues --  -94.24529 -94.24524 -69.61932 -69.61931 -20.62545
 Alpha  occ. eigenvalues --  -20.62544 -20.57833 -20.57832 -20.56868 -20.56867
 Alpha  occ. eigenvalues --   -8.49473  -8.49473  -6.47580  -6.47579  -6.47464
 Alpha  occ. eigenvalues --   -6.47463  -6.47220  -6.47220  -6.28995  -6.28984
 Alpha  occ. eigenvalues --   -4.04372  -4.04353  -4.04280  -4.04250  -4.04241
 Alpha  occ. eigenvalues --   -4.04212  -1.62925  -1.62357  -1.50349  -1.49547
 Alpha  occ. eigenvalues --   -1.47658  -1.47353  -0.97743  -0.95170  -0.85858
 Alpha  occ. eigenvalues --   -0.81498  -0.77706  -0.75161  -0.72430  -0.70903
 Alpha  occ. eigenvalues --   -0.69961  -0.68212  -0.66037  -0.62969  -0.59115
 Alpha  occ. eigenvalues --   -0.57352  -0.56964  -0.55584  -0.54812  -0.53493
 Alpha  occ. eigenvalues --   -0.52389  -0.52251  -0.50611  -0.50090  -0.48979
 Alpha  occ. eigenvalues --   -0.45472  -0.45007
 Alpha virt. eigenvalues --    0.00350   0.02594   0.02925   0.04346   0.05271
 Alpha virt. eigenvalues --    0.05781   0.06276   0.06508   0.06831   0.08098
 Alpha virt. eigenvalues --    0.08402   0.08977   0.09734   0.10233   0.10724

 Mulliken charges:
               1
     1  Si   0.579527
     2  Si   0.579523
     3  S    3.297879
     4  H   -0.032513
     5  H   -0.032688
     6  O   -1.556492
     7  O   -1.481910
     8  O   -1.440784
     9  S    3.297892
    10  H   -0.032511
    11  H   -0.032687
    12  O   -1.556537
    13  O   -1.440788
    14  O   -1.481908
    15  H    0.667022
    16  H    0.666975
 Sum of Mulliken charges =  -0.00000

 Dipole moment (field-independent basis, Debye):
    X=              0.0001    Y=              6.5654    Z=              0.0001  Tot=              6.5654

 Test job not archived.
 1\1\GINC-SE454\SP\RHF\Aug-CC-pVDZ\H6O6S2Si2\OHZDE\09-Apr-2025\0\\#t hf
  aug-cc-pvdz iop(5/13=1,5/36=2,99/5=2) pseudo=read geom=check guess=(r
 ead,tcheck) scf=(maxcycle=1)\\title\\0,1\Si,0,1.18339,1.690705,-0.1232
 49\Si,0,-1.183426,1.690679,0.123265\S,0,-1.94195,-0.418786,0.06634\H,0
 ,-1.855221,2.419297,-0.969685\H,0,-1.591704,2.179453,1.454579\O,0,-1.1
 96614,-1.174285,1.073134\O,0,-1.504934,-0.950836,-1.381762\O,0,-3.3769
 ,-0.420538,0.092108\S,0,1.941947,-0.418766,-0.066347\H,0,1.855187,2.41
 9326,0.969697\H,0,1.591651,2.179478,-1.454568\O,0,1.196607,-1.174312,-

 Normal termination of Gaussian 16 at Wed Apr  9 00:13:58 2025.
