 Gaussian 16, Revision C.01,

 ----------------------------------------------------------------------
 #t hf aug-cc-pvdz symm=none int=(grid=ultrafine) guess=(read,tcheck) s
 table=(opt,rrhf)
 ----------------------------------------------------------------------
 -----
 title
 -----
 Symbolic Z-matrix:
 Charge =  0 Multiplicity = 1

 SCF Done:  E(RHF) =  -766.898130412     A.U. after   12 cycles
 Normal termination of Gaussian 16 at Wed Apr  9 00:14:37 2025.
 Gaussian 16:  ES64L-G16RevC.01  3-Jul-2019

 ----------------------------------------------------------------------
 #t hf aug-cc-pvdz iop(5/13=1,5/36=2,99/5=2) pseudo=read geom=check gue
 ss=(read,tcheck) scf=(maxcycle=1)
 ----------------------------------------------------------------------
 -----
 title
 -----
 Structure from the checkpoint file:  "BDE49_nonexpt_2494_mol1.chk"
 Charge =  0 Multiplicity = 1

                         Standard orientation:
 ---------------------------------------------------------------------
 Center     Atomic      Atomic             Coordinates (Angstroms)
 Number     Number       Type             X           Y           Z
 ---------------------------------------------------------------------
      1         16           0       -0.860650   -0.756024   -0.000010
      2          6           0       -2.270976    0.425424   -0.000001
      3          1           0       -2.259829    1.049983    0.893689
      4          1           0       -3.180426   -0.175528   -0.000011
      5          1           0       -2.259824    1.050003   -0.893677
      6         14           0        0.800493    0.619921    0.000009
      7          6           0        2.383419   -0.383046    0.000000
      8          1           0        2.445192   -1.019969    0.886037
      9          1           0        3.250364    0.284092    0.000015
     10          1           0        2.445199   -1.019941   -0.886056
     11          1           0        0.724075    1.497276    1.195594
     12          1           0        0.724079    1.497305   -1.195555
 ---------------------------------------------------------------------

 SCF Done:  E(RHF) =  -767.085771560     A.U. after    2 cycles

 The electronic state is 1-A.
 Alpha  occ. eigenvalues --  -93.92998 -69.54712 -11.27071 -11.22542  -8.21294
 Alpha  occ. eigenvalues --   -6.21565  -6.19093  -6.18961  -6.18758  -3.96960
 Alpha  occ. eigenvalues --   -3.96874  -3.96849  -1.05030  -0.96207  -0.87591
 Alpha  occ. eigenvalues --   -0.70198  -0.59903  -0.59573  -0.57538  -0.57335
 Alpha  occ. eigenvalues --   -0.50855  -0.48503  -0.46273  -0.42414  -0.35702
 Alpha virt. eigenvalues --    0.03633   0.03700   0.04634   0.04993   0.06107
 Alpha virt. eigenvalues --    0.06778   0.07255   0.08347   0.09399   0.09563
 Alpha virt. eigenvalues --    0.11001   0.11587   0.14022   0.14967   0.15428

 Mulliken charges:
               1
     1  S   -0.346980
     2  C   -0.701068
     3  H    0.146481
     4  H    0.142652
     5  H    0.146480
     6  Si   1.546085
     7  C   -0.627438
     8  H    0.082034
     9  H   -0.032850
    10  H    0.082033
    11  H   -0.218714
    12  H   -0.218715
 Sum of Mulliken charges =  -0.00000

 Dipole moment (field-independent basis, Debye):
    X=              0.1382    Y=              1.1946    Z=              0.0000  Tot=              1.2026

 Test job not archived.
 1\1\GINC-SE461\SP\RHF\Aug-CC-pVDZ\C2H8S1Si1\OHZDE\09-Apr-2025\0\\#t hf
  aug-cc-pvdz iop(5/13=1,5/36=2,99/5=2) pseudo=read geom=check guess=(r
 ead,tcheck) scf=(maxcycle=1)\\title\\0,1\S,0,-0.86065,-0.756024,-0.000
 01\C,0,-2.270976,0.425424,-0.000001\H,0,-2.259829,1.049983,0.893689\H,
 0,-3.180426,-0.175528,-0.000011\H,0,-2.259824,1.050003,-0.893677\Si,0,
 0.800493,0.619921,0.000009\C,0,2.383419,-0.383046,0.\H,0,2.445192,-1.0
 19969,0.886037\H,0,3.250364,0.284092,0.000015\H,0,2.445199,-1.019941,-
 0.886056\H,0,0.724075,1.497276,1.195594\H,0,0.724079,1.497305,-1.19555

 Normal termination of Gaussian 16 at Wed Apr  9 00:14:40 2025.
