 Gaussian 16, Revision C.01,

 ----------------------------------------------------------------------
 #t hf aug-cc-pvdz symm=none int=(grid=ultrafine) guess=(read,tcheck) s
 table=(opt,rrhf)
 ----------------------------------------------------------------------
 -----
 title
 -----
 Symbolic Z-matrix:
 Charge =  0 Multiplicity = 1

 SCF Done:  E(RHF) =  -1076.30525206     A.U. after   13 cycles
 Normal termination of Gaussian 16 at Wed Apr  9 00:01:30 2025.
 Gaussian 16:  ES64L-G16RevC.01  3-Jul-2019

 ----------------------------------------------------------------------
 #t hf aug-cc-pvdz iop(5/13=1,5/36=2,99/5=2) pseudo=read geom=check gue
 ss=(read,tcheck) scf=(maxcycle=1)
 ----------------------------------------------------------------------
 -----
 title
 -----
 Structure from the checkpoint file:  "BDE49_nonexpt_214_mol1.chk"
 Charge =  0 Multiplicity = 1

                         Standard orientation:
 ---------------------------------------------------------------------
 Center     Atomic      Atomic             Coordinates (Angstroms)
 Number     Number       Type             X           Y           Z
 ---------------------------------------------------------------------
      1         17           0        1.640074   -1.079114   -0.000002
      2         17           0        0.643336    1.771341    0.000019
      3          5           0        0.285509    0.049508   -0.000006
      4          6           0       -1.205037   -0.482576   -0.000049
      5          6           0       -2.347624    0.505046    0.000025
      6          7           0       -1.485869   -1.732758   -0.000033
      7          1           0       -2.302410    1.157170    0.877620
      8          1           0       -3.292455   -0.037885    0.000032
      9          1           0       -2.302457    1.157227   -0.877529
     10          1           0       -0.631142   -2.297433   -0.000007
 ---------------------------------------------------------------------

 SCF Done:  E(RHF) =  -1076.61771626     A.U. after    2 cycles

 The electronic state is 1-A.
 Alpha  occ. eigenvalues -- -105.59130-105.59033 -15.52214 -11.29428 -11.24352
 Alpha  occ. eigenvalues --  -10.64151 -10.64047  -7.81044  -7.80941  -7.80762
 Alpha  occ. eigenvalues --   -7.80714  -7.80657  -7.80621  -7.73113  -1.23333
 Alpha  occ. eigenvalues --   -1.12246  -1.07407  -1.00218  -0.81884  -0.75755
 Alpha  occ. eigenvalues --   -0.66225  -0.62577  -0.60106  -0.57851  -0.55985
 Alpha  occ. eigenvalues --   -0.54207  -0.52006  -0.49217  -0.47869  -0.46715
 Alpha  occ. eigenvalues --   -0.45307
 Alpha virt. eigenvalues --    0.02098   0.03618   0.04686   0.04725   0.05096
 Alpha virt. eigenvalues --    0.06455   0.06938   0.07652   0.08011   0.12982
 Alpha virt. eigenvalues --    0.13298   0.14117   0.14939   0.15800   0.16541

 Mulliken charges:
               1
     1  Cl  -0.323501
     2  Cl  -0.264275
     3  B    0.632623
     4  C   -0.863167
     5  C   -0.592615
     6  N    0.640931
     7  H    0.217755
     8  H    0.169055
     9  H    0.217763
    10  H    0.165432
 Sum of Mulliken charges =  -0.00000

 Dipole moment (field-independent basis, Debye):
    X=              0.4155    Y=              1.3990    Z=              0.0001  Tot=              1.4593

 Test job not archived.
 1\1\GINC-SE069\SP\RHF\Aug-CC-pVDZ\C2H4B1Cl2N1\OHZDE\09-Apr-2025\0\\#t
 hf aug-cc-pvdz iop(5/13=1,5/36=2,99/5=2) pseudo=read geom=check guess=
 (read,tcheck) scf=(maxcycle=1)\\title\\0,1\Cl,0,1.640075,-1.079112,-0.
 000002\Cl,0,0.643334,1.771342,0.000019\B,0,0.285509,0.049509,-0.000006
 \C,0,-1.205036,-0.482577,-0.000049\C,0,-2.347624,0.505044,0.000025\N,0
 ,-1.485867,-1.732759,-0.000033\H,0,-2.302411,1.157168,0.87762\H,0,-3.2
 92455,-0.037888,0.000032\H,0,-2.302458,1.157225,-0.877529\H,0,-0.63114
 ,-2.297433,-0.000007\\Version=ES64L-G16RevC.01\State=1-A\HF=-1076.6177

 Normal termination of Gaussian 16 at Wed Apr  9 00:01:34 2025.
