 Gaussian 16, Revision C.01,

 ----------------------------------------------------------------------
 #t hf aug-cc-pvdz symm=none int=(grid=ultrafine) guess=(read,tcheck) s
 table=(opt,rrhf)
 ----------------------------------------------------------------------
 -----
 title
 -----
 Symbolic Z-matrix:
 Charge =  0 Multiplicity = 1

 SCF Done:  E(RHF) =  -562.054518981     A.U. after   15 cycles
 Normal termination of Gaussian 16 at Wed Apr  9 00:45:49 2025.
 Gaussian 16:  ES64L-G16RevC.01  3-Jul-2019

 ----------------------------------------------------------------------
 #t hf aug-cc-pvdz iop(5/13=1,5/36=2,99/5=2) pseudo=read geom=check gue
 ss=(read,tcheck) scf=(maxcycle=1)
 ----------------------------------------------------------------------
 -----
 title
 -----
 Structure from the checkpoint file:  "BDE49_nonexpt_789_mol1.chk"
 Charge =  0 Multiplicity = 1

                         Standard orientation:
 ---------------------------------------------------------------------
 Center     Atomic      Atomic             Coordinates (Angstroms)
 Number     Number       Type             X           Y           Z
 ---------------------------------------------------------------------
      1          6           0       -0.471376    1.121968    0.273351
      2          6           0       -1.845050    1.275119    0.130509
      3          6           0       -2.612792    0.146875   -0.152718
      4          7           0       -2.097664   -1.076801   -0.294127
      5          6           0       -0.774668   -1.204377   -0.149275
      6          6           0        0.105113   -0.149329    0.137194
      7          1           0       -2.315989    2.245939    0.232878
      8          1           0       -3.689725    0.229175   -0.273248
      9          1           0        0.146248    1.988808    0.488345
     10          5           0        3.115088    0.814081   -0.740557
     11          1           0       -0.390765   -2.214434   -0.270505
     12         14           0        1.956993   -0.446498    0.320178
     13          1           0        2.751331    1.914599   -1.020836
     14          1           0        4.219413    0.503555   -1.063999
     15          1           0        2.363287   -0.216419    1.738779
     16          1           0        2.219149   -1.874590    0.013404
 ---------------------------------------------------------------------

 SCF Done:  E(RHF) =  -562.366177804     A.U. after    2 cycles

 The electronic state is 1-A.
 Alpha  occ. eigenvalues --  -69.52275 -15.50635 -11.28550 -11.28487 -11.27174
 Alpha  occ. eigenvalues --  -11.25142 -11.23907  -7.61468  -6.19521  -3.94879
 Alpha  occ. eigenvalues --   -3.94871  -3.94836  -1.25988  -1.09219  -1.03876
 Alpha  occ. eigenvalues --   -0.87919  -0.87117  -0.77611  -0.72888  -0.69213
 Alpha  occ. eigenvalues --   -0.67501  -0.63615  -0.59518  -0.57568  -0.56433
 Alpha  occ. eigenvalues --   -0.51776  -0.49616  -0.48055  -0.45017  -0.43439
 Alpha  occ. eigenvalues --   -0.40044  -0.35554
 Alpha virt. eigenvalues --    0.02151   0.03047   0.03532   0.03700   0.04685
 Alpha virt. eigenvalues --    0.05461   0.05634   0.06632   0.06899   0.07584
 Alpha virt. eigenvalues --    0.08483   0.08814   0.09465   0.09738   0.10133

 Mulliken charges:
               1
     1  C    0.652953
     2  C    0.650502
     3  C   -0.787777
     4  N    0.964371
     5  C   -0.674127
     6  C   -0.104785
     7  H   -0.187000
     8  H   -0.162975
     9  H   -0.285232
    10  B   -0.990505
    11  H   -0.250049
    12  Si   0.722012
    13  H    0.407805
    14  H    0.341583
    15  H   -0.134820
    16  H   -0.161957
 Sum of Mulliken charges =   0.00000

 Dipole moment (field-independent basis, Debye):
    X=              1.2108    Y=              2.3922    Z=              0.1608  Tot=              2.6860

 Test job not archived.
 1\1\GINC-SE229\SP\RHF\Aug-CC-pVDZ\C5H8B1N1Si1\OHZDE\09-Apr-2025\0\\#t
 hf aug-cc-pvdz iop(5/13=1,5/36=2,99/5=2) pseudo=read geom=check guess=
 (read,tcheck) scf=(maxcycle=1)\\title\\0,1\C,0,-0.471376,1.121968,0.27
 3351\C,0,-1.84505,1.275119,0.130509\C,0,-2.612792,0.146875,-0.152718\N
 ,0,-2.097664,-1.076801,-0.294127\C,0,-0.774668,-1.204377,-0.149275\C,0
 ,0.105113,-0.149329,0.137194\H,0,-2.315989,2.245939,0.232878\H,0,-3.68
 9725,0.229175,-0.273248\H,0,0.146248,1.988808,0.488345\B,0,3.115088,0.
 814081,-0.740557\H,0,-0.390765,-2.214434,-0.270505\Si,0,1.956993,-0.44

 Normal termination of Gaussian 16 at Wed Apr  9 00:45:58 2025.
