 Gaussian 16, Revision C.01,

 ----------------------------------------------------------------------
 #t hf aug-cc-pvdz symm=none int=(grid=ultrafine) guess=(read,tcheck) s
 table=(opt,rrhf)
 ----------------------------------------------------------------------
 -----
 title
 -----
 Symbolic Z-matrix:
 Charge =  0 Multiplicity = 1

 SCF Done:  E(RHF) =  -744.688709987     A.U. after   15 cycles
 Normal termination of Gaussian 16 at Tue Apr  8 22:51:12 2025.
 Gaussian 16:  ES64L-G16RevC.01  3-Jul-2019

 ----------------------------------------------------------------------
 #t hf aug-cc-pvdz iop(5/13=1,5/36=2,99/5=2) pseudo=read geom=check gue
 ss=(read,tcheck) scf=(maxcycle=1)
 ----------------------------------------------------------------------
 -----
 title
 -----
 Structure from the checkpoint file:  "BDE49_expt_1731_mol1.chk"
 Charge =  0 Multiplicity = 1

                         Standard orientation:
 ---------------------------------------------------------------------
 Center     Atomic      Atomic             Coordinates (Angstroms)
 Number     Number       Type             X           Y           Z
 ---------------------------------------------------------------------
      1          6           0       -1.958139    1.204778   -0.098262
      2          6           0       -0.628829    1.171105    0.301937
      3          6           0       -2.607200   -0.002447   -0.353247
      4          7           0       -2.018444   -1.195075   -0.230667
      5          6           0       -0.741110   -1.211010    0.152669
      6          6           0        0.008042   -0.064568    0.434313
      7          1           0       -2.485997    2.144215   -0.210755
      8          1           0       -0.087921    2.089462    0.505253
      9          1           0       -0.281637   -2.192598    0.245211
     10          6           0        1.434417   -0.172821    0.867995
     11         17           0        2.601285    0.080093   -0.526588
     12          1           0        1.665611   -1.159915    1.261748
     13          1           0       -3.646701   -0.012751   -0.668599
     14          1           0        1.700823    0.585311    1.601379
 ---------------------------------------------------------------------

 SCF Done:  E(RHF) =  -745.057338092     A.U. after    2 cycles

 The electronic state is 1-A.
 Alpha  occ. eigenvalues -- -105.55874 -15.51478 -11.32230 -11.29210 -11.29127
 Alpha  occ. eigenvalues --  -11.27751 -11.26775 -11.25924 -10.60643  -7.77576
 Alpha  occ. eigenvalues --   -7.77207  -7.77201  -1.27042  -1.13843  -1.08449
 Alpha  occ. eigenvalues --   -1.04124  -0.93466  -0.88659  -0.85081  -0.73954
 Alpha  occ. eigenvalues --   -0.71713  -0.66788  -0.62517  -0.61855  -0.60505
 Alpha  occ. eigenvalues --   -0.58807  -0.55433  -0.54550  -0.46676  -0.45184
 Alpha  occ. eigenvalues --   -0.44681  -0.41037  -0.36345
 Alpha virt. eigenvalues --    0.03095   0.03542   0.03837   0.05083   0.05695
 Alpha virt. eigenvalues --    0.06482   0.07280   0.08481   0.08697   0.10148
 Alpha virt. eigenvalues --    0.10946   0.11834   0.12242   0.13473   0.13846

 Mulliken charges:
               1
     1  C    0.390153
     2  C    0.203337
     3  C   -0.868370
     4  N    0.916397
     5  C   -0.932169
     6  C    1.616154
     7  H   -0.179908
     8  H   -0.204971
     9  H   -0.203367
    10  C   -0.710351
    11  Cl  -0.081007
    12  H    0.102462
    13  H   -0.161902
    14  H    0.113542
 Sum of Mulliken charges =   0.00000

 Dipole moment (field-independent basis, Debye):
    X=             -0.4729    Y=              2.0217    Z=              2.0135  Tot=              2.8922

 Test job not archived.
 1\1\GINC-SE045\SP\RHF\Aug-CC-pVDZ\C6H6Cl1N1\OHZDE\08-Apr-2025\0\\#t hf
  aug-cc-pvdz iop(5/13=1,5/36=2,99/5=2) pseudo=read geom=check guess=(r
 ead,tcheck) scf=(maxcycle=1)\\title\\0,1\C,0,-1.958139,1.204778,-0.098
 262\C,0,-0.628829,1.171105,0.301937\C,0,-2.6072,-0.002447,-0.353247\N,
 0,-2.018444,-1.195075,-0.230667\C,0,-0.74111,-1.21101,0.152669\C,0,0.0
 08042,-0.064568,0.434313\H,0,-2.485997,2.144215,-0.210755\H,0,-0.08792
 1,2.089462,0.505253\H,0,-0.281637,-2.192598,0.245211\C,0,1.434417,-0.1
 72821,0.867995\Cl,0,2.601285,0.080093,-0.526588\H,0,1.665611,-1.159915

 Normal termination of Gaussian 16 at Tue Apr  8 22:51:19 2025.
