 Gaussian 16, Revision C.01,

 ----------------------------------------------------------------------
 #t hf aug-cc-pvdz symm=none int=(grid=ultrafine) guess=(read,tcheck) s
 table=(opt,rrhf)
 ----------------------------------------------------------------------
 -----
 title
 -----
 Symbolic Z-matrix:
 Charge =  0 Multiplicity = 1

 SCF Done:  E(RHF) =  -592.716232892     A.U. after   12 cycles

 1\1\GINC-SE340\Stability\RHF\Aug-CC-pVDZ\C5H10S1\OHZDE\08-Apr-2025\0\\
 #t hf aug-cc-pvdz symm=none int=(grid=ultrafine) guess=(read,tcheck) s
 table=(opt,rrhf)\\title\\0,1\C,0,0.387609,0.000005,0.791113\C,0,-0.548
 778,-1.203001,0.586276\C,0,-1.500428,-0.779315,-0.557243\H,0,-1.119799
 ,-1.348786,1.510578\H,0,-0.011023,-2.129422,0.382424\C,0,-1.500441,0.7
 79305,-0.557242\H,0,-2.501392,-1.190483,-0.41218\H,0,-1.143366,-1.1633
 52,-1.516026\C,0,-0.54878,1.203007,0.586264\H,0,-2.50141,1.190454,-0.4
 1216\H,0,-1.143404,1.16335,-1.516031\H,0,-0.011026,2.129424,0.382393\H

 Normal termination of Gaussian 16 at Tue Apr  8 22:45:51 2025.
 Gaussian 16:  ES64L-G16RevC.01  3-Jul-2019

 ----------------------------------------------------------------------
 #t hf aug-cc-pvdz iop(5/13=1,5/36=2,99/5=2) pseudo=read geom=check gue
 ss=(read,tcheck) scf=(maxcycle=1)
 ----------------------------------------------------------------------
 -----
 title
 -----
 Structure from the checkpoint file:  "BDE49_expt_1557_mol1.chk"
 Charge =  0 Multiplicity = 1

                         Standard orientation:
 ---------------------------------------------------------------------
 Center     Atomic      Atomic             Coordinates (Angstroms)
 Number     Number       Type             X           Y           Z
 ---------------------------------------------------------------------
      1          6           0        0.387609    0.000005    0.791113
      2          6           0       -0.548778   -1.203001    0.586276
      3          6           0       -1.500428   -0.779315   -0.557243
      4          1           0       -1.119799   -1.348786    1.510578
      5          1           0       -0.011023   -2.129422    0.382424
      6          6           0       -1.500441    0.779305   -0.557242
      7          1           0       -2.501392   -1.190483   -0.412180
      8          1           0       -1.143366   -1.163352   -1.516026
      9          6           0       -0.548780    1.203007    0.586264
     10          1           0       -2.501410    1.190454   -0.412160
     11          1           0       -1.143404    1.163350   -1.516031
     12          1           0       -0.011026    2.129424    0.382393
     13          1           0       -1.119793    1.348808    1.510568
     14         16           0        1.860743   -0.000000   -0.331618
     15          1           0        0.850018    0.000010    1.780044
     16          1           0        1.194222    0.000001   -1.498729
 ---------------------------------------------------------------------

 SCF Done:  E(RHF) =  -592.991864250     A.U. after    2 cycles

 The electronic state is 1-A.
 Alpha  occ. eigenvalues --  -93.94101 -11.27167 -11.23460 -11.23437 -11.23230
 Alpha  occ. eigenvalues --  -11.23221  -8.22173  -6.20024  -6.19874  -6.19657
 Alpha  occ. eigenvalues --   -1.14047  -1.02097  -0.97129  -0.93148  -0.78707
 Alpha  occ. eigenvalues --   -0.76989  -0.67804  -0.65713  -0.59347  -0.57636
 Alpha  occ. eigenvalues --   -0.53669  -0.50238  -0.49326  -0.48790  -0.48440
 Alpha  occ. eigenvalues --   -0.46939  -0.43977  -0.35757
 Alpha virt. eigenvalues --    0.03413   0.03757   0.04146   0.04292   0.06229
 Alpha virt. eigenvalues --    0.06336   0.06397   0.06676   0.07447   0.09525
 Alpha virt. eigenvalues --    0.11598   0.13033   0.13837   0.13911   0.14676

 Mulliken charges:
               1
     1  C   -0.844385
     2  C   -0.069246
     3  C   -0.187891
     4  H    0.138324
     5  H    0.104270
     6  C   -0.187883
     7  H    0.106605
     8  H    0.106148
     9  C   -0.069255
    10  H    0.106610
    11  H    0.106150
    12  H    0.104269
    13  H    0.138323
    14  S   -0.040887
    15  H    0.145614
    16  H    0.343234
 Sum of Mulliken charges =  -0.00000

 Dipole moment (field-independent basis, Debye):
    X=             -2.0252    Y=              0.0000    Z=              0.3506  Tot=              2.0553

 Test job not archived.
 1\1\GINC-SE340\SP\RHF\Aug-CC-pVDZ\C5H10S1\OHZDE\08-Apr-2025\0\\#t hf a
 ug-cc-pvdz iop(5/13=1,5/36=2,99/5=2) pseudo=read geom=check guess=(rea
 d,tcheck) scf=(maxcycle=1)\\title\\0,1\C,0,0.387609,0.000005,0.791113\
 C,0,-0.548778,-1.203001,0.586276\C,0,-1.500428,-0.779315,-0.557243\H,0
 ,-1.119799,-1.348786,1.510578\H,0,-0.011023,-2.129422,0.382424\C,0,-1.
 500441,0.779305,-0.557242\H,0,-2.501392,-1.190483,-0.41218\H,0,-1.1433
 66,-1.163352,-1.516026\C,0,-0.54878,1.203007,0.586264\H,0,-2.50141,1.1
 90454,-0.41216\H,0,-1.143404,1.16335,-1.516031\H,0,-0.011026,2.129424,

 Normal termination of Gaussian 16 at Tue Apr  8 22:45:56 2025.
