 Gaussian 16, Revision C.01,

 ----------------------------------------------------------------------
 #t hf aug-cc-pvdz symm=none int=(grid=ultrafine) guess=(read,tcheck) s
 table=(opt,rrhf)
 ----------------------------------------------------------------------
 -----
 title
 -----
 Symbolic Z-matrix:
 Charge =  0 Multiplicity = 1

 SCF Done:  E(RHF) =  -1229.11813620     A.U. after   16 cycles
 Normal termination of Gaussian 16 at Tue Apr  8 23:41:25 2025.
 Gaussian 16:  ES64L-G16RevC.01  3-Jul-2019

 ----------------------------------------------------------------------
 #t hf aug-cc-pvdz iop(5/13=1,5/36=2,99/5=2) pseudo=read geom=check gue
 ss=(read,tcheck) scf=(maxcycle=1)
 ----------------------------------------------------------------------
 -----
 title
 -----
 Structure from the checkpoint file:  "BDE49_nonexpt_1617_mol1.chk"
 Charge =  0 Multiplicity = 1

                         Standard orientation:
 ---------------------------------------------------------------------
 Center     Atomic      Atomic             Coordinates (Angstroms)
 Number     Number       Type             X           Y           Z
 ---------------------------------------------------------------------
      1         15           0        0.178552    0.145129   -0.877956
      2          7           0        0.100272    1.803930    0.018126
      3         15           0       -1.600410   -0.690326    0.195063
      4          6           0        1.528109   -0.664667    0.097625
      5          6           0        2.937787   -0.351432   -0.427978
      6          1           0        1.321943   -1.738916    0.003950
      7          1           0        1.416875   -0.413005    1.154460
      8          8           0        1.133375    2.273762    0.447908
      9          8           0       -0.989270    2.382425    0.042044
     10          8           0       -1.407765   -0.951774    1.627064
     11          8           0       -2.778439    0.266519   -0.272158
     12          6           0        4.018310   -1.104423    0.354003
     13          1           0        3.114591    0.724235   -0.358439
     14          1           0        2.998016   -0.614540   -1.489665
     15          1           0        3.998084   -0.834997    1.413727
     16          1           0        5.013086   -0.867420   -0.031201
     17          1           0        3.881301   -2.187714    0.281854
     18          1           0       -2.528034    1.201743   -0.141274
     19          8           0       -1.898885   -1.997449   -0.686030
     20          1           0       -1.967276   -2.783675   -0.129424
 ---------------------------------------------------------------------

 SCF Done:  E(RHF) =  -1229.74942910     A.U. after    2 cycles

 The electronic state is 1-A.
 Alpha  occ. eigenvalues --  -84.45533 -84.36096 -20.61908 -20.61686 -20.60901
 Alpha  occ. eigenvalues --  -20.60206 -20.52697 -15.79375 -11.28262 -11.25951
 Alpha  occ. eigenvalues --  -11.24376  -6.90784  -6.82980  -4.44895  -4.44259
 Alpha  occ. eigenvalues --   -4.43242  -4.35613  -4.35301  -4.34517  -1.68625
 Alpha  occ. eigenvalues --   -1.55387  -1.52544  -1.49068  -1.40864  -1.10807
 Alpha  occ. eigenvalues --   -1.04678  -0.96638  -0.89212  -0.85835  -0.83689
 Alpha  occ. eigenvalues --   -0.76663  -0.75605  -0.74418  -0.72421  -0.68916
 Alpha  occ. eigenvalues --   -0.66669  -0.65656  -0.61033  -0.60805  -0.58993
 Alpha  occ. eigenvalues --   -0.58081  -0.56899  -0.55709  -0.52322  -0.51555
 Alpha  occ. eigenvalues --   -0.50778  -0.49879  -0.47933  -0.47508  -0.47278
 Alpha  occ. eigenvalues --   -0.44757  -0.38422
 Alpha virt. eigenvalues --    0.02686   0.03282   0.03608   0.04292   0.04694
 Alpha virt. eigenvalues --    0.05727   0.06310   0.06752   0.07361   0.07948
 Alpha virt. eigenvalues --    0.08723   0.09300   0.10435   0.10662   0.11710

 Mulliken charges:
               1
     1  P    0.554440
     2  N    2.078926
     3  P    3.932674
     4  C   -0.695937
     5  C   -0.367597
     6  H    0.162937
     7  H    0.134826
     8  O   -1.222452
     9  O   -1.393337
    10  O   -1.597268
    11  O   -1.559016
    12  C   -0.375764
    13  H    0.169675
    14  H    0.157110
    15  H    0.166794
    16  H    0.126445
    17  H    0.151761
    18  H    0.579024
    19  O   -1.324215
    20  H    0.320974
 Sum of Mulliken charges =  -0.00000

 Dipole moment (field-independent basis, Debye):
    X=              2.3027    Y=             -3.3669    Z=             -2.6139  Tot=              4.8447

 Test job not archived.
 1\1\GINC-SE073\SP\RHF\Aug-CC-pVDZ\C3H9N1O5P2\OHZDE\08-Apr-2025\0\\#t h
 f aug-cc-pvdz iop(5/13=1,5/36=2,99/5=2) pseudo=read geom=check guess=(
 read,tcheck) scf=(maxcycle=1)\\title\\0,1\P,0,0.178552,0.145129,-0.877
 956\N,0,0.100272,1.80393,0.018126\P,0,-1.60041,-0.690326,0.195063\C,0,
 1.528109,-0.664667,0.097625\C,0,2.937787,-0.351432,-0.427978\H,0,1.321
 943,-1.738916,0.00395\H,0,1.416875,-0.413005,1.15446\O,0,1.133375,2.27
 3762,0.447908\O,0,-0.98927,2.382425,0.042044\O,0,-1.407765,-0.951774,1
 .627064\O,0,-2.778439,0.266519,-0.272158\C,0,4.01831,-1.104422,0.35400

 Normal termination of Gaussian 16 at Tue Apr  8 23:41:38 2025.
