 Gaussian 16, Revision C.01,

 ----------------------------------------------------------------------
 #t hf aug-cc-pvdz symm=none int=(grid=ultrafine) guess=(read,tcheck) s
 table=(opt,rrhf)
 ----------------------------------------------------------------------
 -----
 title
 -----
 Symbolic Z-matrix:
 Charge =  0 Multiplicity = 1

 SCF Done:  E(RHF) =  -395.259512012     A.U. after   12 cycles
 Normal termination of Gaussian 16 at Wed Apr  9 00:33:11 2025.
 Gaussian 16:  ES64L-G16RevC.01  3-Jul-2019

 ----------------------------------------------------------------------
 #t hf aug-cc-pvdz iop(5/13=1,5/36=2,99/5=2) pseudo=read geom=check gue
 ss=(read,tcheck) scf=(maxcycle=1)
 ----------------------------------------------------------------------
 -----
 title
 -----
 Structure from the checkpoint file:  "BDE49_nonexpt_408_mol1.chk"
 Charge =  0 Multiplicity = 1

                         Standard orientation:
 ---------------------------------------------------------------------
 Center     Atomic      Atomic             Coordinates (Angstroms)
 Number     Number       Type             X           Y           Z
 ---------------------------------------------------------------------
      1          9           0       -1.618813   -1.448692    0.000502
      2          9           0       -2.164195    0.739371    0.000770
      3          5           0       -1.213643   -0.193745   -0.000935
      4          6           0        0.302274    0.216363   -0.000454
      5          7           0        1.121396   -0.768240   -0.000390
      6          6           0        2.555738   -0.554317   -0.000031
      7          1           0        2.973553   -1.062715    0.874864
      8          1           0        2.889795    0.488956    0.000174
      9          1           0        2.973964   -1.062503   -0.874853
     10          6           0        0.666450    1.694315   -0.000170
     11          1           0       -0.233021    2.309199   -0.000330
     12          1           0        1.257461    1.959707   -0.881866
     13          1           0        1.256997    1.959483    0.881905
 ---------------------------------------------------------------------

 SCF Done:  E(RHF) =  -395.644231615     A.U. after    2 cycles

 The electronic state is 1-A.
 Alpha  occ. eigenvalues --  -26.47783 -26.47043 -15.52212 -11.28064 -11.26627
 Alpha  occ. eigenvalues --  -11.24916  -7.71605  -1.62679  -1.58572  -1.24159
 Alpha  occ. eigenvalues --   -1.02006  -0.96413  -0.82201  -0.77213  -0.73918
 Alpha  occ. eigenvalues --   -0.71392  -0.68994  -0.64848  -0.63532  -0.62752
 Alpha  occ. eigenvalues --   -0.62187  -0.61744  -0.58170  -0.56226  -0.53227
 Alpha  occ. eigenvalues --   -0.44254  -0.44049
 Alpha virt. eigenvalues --    0.03158   0.04263   0.04307   0.05146   0.05686
 Alpha virt. eigenvalues --    0.05973   0.06409   0.06575   0.07677   0.07864
 Alpha virt. eigenvalues --    0.09798   0.13082   0.13700   0.15334   0.15634

 Mulliken charges:
               1
     1  F   -0.745129
     2  F   -0.644656
     3  B    1.527695
     4  C   -0.685916
     5  N    0.567626
     6  C   -0.382889
     7  H    0.145168
     8  H    0.103159
     9  H    0.145176
    10  C   -0.489550
    11  H   -0.063137
    12  H    0.261339
    13  H    0.261113
 Sum of Mulliken charges =   0.00000

 Dipole moment (field-independent basis, Debye):
    X=              2.1026    Y=              2.4271    Z=             -0.0043  Tot=              3.2112

 Test job not archived.
 1\1\GINC-SE462\SP\RHF\Aug-CC-pVDZ\C3H6B1F2N1\OHZDE\09-Apr-2025\0\\#t h
 f aug-cc-pvdz iop(5/13=1,5/36=2,99/5=2) pseudo=read geom=check guess=(
 read,tcheck) scf=(maxcycle=1)\\title\\0,1\F,0,-1.618813,-1.448692,0.00
 0502\F,0,-2.164195,0.73937,0.00077\B,0,-1.213643,-0.193745,-0.000935\C
 ,0,0.302274,0.216363,-0.000454\N,0,1.121396,-0.76824,-0.00039\C,0,2.55
 5738,-0.554316,-0.000031\H,0,2.973553,-1.062714,0.874864\H,0,2.889795,
 0.488957,0.000174\H,0,2.973964,-1.062502,-0.874853\C,0,0.666449,1.6943
 15,-0.00017\H,0,-0.233022,2.309199,-0.00033\H,0,1.25746,1.959707,-0.88

 Normal termination of Gaussian 16 at Wed Apr  9 00:33:15 2025.
