 Gaussian 16, Revision C.01,

 ----------------------------------------------------------------------
 #t hf aug-cc-pvdz symm=none int=(grid=ultrafine) guess=(read,tcheck) s
 table=(opt,rrhf)
 ----------------------------------------------------------------------
 -----
 title
 -----
 Symbolic Z-matrix:
 Charge =  0 Multiplicity = 1

 SCF Done:  E(RHF) =  -275.523664089     A.U. after   13 cycles
 Normal termination of Gaussian 16 at Wed Apr  9 00:38:32 2025.
 Gaussian 16:  ES64L-G16RevC.01  3-Jul-2019

 ----------------------------------------------------------------------
 #t hf aug-cc-pvdz iop(5/13=1,5/36=2,99/5=2) pseudo=read geom=check gue
 ss=(read,tcheck) scf=(maxcycle=1)
 ----------------------------------------------------------------------
 -----
 title
 -----
 Structure from the checkpoint file:  "BDE49_nonexpt_576_mol1.chk"
 Charge =  0 Multiplicity = 1

                         Standard orientation:
 ---------------------------------------------------------------------
 Center     Atomic      Atomic             Coordinates (Angstroms)
 Number     Number       Type             X           Y           Z
 ---------------------------------------------------------------------
      1          5           0       -2.961551   -0.000039    0.343379
      2          6           0       -0.410974   -0.000026    0.212713
      3          6           0        0.454081    1.202243   -0.209081
      4          6           0        0.454091   -1.202181   -0.209354
      5          6           0        1.897177   -0.780969    0.137923
      6          1           0        0.345949   -1.347337   -1.291320
      7          1           0        0.142944   -2.130751    0.273985
      8          6           0        1.897278    0.780902    0.137701
      9          1           0        2.619274   -1.192550   -0.570140
     10          1           0        2.176887   -1.158677    1.124704
     11          1           0        2.177566    1.158880    1.124210
     12          1           0        2.619074    1.192146   -0.570865
     13          1           0        0.143059    2.130643    0.274663
     14          1           0        0.345693    1.347815   -1.290964
     15          7           0       -1.756212    0.000049   -0.344805
     16          1           0       -0.522791   -0.000165    1.301333
     17          1           0       -2.950054   -0.000193    1.537238
     18          1           0       -3.980218    0.000043   -0.277765
     19          1           0       -1.766064    0.000184   -1.357758
 ---------------------------------------------------------------------

 SCF Done:  E(RHF) =  -275.824190970     A.U. after    2 cycles

 The electronic state is 1-A.
 Alpha  occ. eigenvalues --  -15.49321 -11.26407 -11.22939 -11.22931 -11.22773
 Alpha  occ. eigenvalues --  -11.22732  -7.57132  -1.20353  -1.10286  -0.96832
 Alpha  occ. eigenvalues --   -0.94916  -0.80402  -0.78504  -0.75968  -0.68357
 Alpha  occ. eigenvalues --   -0.65790  -0.58757  -0.58745  -0.58437  -0.53824
 Alpha  occ. eigenvalues --   -0.52780  -0.49307  -0.48393  -0.47816  -0.46507
 Alpha  occ. eigenvalues --   -0.46137  -0.41438
 Alpha virt. eigenvalues --    0.03199   0.03816   0.03919   0.04207   0.05210
 Alpha virt. eigenvalues --    0.05392   0.05505   0.06039   0.06079   0.08327
 Alpha virt. eigenvalues --    0.08578   0.09054   0.09400   0.11741   0.12827

 Mulliken charges:
               1
     1  B   -0.671208
     2  C   -1.374405
     3  C   -0.015998
     4  C   -0.015722
     5  C   -0.172130
     6  H    0.139652
     7  H    0.100831
     8  C   -0.171977
     9  H    0.116407
    10  H    0.122310
    11  H    0.122422
    12  H    0.116534
    13  H    0.100755
    14  H    0.139620
    15  N    0.857354
    16  H   -0.006978
    17  H    0.179453
    18  H    0.304947
    19  H    0.128134
 Sum of Mulliken charges =  -0.00000

 Dipole moment (field-independent basis, Debye):
    X=              1.6684    Y=              0.0001    Z=             -0.6514  Tot=              1.7911

 Test job not archived.
 1\1\GINC-SE435\SP\RHF\Aug-CC-pVDZ\C5H12B1N1\OHZDE\09-Apr-2025\0\\#t hf
  aug-cc-pvdz iop(5/13=1,5/36=2,99/5=2) pseudo=read geom=check guess=(r
 ead,tcheck) scf=(maxcycle=1)\\title\\0,1\B,0,-2.961551,-0.000039,0.343
 379\C,0,-0.410974,-0.000026,0.212713\C,0,0.454081,1.202243,-0.209081\C
 ,0,0.454091,-1.202181,-0.209354\C,0,1.897177,-0.780969,0.137923\H,0,0.
 345949,-1.347337,-1.29132\H,0,0.142944,-2.130751,0.273985\C,0,1.897278
 ,0.780902,0.137701\H,0,2.619274,-1.19255,-0.57014\H,0,2.176887,-1.1586
 77,1.124704\H,0,2.177566,1.15888,1.12421\H,0,2.619074,1.192146,-0.5708

 Normal termination of Gaussian 16 at Wed Apr  9 00:38:39 2025.
