 Gaussian 16, Revision C.01,

 ----------------------------------------------------------------------
 #t hf aug-cc-pvdz symm=none int=(grid=ultrafine) guess=(read,tcheck) s
 table=(opt,rrhf)
 ----------------------------------------------------------------------
 -----
 title
 -----
 Symbolic Z-matrix:
 Charge =  0 Multiplicity = 1

 SCF Done:  E(RHF) =  -614.977864878     A.U. after   12 cycles
 Normal termination of Gaussian 16 at Tue Apr  8 22:57:38 2025.
 Gaussian 16:  ES64L-G16RevC.01  3-Jul-2019

 ----------------------------------------------------------------------
 #t hf aug-cc-pvdz iop(5/13=1,5/36=2,99/5=2) pseudo=read geom=check gue
 ss=(read,tcheck) scf=(maxcycle=1)
 ----------------------------------------------------------------------
 -----
 title
 -----
 Structure from the checkpoint file:  "BDE49_expt_1931_mol1.chk"
 Charge =  0 Multiplicity = 1

                         Standard orientation:
 ---------------------------------------------------------------------
 Center     Atomic      Atomic             Coordinates (Angstroms)
 Number     Number       Type             X           Y           Z
 ---------------------------------------------------------------------
      1         14           0        0.013735    0.001133    0.001238
      2          9           0       -0.144656   -0.937254    1.280498
      3          8           0        0.025367    1.579090    0.380374
      4          8           0       -1.274966   -0.255934   -0.963738
      5          8           0        1.451927   -0.406684   -0.628598
      6          1           0       -0.818495    2.026793    0.475412
      7          1           0       -1.572300   -1.157663   -1.105637
      8          1           0        1.881781    0.218508   -1.215896
 ---------------------------------------------------------------------

 SCF Done:  E(RHF) =  -615.323401656     A.U. after    2 cycles

 The electronic state is 1-A.
 Alpha  occ. eigenvalues --  -69.64493 -26.45405 -20.56692 -20.56685 -20.56357
 Alpha  occ. eigenvalues --   -6.30265  -4.05750  -4.05688  -4.05675  -1.57417
 Alpha  occ. eigenvalues --   -1.47831  -1.44907  -1.44632  -0.81290  -0.74123
 Alpha  occ. eigenvalues --   -0.73090  -0.69857  -0.64796  -0.62818  -0.58886
 Alpha  occ. eigenvalues --   -0.56839  -0.56392  -0.54073  -0.52413  -0.50580
 Alpha virt. eigenvalues --    0.03155   0.04909   0.05045   0.06448   0.07818
 Alpha virt. eigenvalues --    0.08238   0.11802   0.17553   0.18417   0.18895
 Alpha virt. eigenvalues --    0.20085   0.20382   0.22168   0.23935   0.24794

 Mulliken charges:
               1
     1  Si   3.791841
     2  F   -0.873471
     3  O   -1.364950
     4  O   -1.348103
     5  O   -1.407993
     6  H    0.408725
     7  H    0.386584
     8  H    0.407367
 Sum of Mulliken charges =  -0.00000

 Dipole moment (field-independent basis, Debye):
    X=             -1.0827    Y=              0.6735    Z=             -1.5847  Tot=              2.0340

 Test job not archived.
 1\1\GINC-SE455\SP\RHF\Aug-CC-pVDZ\F1H3O3Si1\OHZDE\08-Apr-2025\0\\#t hf
  aug-cc-pvdz iop(5/13=1,5/36=2,99/5=2) pseudo=read geom=check guess=(r
 ead,tcheck) scf=(maxcycle=1)\\title\\0,1\Si,0,0.013735,0.001133,0.0012
 38\F,0,-0.144661,-0.937253,1.280498\O,0,0.025376,1.57909,0.380374\O,0,
 -1.274967,-0.255927,-0.963738\O,0,1.451925,-0.406692,-0.628598\H,0,-0.
 818484,2.026797,0.475412\H,0,-1.572306,-1.157655,-1.105637\H,0,1.88178
 2,0.218498,-1.215896\\Version=ES64L-G16RevC.01\State=1-A\HF=-615.32340
 17\RMSD=5.901e-03\Dipole=-0.4259521,0.2649593,-0.6234785\Quadrupole=0.

 Normal termination of Gaussian 16 at Tue Apr  8 22:57:41 2025.
