 Gaussian 16, Revision C.01,

 ----------------------------------------------------------------------
 #t hf aug-cc-pvdz symm=none int=(grid=ultrafine) guess=(read,tcheck) s
 table=opt
 ----------------------------------------------------------------------
 -----
 title
 -----
 Symbolic Z-matrix:
 Charge =  0 Multiplicity = 2

 SCF Done:  E(UHF) =  -341.874205098     A.U. after   13 cycles
 Normal termination of Gaussian 16 at Tue Apr  8 22:58:34 2025.
 Gaussian 16:  ES64L-G16RevC.01  3-Jul-2019

 ----------------------------------------------------------------------
 #t hf aug-cc-pvdz iop(5/13=1,5/36=2,99/5=2) pseudo=read geom=check gue
 ss=(read,tcheck) scf=(maxcycle=1)
 ----------------------------------------------------------------------
 -----
 title
 -----
 Structure from the checkpoint file:  "BDE49_expt_1947_mol2.chk"
 Charge =  0 Multiplicity = 2

                         Standard orientation:
 ---------------------------------------------------------------------
 Center     Atomic      Atomic             Coordinates (Angstroms)
 Number     Number       Type             X           Y           Z
 ---------------------------------------------------------------------
      1         15           0        0.000000   -0.000000    0.116504
      2          1           0        0.000000    1.022781   -0.873781
      3          1           0       -0.000000   -1.022781   -0.873781
 ---------------------------------------------------------------------

 SCF Done:  E(UHF) =  -341.915271984     A.U. after    2 cycles

 The electronic state is 2-B1.
 Alpha  occ. eigenvalues --  -84.28898  -6.76096  -4.28440  -4.27796  -4.27340
 Alpha  occ. eigenvalues --   -0.86706  -0.50838  -0.40927  -0.34526
 Alpha virt. eigenvalues --    0.03835   0.07017   0.09934   0.09975   0.10439
 Alpha virt. eigenvalues --    0.16796   0.21170   0.21511   0.25863   0.26336
 Alpha virt. eigenvalues --    0.26358   0.39832   0.40040   0.47611   0.48030

  Beta  occ. eigenvalues --  -84.28220  -6.75237  -4.27256  -4.26938  -4.25114
  Beta  occ. eigenvalues --   -0.79792  -0.50349  -0.38610
  Beta virt. eigenvalues --    0.02744   0.04010   0.07060   0.10054   0.10225
  Beta virt. eigenvalues --    0.15007   0.17614   0.21957   0.24678   0.26923
  Beta virt. eigenvalues --    0.29445   0.29864   0.40280   0.41738   0.47576

 Mulliken charges and spin densities:
               1          2
     1  P   -0.306536   1.325956
     2  H    0.153268  -0.162978
     3  H    0.153268  -0.162978
 Sum of Mulliken charges =  -0.00000   1.00000

 Dipole moment (field-independent basis, Debye):
    X=             -0.0000    Y=              0.0000    Z=             -0.3534  Tot=              0.3534
                          Isotropic Fermi Contact Couplings
        Atom                 a.u.       MegaHertz       Gauss      10(-4) cm-1
     1  P(31)              0.18645     337.67039     120.48919     112.63472
     2  H(1)              -0.01478     -66.08716     -23.58154     -22.04430
     3  H(1)              -0.01478     -66.08716     -23.58154     -22.04430
 --------------------------------------------------------
       Center         ----  Spin Dipole Couplings  ----
                      3XX-RR        3YY-RR        3ZZ-RR
 --------------------------------------------------------
     1   Atom        3.465660     -1.609499     -1.856161

 Normal termination of Gaussian 16 at Tue Apr  8 22:58:35 2025.
