 Gaussian 16, Revision C.01,

 ----------------------------------------------------------------------
 #t hf aug-cc-pvdz symm=none int=(grid=ultrafine) guess=(read,tcheck) s
 table=(opt,rrhf)
 ----------------------------------------------------------------------
 -----
 title
 -----
 Symbolic Z-matrix:
 Charge =  0 Multiplicity = 1

 SCF Done:  E(RHF) =  -549.596421368     A.U. after   11 cycles
 Normal termination of Gaussian 16 at Tue Apr  8 22:50:36 2025.
 Gaussian 16:  ES64L-G16RevC.01  3-Jul-2019

 ----------------------------------------------------------------------
 #t hf aug-cc-pvdz iop(5/13=1,5/36=2,99/5=2) pseudo=read geom=check gue
 ss=(read,tcheck) scf=(maxcycle=1)
 ----------------------------------------------------------------------
 -----
 title
 -----
 Structure from the checkpoint file:  "BDE49_expt_173_mol1.chk"
 Charge =  0 Multiplicity = 1

                         Standard orientation:
 ---------------------------------------------------------------------
 Center     Atomic      Atomic             Coordinates (Angstroms)
 Number     Number       Type             X           Y           Z
 ---------------------------------------------------------------------
      1          6           0       -0.972786   -0.000044   -0.226352
      2          8           0       -0.026048   -0.000194    0.794044
      3          9           0       -1.753183    1.088911   -0.074500
      4          9           0       -1.753584   -1.088688   -0.074376
      5          1           0       -0.529865   -0.000178   -1.221185
      6          6           0        1.290617   -0.000081    0.415675
      7          9           0        1.582775    1.088566   -0.346629
      8          9           0        1.582866   -1.088492   -0.346936
      9          1           0        1.901404   -0.000184    1.314861
 ---------------------------------------------------------------------

 SCF Done:  E(RHF) =  -550.105960615     A.U. after    2 cycles

 The electronic state is 1-A.
 Alpha  occ. eigenvalues --  -26.51249 -26.51246 -26.50194 -26.50191 -20.63175
 Alpha  occ. eigenvalues --  -11.50846 -11.50093  -1.70515  -1.68075  -1.61329
 Alpha  occ. eigenvalues --   -1.60580  -1.54676  -1.03023  -0.93556  -0.85275
 Alpha  occ. eigenvalues --   -0.83248  -0.80839  -0.78010  -0.77405  -0.72119
 Alpha  occ. eigenvalues --   -0.67787  -0.66491  -0.65862  -0.63527  -0.63086
 Alpha  occ. eigenvalues --   -0.62520  -0.59762  -0.55618  -0.55232
 Alpha virt. eigenvalues --    0.03503   0.04624   0.08353   0.08586   0.10816
 Alpha virt. eigenvalues --    0.11169   0.11601   0.14343   0.16652   0.18611
 Alpha virt. eigenvalues --    0.20657   0.20966   0.26784   0.27031   0.27271

 Mulliken charges:
               1
     1  C    1.969443
     2  O   -1.332626
     3  F   -0.671763
     4  F   -0.671764
     5  H   -0.015852
     6  C    2.013270
     7  F   -0.679823
     8  F   -0.679861
     9  H    0.068977
 Sum of Mulliken charges =  -0.00000

 Dipole moment (field-independent basis, Debye):
    X=              1.5835    Y=             -0.0004    Z=              0.1096  Tot=              1.5873

 Test job not archived.
 1\1\GINC-SE340\SP\RHF\Aug-CC-pVDZ\C2H2F4O1\OHZDE\08-Apr-2025\0\\#t hf
 aug-cc-pvdz iop(5/13=1,5/36=2,99/5=2) pseudo=read geom=check guess=(re
 ad,tcheck) scf=(maxcycle=1)\\title\\0,1\C,0,-0.972786,-0.000044,-0.226
 352\O,0,-0.026048,-0.000194,0.794044\F,0,-1.753183,1.088911,-0.0745\F,
 0,-1.753584,-1.088688,-0.074376\H,0,-0.529865,-0.000178,-1.221185\C,0,
 1.290617,-0.000081,0.415675\F,0,1.582775,1.088566,-0.346629\F,0,1.5828
 66,-1.088492,-0.346936\H,0,1.901404,-0.000184,1.314861\\Version=ES64L-
 G16RevC.01\State=1-A\HF=-550.1059606\RMSD=4.855e-03\Dipole=0.6230135,-

 Normal termination of Gaussian 16 at Tue Apr  8 22:50:39 2025.
