 Gaussian 16, Revision C.01,

 ----------------------------------------------------------------------
 #t hf aug-cc-pvdz symm=none int=(grid=ultrafine) guess=(read,tcheck) s
 table=(opt,rrhf)
 ----------------------------------------------------------------------
 -----
 title
 -----
 Symbolic Z-matrix:
 Charge =  0 Multiplicity = 1

 SCF Done:  E(RHF) =  -1059.93357062     A.U. after   15 cycles
 Normal termination of Gaussian 16 at Tue Apr  8 23:43:32 2025.
 Gaussian 16:  ES64L-G16RevC.01  3-Jul-2019

 ----------------------------------------------------------------------
 #t hf aug-cc-pvdz iop(5/13=1,5/36=2,99/5=2) pseudo=read geom=check gue
 ss=(read,tcheck) scf=(maxcycle=1)
 ----------------------------------------------------------------------
 -----
 title
 -----
 Structure from the checkpoint file:  "BDE49_nonexpt_1675_mol1.chk"
 Charge =  0 Multiplicity = 1

                         Standard orientation:
 ---------------------------------------------------------------------
 Center     Atomic      Atomic             Coordinates (Angstroms)
 Number     Number       Type             X           Y           Z
 ---------------------------------------------------------------------
      1          6           0       -0.987907   -0.399527    0.286221
      2         15           0        2.235248    0.142859   -0.740386
      3          9           0        1.996385    1.597747   -0.024680
      4          9           0        3.593135   -0.300796    0.050719
      5          6           0       -1.354587    0.931984    0.549704
      6          6           0       -1.950462   -1.256377   -0.271543
      7          6           0       -2.640808    1.385661    0.272446
      8          6           0       -3.584414    0.518838   -0.276993
      9          6           0       -3.237885   -0.802382   -0.549702
     10          1           0       -3.969147   -1.479548   -0.976813
     11          1           0       -1.695449   -2.288971   -0.486542
     12          1           0       -2.906905    2.415307    0.483656
     13          1           0       -4.586439    0.872932   -0.491951
     14          1           0       -0.630290    1.621220    0.971140
     15         14           0        0.747481   -1.002741    0.639429
     16          1           0        0.852599   -2.447694    0.325605
     17          1           0        1.172881   -0.739502    2.033536
 ---------------------------------------------------------------------

 SCF Done:  E(RHF) =  -1060.42691072     A.U. after    2 cycles

 The electronic state is 1-A.
 Alpha  occ. eigenvalues --  -84.39713 -69.55038 -26.47372 -26.47329 -11.26263
 Alpha  occ. eigenvalues --  -11.26084 -11.26005 -11.25554 -11.25505 -11.24898
 Alpha  occ. eigenvalues --   -6.85427  -6.22200  -4.38126  -4.37433  -4.36464
 Alpha  occ. eigenvalues --   -3.97528  -3.97503  -3.97480  -1.60302  -1.56374
 Alpha  occ. eigenvalues --   -1.16565  -1.03065  -1.03030  -0.87498  -0.84679
 Alpha  occ. eigenvalues --   -0.84321  -0.76032  -0.71099  -0.69623  -0.67832
 Alpha  occ. eigenvalues --   -0.67144  -0.65453  -0.64482  -0.64103  -0.61418
 Alpha  occ. eigenvalues --   -0.61002  -0.57475  -0.53920  -0.51886  -0.51248
 Alpha  occ. eigenvalues --   -0.50168  -0.47798  -0.37257  -0.35931  -0.33571
 Alpha virt. eigenvalues --    0.03031   0.03438   0.03916   0.04796   0.05045
 Alpha virt. eigenvalues --    0.05685   0.06694   0.07373   0.07695   0.08400
 Alpha virt. eigenvalues --    0.08963   0.09301   0.09810   0.11131   0.12312

 Mulliken charges:
               1
     1  C   -0.477949
     2  P    1.185969
     3  F   -0.765750
     4  F   -0.762232
     5  C    0.376426
     6  C    0.055703
     7  C    0.556992
     8  C    0.202571
     9  C    0.518527
    10  H   -0.211726
    11  H   -0.319983
    12  H   -0.208598
    13  H   -0.207296
    14  H   -0.314884
    15  Si   0.621343
    16  H   -0.211844
    17  H   -0.037268
 Sum of Mulliken charges =   0.00000

 Dipole moment (field-independent basis, Debye):
    X=             -2.6957    Y=             -0.7976    Z=             -0.4188  Tot=              2.8422

 Test job not archived.
 1\1\GINC-SE227\SP\RHF\Aug-CC-pVDZ\C6H7F2P1Si1\OHZDE\08-Apr-2025\0\\#t
 hf aug-cc-pvdz iop(5/13=1,5/36=2,99/5=2) pseudo=read geom=check guess=
 (read,tcheck) scf=(maxcycle=1)\\title\\0,1\C,0,-0.987907,-0.399527,0.2
 86221\P,0,2.235248,0.142859,-0.740386\F,0,1.996385,1.597747,-0.02468\F
 ,0,3.593135,-0.300796,0.050719\C,0,-1.354587,0.931984,0.549704\C,0,-1.
 950462,-1.256377,-0.271543\C,0,-2.640808,1.385661,0.272446\C,0,-3.5844
 14,0.518838,-0.276993\C,0,-3.237885,-0.802382,-0.549702\H,0,-3.969147,
 -1.479548,-0.976813\H,0,-1.695449,-2.288971,-0.486542\H,0,-2.906905,2.

 Normal termination of Gaussian 16 at Tue Apr  8 23:43:41 2025.
