 Gaussian 16, Revision C.01,

 ----------------------------------------------------------------------
 #t hf aug-cc-pvdz symm=none int=(grid=ultrafine) guess=(read,tcheck) s
 table=(opt,rrhf)
 ----------------------------------------------------------------------
 -----
 title
 -----
 Symbolic Z-matrix:
 Charge =  0 Multiplicity = 1

 SCF Done:  E(RHF) =  -831.762840635     A.U. after   16 cycles
 Normal termination of Gaussian 16 at Tue Apr  8 23:15:47 2025.
 Gaussian 16:  ES64L-G16RevC.01  3-Jul-2019

 ----------------------------------------------------------------------
 #t hf aug-cc-pvdz iop(5/13=1,5/36=2,99/5=2) pseudo=read geom=check gue
 ss=(read,tcheck) scf=(maxcycle=1)
 ----------------------------------------------------------------------
 -----
 title
 -----
 Structure from the checkpoint file:  "BDE49_expt_859_mol1.chk"
 Charge =  0 Multiplicity = 1

                         Standard orientation:
 ---------------------------------------------------------------------
 Center     Atomic      Atomic             Coordinates (Angstroms)
 Number     Number       Type             X           Y           Z
 ---------------------------------------------------------------------
      1          6           0       -1.118775    0.000389    0.000093
      2          6           0       -0.439441    1.213926    0.000076
      3          6           0        0.947628    1.212676    0.000036
      4          6           0       -0.439072   -1.213765    0.000064
      5          6           0        0.947070   -1.210404    0.000024
      6          6           0        1.652878    0.001634    0.000009
      7          1           0       -1.000882   -2.137296    0.000076
      8          1           0        1.484310   -2.151394    0.000004
      9         16           0        3.424181   -0.081536   -0.000043
     10          1           0        3.648733    1.241907   -0.000043
     11          1           0       -1.001884    2.137170    0.000097
     12          1           0        1.479574    2.156177    0.000025
     13          7           0       -2.592055    0.001136    0.000139
     14          8           0       -3.159183    1.086690   -0.000136
     15          8           0       -3.160077   -1.083773   -0.000146
 ---------------------------------------------------------------------

 SCF Done:  E(RHF) =  -832.247191692     A.U. after    2 cycles

 The electronic state is 1-A.
 Alpha  occ. eigenvalues --  -93.99100 -20.59115 -20.59100 -15.79503 -11.32405
 Alpha  occ. eigenvalues --  -11.31650 -11.29180 -11.29115 -11.28091 -11.27917
 Alpha  occ. eigenvalues --   -8.27217  -6.25071  -6.24917  -6.24683  -1.67041
 Alpha  occ. eigenvalues --   -1.50727  -1.21715  -1.13903  -1.06457  -1.05622
 Alpha  occ. eigenvalues --   -0.95554  -0.88853  -0.84381  -0.80741  -0.75304
 Alpha  occ. eigenvalues --   -0.74711  -0.70205  -0.68770  -0.66627  -0.64538
 Alpha  occ. eigenvalues --   -0.58446  -0.56535  -0.55098  -0.51363  -0.50042
 Alpha  occ. eigenvalues --   -0.48852  -0.45838  -0.45294  -0.38824  -0.35102
 Alpha virt. eigenvalues --    0.01900   0.02674   0.03442   0.04014   0.05876
 Alpha virt. eigenvalues --    0.06432   0.07323   0.08501   0.08719   0.09507
 Alpha virt. eigenvalues --    0.11329   0.11929   0.12140   0.12399   0.12986

 Mulliken charges:
               1
     1  C   -0.208719
     2  C    0.263702
     3  C    0.769401
     4  C    0.000619
     5  C   -0.100278
     6  C   -0.076736
     7  H   -0.207281
     8  H   -0.216632
     9  S   -0.037716
    10  H    0.320242
    11  H   -0.208741
    12  H   -0.309559
    13  N    2.958021
    14  O   -1.473106
    15  O   -1.473214
 Sum of Mulliken charges =   0.00000

 Dipole moment (field-independent basis, Debye):
    X=              4.4271    Y=              0.8776    Z=              0.0004  Tot=              4.5133

 Test job not archived.
 1\1\GINC-SE339\SP\RHF\Aug-CC-pVDZ\C6H5N1O2S1\OHZDE\08-Apr-2025\0\\#t h
 f aug-cc-pvdz iop(5/13=1,5/36=2,99/5=2) pseudo=read geom=check guess=(
 read,tcheck) scf=(maxcycle=1)\\title\\0,1\C,0,-1.118775,0.000389,0.000
 093\C,0,-0.439441,1.213926,0.000076\C,0,0.947628,1.212676,0.000036\C,0
 ,-0.439072,-1.213765,0.000064\C,0,0.94707,-1.210404,0.000024\C,0,1.652
 878,0.001634,0.000009\H,0,-1.000882,-2.137296,0.000076\H,0,1.48431,-2.
 151394,0.000004\S,0,3.424181,-0.081536,-0.000043\H,0,3.648733,1.241907
 ,-0.000043\H,0,-1.001884,2.13717,0.000097\H,0,1.479574,2.156177,0.0000

 Normal termination of Gaussian 16 at Tue Apr  8 23:15:54 2025.
