 Gaussian 16, Revision C.01,

 ----------------------------------------------------------------------
 #t hf aug-cc-pvdz symm=none int=(grid=ultrafine) guess=(read,tcheck) s
 table=(opt,rrhf)
 ----------------------------------------------------------------------
 -----
 title
 -----
 Symbolic Z-matrix:
 Charge =  0 Multiplicity = 1

 SCF Done:  E(RHF) =  -900.916064051     A.U. after   12 cycles
 Normal termination of Gaussian 16 at Wed Apr  9 00:17:57 2025.
 Gaussian 16:  ES64L-G16RevC.01  3-Jul-2019

 ----------------------------------------------------------------------
 #t hf aug-cc-pvdz iop(5/13=1,5/36=2,99/5=2) pseudo=read geom=check gue
 ss=(read,tcheck) scf=(maxcycle=1)
 ----------------------------------------------------------------------
 -----
 title
 -----
 Structure from the checkpoint file:  "BDE49_nonexpt_255_mol1.chk"
 Charge =  0 Multiplicity = 1

                         Standard orientation:
 ---------------------------------------------------------------------
 Center     Atomic      Atomic             Coordinates (Angstroms)
 Number     Number       Type             X           Y           Z
 ---------------------------------------------------------------------
      1          6           0       -0.820053    1.603110    0.489841
      2          8           0       -1.715501    1.186725   -0.501293
      3          6           0       -2.431549    0.000021   -0.259273
      4          8           0       -1.715607   -1.186761   -0.501208
      5          6           0       -0.820081   -1.603057    0.489893
      6          8           0        0.522562   -1.228929    0.232767
      7          5           0        1.076145   -0.000008    0.108639
      8         17           0        2.829374   -0.000023   -0.251846
      9          8           0        0.522607    1.228921    0.232886
     10          1           0       -3.251015    0.000028   -0.973555
     11          1           0       -2.812809    0.000077    0.774001
     12          1           0       -0.816866   -2.691137    0.477628
     13          1           0       -1.132456   -1.238132    1.477359
     14          1           0       -1.132524    1.238304    1.477319
     15          1           0       -0.816806    2.691189    0.477455
 ---------------------------------------------------------------------

 SCF Done:  E(RHF) =  -901.427751037     A.U. after    2 cycles

 The electronic state is 1-A.
 Alpha  occ. eigenvalues -- -105.54311 -20.58526 -20.58525 -20.57452 -20.57450
 Alpha  occ. eigenvalues --  -11.37645 -11.37645 -11.37040 -10.59303  -7.76207
 Alpha  occ. eigenvalues --   -7.75925  -7.75900  -7.71236  -1.55634  -1.51455
 Alpha  occ. eigenvalues --   -1.49575  -1.45087  -1.06024  -1.01215  -0.95681
 Alpha  occ. eigenvalues --   -0.90035  -0.79601  -0.74364  -0.74357  -0.73634
 Alpha  occ. eigenvalues --   -0.69728  -0.68355  -0.65800  -0.61525  -0.56360
 Alpha  occ. eigenvalues --   -0.56213  -0.54284  -0.51508  -0.51438  -0.49517
 Alpha  occ. eigenvalues --   -0.48019  -0.46408  -0.45512  -0.44972
 Alpha virt. eigenvalues --    0.02622   0.03718   0.03786   0.04698   0.05849
 Alpha virt. eigenvalues --    0.06701   0.06723   0.07613   0.07876   0.10601
 Alpha virt. eigenvalues --    0.11385   0.12690   0.13163   0.13725   0.14001

 Mulliken charges:
               1
     1  C    1.322537
     2  O   -1.244679
     3  C    1.048311
     4  O   -1.244676
     5  C    1.322575
     6  O   -1.124510
     7  B    1.244859
     8  Cl  -0.467024
     9  O   -1.124501
    10  H   -0.048939
    11  H    0.254654
    12  H   -0.084881
    13  H    0.115561
    14  H    0.115576
    15  H   -0.084864
 Sum of Mulliken charges =  -0.00000

 Dipole moment (field-independent basis, Debye):
    X=             -4.3018    Y=              0.0002    Z=              2.9139  Tot=              5.1958

 Test job not archived.
 1\1\GINC-SE102\SP\RHF\Aug-CC-pVDZ\C3H6B1Cl1O4\OHZDE\09-Apr-2025\0\\#t
 hf aug-cc-pvdz iop(5/13=1,5/36=2,99/5=2) pseudo=read geom=check guess=
 (read,tcheck) scf=(maxcycle=1)\\title\\0,1\C,0,-0.820053,1.60311,0.489
 841\O,0,-1.715501,1.186725,-0.501293\C,0,-2.431549,0.000021,-0.259273\
 O,0,-1.715607,-1.186761,-0.501208\C,0,-0.820081,-1.603057,0.489893\O,0
 ,0.522562,-1.228929,0.232767\B,0,1.076145,-0.000008,0.108639\Cl,0,2.82
 9374,-0.000023,-0.251846\O,0,0.522607,1.228921,0.232886\H,0,-3.251015,
 0.000028,-0.973555\H,0,-2.812809,0.000077,0.774001\H,0,-0.816866,-2.69

 Normal termination of Gaussian 16 at Wed Apr  9 00:18:04 2025.
