 Gaussian 16, Revision C.01,

 ----------------------------------------------------------------------
 #t hf aug-cc-pvdz symm=none int=(grid=ultrafine) guess=(read,tcheck) s
 table=(opt,rrhf)
 ----------------------------------------------------------------------
 -----
 title
 -----
 Symbolic Z-matrix:
 Charge =  0 Multiplicity = 1

 SCF Done:  E(RHF) =  -779.756418788     A.U. after   16 cycles
 Normal termination of Gaussian 16 at Tue Apr  8 23:38:45 2025.
 Gaussian 16:  ES64L-G16RevC.01  3-Jul-2019

 ----------------------------------------------------------------------
 #t hf aug-cc-pvdz iop(5/13=1,5/36=2,99/5=2) pseudo=read geom=check gue
 ss=(read,tcheck) scf=(maxcycle=1)
 ----------------------------------------------------------------------
 -----
 title
 -----
 Structure from the checkpoint file:  "BDE49_nonexpt_1503_mol1.chk"
 Charge =  0 Multiplicity = 1

                         Standard orientation:
 ---------------------------------------------------------------------
 Center     Atomic      Atomic             Coordinates (Angstroms)
 Number     Number       Type             X           Y           Z
 ---------------------------------------------------------------------
      1          6           0        1.811378   -1.614712   -0.082659
      2          6           0        3.170310   -1.415625   -0.033549
      3          6           0        3.697707   -0.106283    0.049084
      4          6           0        2.854459    0.978805    0.080577
      5          6           0        1.447981    0.807029    0.031157
      6          6           0        0.913185   -0.516360   -0.051835
      7          1           0        1.405356   -2.618927   -0.147071
      8          1           0        3.845159   -2.263969   -0.058603
      9          1           0        4.771653    0.037660    0.086950
     10          1           0        3.256755    1.984740    0.143456
     11          6           0       -0.495552   -0.690890   -0.099993
     12          6           0       -1.352463    0.385947   -0.061660
     13          6           0        0.543370    1.902169    0.060752
     14          6           0       -0.811387    1.700031    0.012417
     15          1           0        0.942916    2.909282    0.124219
     16          1           0       -1.481134    2.554717    0.038437
     17          7           0       -3.415146   -1.410716    0.284180
     18          1           0       -0.900536   -1.695226   -0.163032
     19         15           0       -3.175592    0.197635   -0.233706
     20          1           0       -3.492017    0.960638    0.928825
     21          1           0       -4.215299   -1.876954   -0.114954
     22          1           0       -3.266883   -1.662143    1.252371
 ---------------------------------------------------------------------

 SCF Done:  E(RHF) =  -780.251096587     A.U. after    2 cycles

 The electronic state is 1-A.
 Alpha  occ. eigenvalues --  -84.29467 -15.49983 -11.24945 -11.24871 -11.24668
 Alpha  occ. eigenvalues --  -11.24598 -11.24556 -11.24488 -11.24447 -11.24355
 Alpha  occ. eigenvalues --  -11.24345 -11.24136  -6.76154  -4.29128  -4.28910
 Alpha  occ. eigenvalues --   -4.27916  -1.18164  -1.16876  -1.11210  -1.05128
 Alpha  occ. eigenvalues --   -1.01367  -0.98483  -0.88232  -0.85358  -0.82288
 Alpha  occ. eigenvalues --   -0.80651  -0.71530  -0.71153  -0.70480  -0.67781
 Alpha  occ. eigenvalues --   -0.63378  -0.62040  -0.60961  -0.59390  -0.58171
 Alpha  occ. eigenvalues --   -0.55912  -0.54329  -0.52833  -0.49927  -0.48470
 Alpha  occ. eigenvalues --   -0.46615  -0.43424  -0.39683  -0.36096  -0.31407
 Alpha  occ. eigenvalues --   -0.29136
 Alpha virt. eigenvalues --    0.03041   0.03470   0.03568   0.04345   0.05065
 Alpha virt. eigenvalues --    0.05850   0.06469   0.07049   0.07148   0.07763
 Alpha virt. eigenvalues --    0.08491   0.09067   0.10060   0.10109   0.10997

 Mulliken charges:
               1
     1  C   -0.104249
     2  C   -0.322071
     3  C   -0.244486
     4  C    0.185429
     5  C    0.957907
     6  C    2.176384
     7  H   -0.321968
     8  H   -0.238504
     9  H   -0.241038
    10  H   -0.307530
    11  C   -0.162435
    12  C    0.002420
    13  C    0.190372
    14  C   -1.010704
    15  H   -0.341531
    16  H   -0.314025
    17  N    0.105231
    18  H   -0.338317
    19  P    0.079486
    20  H    0.306194
    21  H   -0.002870
    22  H   -0.053694
 Sum of Mulliken charges =   0.00000

 Dipole moment (field-independent basis, Debye):
    X=             -0.3766    Y=             -0.4797    Z=              1.0878  Tot=              1.2471

 Test job not archived.
 1\1\GINC-SE461\SP\RHF\Aug-CC-pVDZ\C10H10N1P1\OHZDE\08-Apr-2025\0\\#t h
 f aug-cc-pvdz iop(5/13=1,5/36=2,99/5=2) pseudo=read geom=check guess=(
 read,tcheck) scf=(maxcycle=1)\\title\\0,1\C,0,1.811378,-1.614712,-0.08
 2659\C,0,3.17031,-1.415625,-0.033549\C,0,3.697707,-0.106283,0.049084\C
 ,0,2.854459,0.978805,0.080577\C,0,1.447981,0.807029,0.031157\C,0,0.913
 185,-0.51636,-0.051835\H,0,1.405356,-2.618927,-0.147071\H,0,3.845159,-
 2.263969,-0.058603\H,0,4.771653,0.03766,0.08695\H,0,3.256755,1.98474,0
 .143456\C,0,-0.495552,-0.69089,-0.099993\C,0,-1.352463,0.385947,-0.061

 Normal termination of Gaussian 16 at Tue Apr  8 23:39:02 2025.
