 Gaussian 16, Revision C.01,

 ----------------------------------------------------------------------
 #t hf aug-cc-pvdz symm=none int=(grid=ultrafine) guess=(read,tcheck) s
 table=(opt,rrhf)
 ----------------------------------------------------------------------
 -----
 title
 -----
 Symbolic Z-matrix:
 Charge =  0 Multiplicity = 1

 SCF Done:  E(RHF) =  -765.677052806     A.U. after   14 cycles
 Normal termination of Gaussian 16 at Tue Apr  8 23:53:20 2025.
 Gaussian 16:  ES64L-G16RevC.01  3-Jul-2019

 ----------------------------------------------------------------------
 #t hf aug-cc-pvdz iop(5/13=1,5/36=2,99/5=2) pseudo=read geom=check gue
 ss=(read,tcheck) scf=(maxcycle=1)
 ----------------------------------------------------------------------
 -----
 title
 -----
 Structure from the checkpoint file:  "BDE49_nonexpt_1937_mol1.chk"
 Charge =  0 Multiplicity = 1

                         Standard orientation:
 ---------------------------------------------------------------------
 Center     Atomic      Atomic             Coordinates (Angstroms)
 Number     Number       Type             X           Y           Z
 ---------------------------------------------------------------------
      1         14           0        1.914909   -0.333902    0.033277
      2          6           0        0.470133    0.865233   -0.334265
      3          1           0        3.115409    0.155183   -0.682139
      4          1           0        1.562874   -1.691679   -0.430731
      5          1           0        2.184286   -0.356806    1.488798
      6          6           0       -0.739694    0.508830    0.443322
      7         16           0       -2.027402   -0.324609   -0.094921
      8          1           0       -0.721372    0.824585    1.489880
      9          1           0        0.277820    0.828340   -1.409098
     10          1           0        0.828050    1.864379   -0.058193
 ---------------------------------------------------------------------

 SCF Done:  E(RHF) =  -765.852427224     A.U. after    2 cycles

 The electronic state is 1-A.
 Alpha  occ. eigenvalues --  -93.93234 -69.54912 -11.33496 -11.25556  -8.21465
 Alpha  occ. eigenvalues --   -6.21946  -6.19277  -6.19099  -6.18858  -3.97325
 Alpha  occ. eigenvalues --   -3.97310  -3.97298  -1.11431  -0.97881  -0.79418
 Alpha  occ. eigenvalues --   -0.74130  -0.64916  -0.59245  -0.53658  -0.50988
 Alpha  occ. eigenvalues --   -0.49923  -0.49484  -0.39165  -0.34816
 Alpha virt. eigenvalues --    0.02897   0.03657   0.04169   0.04746   0.05052
 Alpha virt. eigenvalues --    0.06973   0.07423   0.08323   0.08487   0.09078
 Alpha virt. eigenvalues --    0.10601   0.12767   0.14578   0.14915   0.15241

 Mulliken charges:
               1
     1  Si   1.097419
     2  C   -0.741000
     3  H   -0.192525
     4  H   -0.173022
     5  H   -0.191315
     6  C   -0.108290
     7  S    0.063119
     8  H   -0.048330
     9  H    0.123559
    10  H    0.170385
 Sum of Mulliken charges =   0.00000

 Dipole moment (field-independent basis, Debye):
    X=              2.6472    Y=              1.5602    Z=              0.4583  Tot=              3.1067

 Test job not archived.
 1\1\GINC-SE250\SP\RHF\Aug-CC-pVDZ\C2H6S1Si1\OHZDE\08-Apr-2025\0\\#t hf
  aug-cc-pvdz iop(5/13=1,5/36=2,99/5=2) pseudo=read geom=check guess=(r
 ead,tcheck) scf=(maxcycle=1)\\title\\0,1\Si,0,1.914909,-0.333902,0.033
 277\C,0,0.470133,0.865233,-0.334265\H,0,3.115409,0.155183,-0.682139\H,
 0,1.562874,-1.691679,-0.430731\H,0,2.184286,-0.356806,1.488798\C,0,-0.
 739694,0.50883,0.443322\S,0,-2.027402,-0.324609,-0.094921\H,0,-0.72137
 2,0.824585,1.48988\H,0,0.27782,0.82834,-1.409098\H,0,0.82805,1.864379,
 -0.058193\\Version=ES64L-G16RevC.01\State=1-A\HF=-765.8524272\RMSD=6.7

 Normal termination of Gaussian 16 at Tue Apr  8 23:53:23 2025.
