 Gaussian 16, Revision C.01,

 ----------------------------------------------------------------------
 #t hf aug-cc-pvdz symm=none int=(grid=ultrafine) guess=(read,tcheck) s
 table=opt
 ----------------------------------------------------------------------
 -----
 title
 -----
 Symbolic Z-matrix:
 Charge =  0 Multiplicity = 2

 SCF Done:  E(UHF) =  -973.354355603     A.U. after   17 cycles
 Normal termination of Gaussian 16 at Wed Apr  9 00:38:48 2025.
 Gaussian 16:  ES64L-G16RevC.01  3-Jul-2019

 ----------------------------------------------------------------------
 #t hf aug-cc-pvdz iop(5/13=1,5/36=2,99/5=2) pseudo=read geom=check gue
 ss=(read,tcheck) scf=(maxcycle=1)
 ----------------------------------------------------------------------
 -----
 title
 -----
 Structure from the checkpoint file:  "BDE49_nonexpt_606_mol3.chk"
 Charge =  0 Multiplicity = 2

                         Standard orientation:
 ---------------------------------------------------------------------
 Center     Atomic      Atomic             Coordinates (Angstroms)
 Number     Number       Type             X           Y           Z
 ---------------------------------------------------------------------
      1          7           0        0.000000   -0.000000    0.814373
      2         17           0        0.000000    1.420630   -0.167665
      3         17           0       -0.000000   -1.420630   -0.167665
 ---------------------------------------------------------------------

 SCF Done:  E(UHF) =  -973.552603494     A.U. after    2 cycles

 The electronic state is 2-B1.
 Alpha  occ. eigenvalues -- -105.62721-105.62720 -15.69198 -10.67388 -10.67357
 Alpha  occ. eigenvalues --   -7.84054  -7.84046  -7.84013  -7.84010  -7.83813
 Alpha  occ. eigenvalues --   -7.83807  -1.32274  -1.09309  -0.95616  -0.72969
 Alpha  occ. eigenvalues --   -0.67891  -0.65714  -0.51937  -0.49101  -0.48461
 Alpha  occ. eigenvalues --   -0.47048
 Alpha virt. eigenvalues --    0.03072   0.07527   0.11639   0.12896   0.13047
 Alpha virt. eigenvalues --    0.13665   0.14806   0.15266   0.17353   0.19618
 Alpha virt. eigenvalues --    0.20789   0.22049   0.30046   0.30778   0.37745

  Beta  occ. eigenvalues -- -105.62749-105.62748 -15.65100 -10.67413 -10.67383
  Beta  occ. eigenvalues --   -7.84584  -7.84578  -7.83820  -7.83812  -7.83649
  Beta  occ. eigenvalues --   -7.83645  -1.23908  -1.09152  -0.89319  -0.65739
  Beta  occ. eigenvalues --   -0.62760  -0.55343  -0.49461  -0.48443  -0.47445
  Beta virt. eigenvalues --    0.02156   0.05044   0.08094   0.11686   0.13075
  Beta virt. eigenvalues --    0.13209   0.13972   0.14843   0.16066   0.18486
  Beta virt. eigenvalues --    0.20983   0.22073   0.22342   0.30503   0.30716

 Mulliken charges and spin densities:
               1          2
     1  N   -0.285599   1.113133
     2  Cl   0.142799  -0.056566
     3  Cl   0.142799  -0.056566
 Sum of Mulliken charges =   0.00000   1.00000

 Dipole moment (field-independent basis, Debye):
    X=             -0.0000    Y=             -0.0000    Z=             -0.8301  Tot=              0.8301
                          Isotropic Fermi Contact Couplings
        Atom                 a.u.       MegaHertz       Gauss      10(-4) cm-1
     1  N(14)              0.31063     100.36489      35.81269      33.47812
     2  Cl(35)             0.03873      16.98000       6.05889       5.66392
     3  Cl(35)             0.03873      16.98000       6.05889       5.66392
 --------------------------------------------------------
       Center         ----  Spin Dipole Couplings  ----
                      3XX-RR        3YY-RR        3ZZ-RR
 --------------------------------------------------------
     1   Atom        2.252762     -1.136736     -1.116026

 Normal termination of Gaussian 16 at Wed Apr  9 00:38:51 2025.
