 Gaussian 16, Revision C.01,

 ----------------------------------------------------------------------
 #t hf aug-cc-pvdz symm=none int=(grid=ultrafine) guess=(read,tcheck) s
 table=(opt,rrhf)
 ----------------------------------------------------------------------
 -----
 title
 -----
 Symbolic Z-matrix:
 Charge =  0 Multiplicity = 1

 SCF Done:  E(RHF) =  -803.546067176     A.U. after   15 cycles
 Normal termination of Gaussian 16 at Tue Apr  8 22:42:17 2025.
 Gaussian 16:  ES64L-G16RevC.01  3-Jul-2019

 ----------------------------------------------------------------------
 #t hf aug-cc-pvdz iop(5/13=1,5/36=2,99/5=2) pseudo=read geom=check gue
 ss=(read,tcheck) scf=(maxcycle=1)
 ----------------------------------------------------------------------
 -----
 title
 -----
 Structure from the checkpoint file:  "BDE49_expt_1401_mol1.chk"
 Charge =  0 Multiplicity = 1

                         Standard orientation:
 ---------------------------------------------------------------------
 Center     Atomic      Atomic             Coordinates (Angstroms)
 Number     Number       Type             X           Y           Z
 ---------------------------------------------------------------------
      1          6           0        1.361789    1.344779   -0.000001
      2          6           0        1.146528   -0.024893   -0.000001
      3          6           0       -0.132703   -0.578530    0.000000
      4          6           0        0.245686    2.184911    0.000000
      5          6           0       -1.040379    1.668573    0.000000
      6          6           0       -1.234871    0.280754    0.000000
      7          1           0        2.367240    1.742850   -0.000001
      8         17           0        2.527954   -1.113900   -0.000001
      9          1           0       -0.245836   -1.652392    0.000000
     10          1           0        0.390134    3.259152   -0.000001
     11          1           0       -1.911347    2.311596    0.000000
     12          8           0       -2.528859   -0.137778    0.000001
     13          6           0       -2.794256   -1.534510    0.000002
     14          1           0       -3.878635   -1.629598    0.000003
     15          1           0       -2.388328   -2.019787    0.894449
     16          1           0       -2.388330   -2.019788   -0.894444
 ---------------------------------------------------------------------

 SCF Done:  E(RHF) =  -803.973942265     A.U. after    2 cycles

 The electronic state is 1-A.
 Alpha  occ. eigenvalues -- -105.57263 -20.58277 -11.32225 -11.31664 -11.30363
 Alpha  occ. eigenvalues --  -11.26076 -11.25369 -11.24890 -11.24515 -10.62055
 Alpha  occ. eigenvalues --   -7.79019  -7.78624  -7.78607  -1.50757  -1.18239
 Alpha  occ. eigenvalues --   -1.09664  -1.03385  -1.00132  -0.95326  -0.84512
 Alpha  occ. eigenvalues --   -0.82844  -0.73224  -0.69558  -0.68544  -0.66587
 Alpha  occ. eigenvalues --   -0.63810  -0.60374  -0.60087  -0.55912  -0.54996
 Alpha  occ. eigenvalues --   -0.54063  -0.51308  -0.50204  -0.46590  -0.45915
 Alpha  occ. eigenvalues --   -0.35657  -0.32890
 Alpha virt. eigenvalues --    0.03322   0.03614   0.04179   0.05238   0.05250
 Alpha virt. eigenvalues --    0.05862   0.08332   0.09090   0.09433   0.10610
 Alpha virt. eigenvalues --    0.10798   0.12282   0.12328   0.13335   0.13650

 Mulliken charges:
               1
     1  C   -0.019699
     2  C    0.255065
     3  C   -0.084243
     4  C    0.790892
     5  C   -0.334068
     6  C    2.164396
     7  H   -0.174983
     8  Cl  -0.347221
     9  H   -0.330372
    10  H   -0.209551
    11  H   -0.264448
    12  O   -1.880573
    13  C    0.099344
    14  H   -0.039523
    15  H    0.187494
    16  H    0.187491
 Sum of Mulliken charges =  -0.00000

 Dipole moment (field-independent basis, Debye):
    X=             -1.6605    Y=             -0.1269    Z=              0.0000  Tot=              1.6653

 Test job not archived.
 1\1\GINC-SE343\SP\RHF\Aug-CC-pVDZ\C7H7Cl1O1\OHZDE\08-Apr-2025\0\\#t hf
  aug-cc-pvdz iop(5/13=1,5/36=2,99/5=2) pseudo=read geom=check guess=(r
 ead,tcheck) scf=(maxcycle=1)\\title\\0,1\C,0,1.361789,1.344779,-0.0000
 01\C,0,1.146528,-0.024893,-0.000001\C,0,-0.132703,-0.57853,0.\C,0,0.24
 5686,2.184911,0.\C,0,-1.040379,1.668573,0.\C,0,-1.234871,0.280754,0.\H
 ,0,2.36724,1.74285,-0.000001\Cl,0,2.527954,-1.1139,-0.000001\H,0,-0.24
 5836,-1.652392,0.\H,0,0.390134,3.259152,-0.000001\H,0,-1.911347,2.3115
 96,0.\O,0,-2.528859,-0.137778,0.000001\C,0,-2.794256,-1.53451,0.000002

 Normal termination of Gaussian 16 at Tue Apr  8 22:42:24 2025.
