 Gaussian 16, Revision C.01,

 ----------------------------------------------------------------------
 #t hf aug-cc-pvdz symm=none int=(grid=ultrafine) guess=(read,tcheck) s
 table=(opt,rrhf)
 ----------------------------------------------------------------------
 -----
 title
 -----
 Symbolic Z-matrix:
 Charge =  0 Multiplicity = 1

 SCF Done:  E(RHF) =  -483.292589611     A.U. after   12 cycles
 Normal termination of Gaussian 16 at Wed Apr  9 00:02:43 2025.
 Gaussian 16:  ES64L-G16RevC.01  3-Jul-2019

 ----------------------------------------------------------------------
 #t hf aug-cc-pvdz iop(5/13=1,5/36=2,99/5=2) pseudo=read geom=check gue
 ss=(read,tcheck) scf=(maxcycle=1)
 ----------------------------------------------------------------------
 -----
 title
 -----
 Structure from the checkpoint file:  "BDE49_nonexpt_2161_mol1.chk"
 Charge =  0 Multiplicity = 1

                         Standard orientation:
 ---------------------------------------------------------------------
 Center     Atomic      Atomic             Coordinates (Angstroms)
 Number     Number       Type             X           Y           Z
 ---------------------------------------------------------------------
      1         14           0        1.385780   -0.477721    0.144064
      2          8           0        1.854090    1.065507   -0.244403
      3          1           0        2.735256    1.358804   -0.004548
      4          6           0       -0.408937   -0.640022   -0.353509
      5          6           0       -1.366913    0.334896    0.356811
      6          1           0       -0.715106   -1.677352   -0.160818
      7          1           0       -0.472933   -0.505036   -1.440682
      8          6           0       -2.825432    0.177324   -0.085104
      9          1           0       -1.037982    1.362191    0.170485
     10          1           0       -1.298980    0.186062    1.440830
     11          1           0       -2.931941    0.356775   -1.159419
     12          1           0       -3.478321    0.882792    0.437020
     13          1           0       -3.193505   -0.832978    0.119607
     14          1           0        1.553130   -0.719856    1.602348
     15          1           0        2.214427   -1.480558   -0.575687
 ---------------------------------------------------------------------

 SCF Done:  E(RHF) =  -483.536908146     A.U. after    2 cycles

 The electronic state is 1-A.
 Alpha  occ. eigenvalues --  -69.54596 -20.54348 -11.23107 -11.22120 -11.21550
 Alpha  occ. eigenvalues --   -6.21265  -3.96750  -3.96593  -3.96579  -1.42859
 Alpha  occ. eigenvalues --   -1.05588  -0.93031  -0.81053  -0.74543  -0.65468
 Alpha  occ. eigenvalues --   -0.62483  -0.58479  -0.56434  -0.54194  -0.53490
 Alpha  occ. eigenvalues --   -0.51762  -0.48473  -0.47614  -0.44369  -0.43165
 Alpha virt. eigenvalues --    0.03328   0.04031   0.04180   0.04384   0.06189
 Alpha virt. eigenvalues --    0.06299   0.06879   0.07306   0.08973   0.09144
 Alpha virt. eigenvalues --    0.09898   0.10422   0.10975   0.13708   0.14174

 Mulliken charges:
               1
     1  Si   1.758384
     2  O   -1.377381
     3  H    0.419533
     4  C   -0.544303
     5  C   -0.374211
     6  H    0.081475
     7  H    0.124115
     8  C   -0.340307
     9  H    0.112454
    10  H    0.113189
    11  H    0.161559
    12  H    0.121097
    13  H    0.159326
    14  H   -0.197429
    15  H   -0.217501
 Sum of Mulliken charges =   0.00000

 Dipole moment (field-independent basis, Debye):
    X=              0.5019    Y=             -0.1863    Z=              0.3773  Tot=              0.6550

 Test job not archived.
 1\1\GINC-SE252\SP\RHF\Aug-CC-pVDZ\C3H10O1Si1\OHZDE\09-Apr-2025\0\\#t h
 f aug-cc-pvdz iop(5/13=1,5/36=2,99/5=2) pseudo=read geom=check guess=(
 read,tcheck) scf=(maxcycle=1)\\title\\0,1\Si,0,1.38578,-0.477721,0.144
 064\O,0,1.85409,1.065507,-0.244403\H,0,2.735256,1.358803,-0.004548\C,0
 ,-0.408937,-0.640022,-0.353509\C,0,-1.366913,0.334896,0.356811\H,0,-0.
 715107,-1.677352,-0.160818\H,0,-0.472933,-0.505036,-1.440682\C,0,-2.82
 5432,0.177324,-0.085104\H,0,-1.037982,1.362191,0.170485\H,0,-1.29898,0
 .186062,1.44083\H,0,-2.931941,0.356775,-1.159419\H,0,-3.478321,0.88279

 Normal termination of Gaussian 16 at Wed Apr  9 00:02:48 2025.
