 Gaussian 16, Revision C.01,

 ----------------------------------------------------------------------
 #t hf aug-cc-pvdz symm=none int=(grid=ultrafine) guess=(read,tcheck) s
 table=(opt,rrhf)
 ----------------------------------------------------------------------
 -----
 title
 -----
 Symbolic Z-matrix:
 Charge =  0 Multiplicity = 1

 SCF Done:  E(RHF) =  -309.094595889     A.U. after   12 cycles

 1\1\GINC-SE163\Stability\RHF\Aug-CC-pVDZ\C6H12O1\OHZDE\08-Apr-2025\0\\
 #t hf aug-cc-pvdz symm=none int=(grid=ultrafine) guess=(read,tcheck) s
 table=(opt,rrhf)\\title\\0,1\O,0,-0.000001,0.937663,-0.000009\C,0,-1.1
 10195,0.12209,0.420315\C,0,-0.765136,-1.302879,-0.034864\C,0,0.765137,
 -1.30288,0.034864\H,0,-1.101907,-1.458965,-1.065545\H,0,-1.231669,-2.0
 66033,0.591793\C,0,1.110199,0.122089,-0.420317\H,0,1.23167,-2.066035,-
 0.591791\H,0,1.101907,-1.458964,1.065545\C,0,2.399088,0.696291,0.14555
 1\H,0,1.154561,0.151848,-1.51897\H,0,2.377194,0.676683,1.238544\H,0,2.

 Normal termination of Gaussian 16 at Tue Apr  8 23:01:24 2025.
 Gaussian 16:  ES64L-G16RevC.01  3-Jul-2019

 ----------------------------------------------------------------------
 #t hf aug-cc-pvdz iop(5/13=1,5/36=2,99/5=2) pseudo=read geom=check gue
 ss=(read,tcheck) scf=(maxcycle=1)
 ----------------------------------------------------------------------
 -----
 title
 -----
 Structure from the checkpoint file:  "BDE49_expt_198_mol1.chk"
 Charge =  0 Multiplicity = 1

                         Standard orientation:
 ---------------------------------------------------------------------
 Center     Atomic      Atomic             Coordinates (Angstroms)
 Number     Number       Type             X           Y           Z
 ---------------------------------------------------------------------
      1          8           0        0.000001   -0.937663   -0.000009
      2          6           0        1.110195   -0.122090    0.420315
      3          6           0        0.765136    1.302879   -0.034864
      4          6           0       -0.765137    1.302880    0.034864
      5          1           0        1.101907    1.458965   -1.065545
      6          1           0        1.231669    2.066033    0.591793
      7          6           0       -1.110199   -0.122089   -0.420317
      8          1           0       -1.231670    2.066035   -0.591791
      9          1           0       -1.101907    1.458964    1.065545
     10          6           0       -2.399088   -0.696291    0.145551
     11          1           0       -1.154561   -0.151848   -1.518970
     12          1           0       -2.377194   -0.676683    1.238544
     13          1           0       -2.527907   -1.732527   -0.174764
     14          1           0       -3.263539   -0.120288   -0.198946
     15          6           0        2.399091   -0.696289   -0.145542
     16          1           0        1.154547   -0.151852    1.518968
     17          1           0        2.377209   -0.676676   -1.238535
     18          1           0        2.527907   -1.732526    0.174771
     19          1           0        3.263538   -0.120287    0.198967
 ---------------------------------------------------------------------

 SCF Done:  E(RHF) =  -309.428178431     A.U. after    2 cycles

 The electronic state is 1-A.
 Alpha  occ. eigenvalues --  -20.52599 -11.27979 -11.27913 -11.23068 -11.23054
 Alpha  occ. eigenvalues --  -11.22041 -11.22035  -1.44216  -1.06860  -1.05076
 Alpha  occ. eigenvalues --   -0.96512  -0.87812  -0.80449  -0.77153  -0.68706
 Alpha  occ. eigenvalues --   -0.66432  -0.60108  -0.59409  -0.58607  -0.56007
 Alpha  occ. eigenvalues --   -0.54561  -0.52570  -0.50973  -0.49308  -0.47758
 Alpha  occ. eigenvalues --   -0.47733  -0.45656  -0.39580
 Alpha virt. eigenvalues --    0.03562   0.03579   0.03866   0.04339   0.05756
 Alpha virt. eigenvalues --    0.06035   0.06215   0.06596   0.06599   0.08777
 Alpha virt. eigenvalues --    0.09477   0.09847   0.12180   0.12830   0.14150

 Mulliken charges:
               1
     1  O   -1.569909
     2  C    0.497374
     3  C   -0.208425
     4  C   -0.208417
     5  H    0.074855
     6  H    0.141615
     7  C    0.497371
     8  H    0.141615
     9  H    0.074853
    10  C   -0.344339
    11  H    0.068391
    12  H    0.186383
    13  H    0.162826
    14  H    0.206273
    15  C   -0.344341
    16  H    0.068391
    17  H    0.186384
    18  H    0.162826
    19  H    0.206273
 Sum of Mulliken charges =  -0.00000

 Dipole moment (field-independent basis, Debye):
    X=             -0.0000    Y=              1.6410    Z=              0.0000  Tot=              1.6410

 Test job not archived.
 1\1\GINC-SE163\SP\RHF\Aug-CC-pVDZ\C6H12O1\OHZDE\08-Apr-2025\0\\#t hf a
 ug-cc-pvdz iop(5/13=1,5/36=2,99/5=2) pseudo=read geom=check guess=(rea
 d,tcheck) scf=(maxcycle=1)\\title\\0,1\O,0,-0.000001,0.937663,-0.00000
 9\C,0,-1.110195,0.12209,0.420315\C,0,-0.765136,-1.302879,-0.034864\C,0
 ,0.765137,-1.30288,0.034864\H,0,-1.101907,-1.458965,-1.065545\H,0,-1.2
 31669,-2.066033,0.591793\C,0,1.110199,0.122089,-0.420317\H,0,1.23167,-
 2.066035,-0.591791\H,0,1.101907,-1.458964,1.065545\C,0,2.399088,0.6962
 91,0.145551\H,0,1.154561,0.151848,-1.51897\H,0,2.377194,0.676683,1.238

 Normal termination of Gaussian 16 at Tue Apr  8 23:01:32 2025.
