 Gaussian 16, Revision C.01,

 ----------------------------------------------------------------------
 #t hf aug-cc-pvdz symm=none int=(grid=ultrafine) guess=(read,tcheck) s
 table=(opt,rrhf)
 ----------------------------------------------------------------------
 -----
 title
 -----
 Symbolic Z-matrix:
 Charge =  0 Multiplicity = 1

 SCF Done:  E(RHF) =  -913.346051709     A.U. after   14 cycles
 Normal termination of Gaussian 16 at Wed Apr  9 00:26:15 2025.
 Gaussian 16:  ES64L-G16RevC.01  3-Jul-2019

 ----------------------------------------------------------------------
 #t hf aug-cc-pvdz iop(5/13=1,5/36=2,99/5=2) pseudo=read geom=check gue
 ss=(read,tcheck) scf=(maxcycle=1)
 ----------------------------------------------------------------------
 -----
 title
 -----
 Structure from the checkpoint file:  "BDE49_nonexpt_2742_mol1.chk"
 Charge =  0 Multiplicity = 1

                         Standard orientation:
 ---------------------------------------------------------------------
 Center     Atomic      Atomic             Coordinates (Angstroms)
 Number     Number       Type             X           Y           Z
 ---------------------------------------------------------------------
      1         16           0       -1.757033    0.012285   -0.596880
      2         16           0       -0.466464   -0.178676    1.034852
      3          6           0        1.241707   -0.040500    0.314408
      4          6           0        1.522617    1.343392   -0.265715
      5          1           0        0.903700    1.526838   -1.148103
      6          1           0        2.570078    1.415825   -0.575584
      7          1           0        1.324976    2.130594    0.464445
      8          6           0        1.558288   -1.173231   -0.659454
      9          1           0        1.830566   -0.174756    1.230634
     10          1           0        0.923914   -1.109332   -1.547138
     11          1           0        1.403919   -2.149716   -0.197146
     12          1           0        2.600726   -1.106406   -0.987397
     13          1           0       -1.917596    1.351246   -0.582694
 ---------------------------------------------------------------------

 SCF Done:  E(RHF) =  -913.600555307     A.U. after    2 cycles

 The electronic state is 1-A.
 Alpha  occ. eigenvalues --  -93.97663 -93.96979 -11.28357 -11.23785 -11.23518
 Alpha  occ. eigenvalues --   -8.25590  -8.24873  -6.23413  -6.23245  -6.23007
 Alpha  occ. eigenvalues --   -6.22684  -6.22448  -6.22240  -1.12149  -1.04485
 Alpha  occ. eigenvalues --   -0.94700  -0.91169  -0.78115  -0.64459  -0.61740
 Alpha  occ. eigenvalues --   -0.59090  -0.57052  -0.55006  -0.51811  -0.51071
 Alpha  occ. eigenvalues --   -0.47888  -0.45747  -0.37584  -0.36625
 Alpha virt. eigenvalues --    0.03525   0.03779   0.04214   0.04743   0.06534
 Alpha virt. eigenvalues --    0.07067   0.07388   0.07867   0.08408   0.10889
 Alpha virt. eigenvalues --    0.12788   0.13613   0.13729   0.15204   0.15616

 Mulliken charges:
               1
     1  S   -0.423635
     2  S    0.035726
     3  C   -0.711412
     4  C   -0.278694
     5  H    0.209142
     6  H    0.156950
     7  H    0.156504
     8  C   -0.300571
     9  H    0.235709
    10  H    0.216572
    11  H    0.151142
    12  H    0.164546
    13  H    0.388022
 Sum of Mulliken charges =  -0.00000

 Dipole moment (field-independent basis, Debye):
    X=              1.8536    Y=              1.0459    Z=             -0.6600  Tot=              2.2283

 Test job not archived.
 1\1\GINC-SE126\SP\RHF\Aug-CC-pVDZ\C3H8S2\OHZDE\09-Apr-2025\0\\#t hf au
 g-cc-pvdz iop(5/13=1,5/36=2,99/5=2) pseudo=read geom=check guess=(read
 ,tcheck) scf=(maxcycle=1)\\title\\0,1\S,0,-1.757033,0.012285,-0.59688\
 S,0,-0.466464,-0.178676,1.034852\C,0,1.241707,-0.0405,0.314408\C,0,1.5
 22617,1.343392,-0.265715\H,0,0.9037,1.526838,-1.148103\H,0,2.570078,1.
 415825,-0.575584\H,0,1.324976,2.130594,0.464445\C,0,1.558288,-1.173231
 ,-0.659454\H,0,1.830566,-0.174756,1.230634\H,0,0.923914,-1.109332,-1.5
 47138\H,0,1.403919,-2.149716,-0.197146\H,0,2.600726,-1.106406,-0.98739

 Normal termination of Gaussian 16 at Wed Apr  9 00:26:20 2025.
