 Gaussian 16, Revision C.01,

 ----------------------------------------------------------------------
 #t hf aug-cc-pvdz symm=none int=(grid=ultrafine) guess=(read,tcheck) s
 table=(opt,rrhf)
 ----------------------------------------------------------------------
 -----
 title
 -----
 Symbolic Z-matrix:
 Charge =  0 Multiplicity = 1

 SCF Done:  E(RHF) =  -1063.08776918     A.U. after   16 cycles
 Normal termination of Gaussian 16 at Tue Apr  8 23:12:46 2025.
 Gaussian 16:  ES64L-G16RevC.01  3-Jul-2019

 ----------------------------------------------------------------------
 #t hf aug-cc-pvdz iop(5/13=1,5/36=2,99/5=2) pseudo=read geom=check gue
 ss=(read,tcheck) scf=(maxcycle=1)
 ----------------------------------------------------------------------
 -----
 title
 -----
 Structure from the checkpoint file:  "BDE49_expt_533_mol1.chk"
 Charge =  0 Multiplicity = 1

                         Standard orientation:
 ---------------------------------------------------------------------
 Center     Atomic      Atomic             Coordinates (Angstroms)
 Number     Number       Type             X           Y           Z
 ---------------------------------------------------------------------
      1          6           0        2.293896    1.228592   -0.033648
      2          6           0        1.558812    0.050016    0.625142
      3          6           0        2.375058   -1.165281    0.176546
      4          7           0        3.380047   -0.700349   -0.662183
      5          7           0        3.457511    0.717675   -0.600260
      6          1           0        3.753612    1.161729   -1.462204
      7          1           0        4.270685   -1.179670   -0.600613
      8          6           0        0.056516    0.008178    0.365339
      9          8           0        2.244966   -2.321607    0.498679
     10          8           0        1.972176    2.389356   -0.087705
     11          1           0        1.724825    0.130192    1.708162
     12          6           0       -0.585449   -1.169413   -0.025438
     13          6           0       -1.962548   -1.193194   -0.234585
     14          6           0       -2.700397   -0.031923   -0.045352
     15          6           0       -2.084225    1.149364    0.353177
     16          6           0       -0.708990    1.163580    0.560384
     17          1           0       -0.225126    2.085880    0.852638
     18          1           0       -2.671573    2.046464    0.499833
     19          1           0       -0.018697   -2.082502   -0.148769
     20          1           0       -2.455431   -2.107791   -0.537593
     21         17           0       -4.437316   -0.056300   -0.306561
 ---------------------------------------------------------------------

 SCF Done:  E(RHF) =  -1063.76333913     A.U. after    2 cycles

 The electronic state is 1-A.
 Alpha  occ. eigenvalues -- -105.57463 -20.55532 -20.55442 -15.59279 -15.58833
 Alpha  occ. eigenvalues --  -11.40035 -11.40010 -11.31621 -11.30306 -11.27915
 Alpha  occ. eigenvalues --  -11.26232 -11.26221 -11.26133 -11.26067 -10.62253
 Alpha  occ. eigenvalues --   -7.79219  -7.78822  -7.78805  -1.50836  -1.50109
 Alpha  occ. eigenvalues --   -1.36959  -1.19477  -1.15743  -1.12984  -1.07651
 Alpha  occ. eigenvalues --   -1.03985  -0.99039  -0.89261  -0.87118  -0.83831
 Alpha  occ. eigenvalues --   -0.82542  -0.80152  -0.74711  -0.71632  -0.69783
 Alpha  occ. eigenvalues --   -0.67853  -0.66559  -0.66229  -0.65048  -0.63487
 Alpha  occ. eigenvalues --   -0.61950  -0.60649  -0.59266  -0.55550  -0.54075
 Alpha  occ. eigenvalues --   -0.53594  -0.50969  -0.48727  -0.47453  -0.46760
 Alpha  occ. eigenvalues --   -0.44195  -0.43452  -0.36493  -0.35026
 Alpha virt. eigenvalues --    0.02302   0.03931   0.04118   0.04440   0.04816
 Alpha virt. eigenvalues --    0.06269   0.06843   0.07784   0.08404   0.08860
 Alpha virt. eigenvalues --    0.09362   0.09613   0.09865   0.10412   0.10887

 Mulliken charges:
               1
     1  C    0.785527
     2  C   -1.459092
     3  C    1.073804
     4  N    0.323908
     5  N    0.334314
     6  H    0.183076
     7  H    0.178344
     8  C    1.416382
     9  O   -1.363432
    10  O   -1.324265
    11  H    0.398531
    12  C    0.389190
    13  C    0.201631
    14  C   -0.292117
    15  C    0.504027
    16  C    0.035496
    17  H   -0.379221
    18  H   -0.194453
    19  H   -0.283122
    20  H   -0.204057
    21  Cl  -0.324470
 Sum of Mulliken charges =  -0.00000

 Dipole moment (field-independent basis, Debye):
    X=              3.1520    Y=              0.1100    Z=             -0.4450  Tot=              3.1852

 Test job not archived.
 1\1\GINC-SE049\SP\RHF\Aug-CC-pVDZ\C9H7Cl1N2O2\OHZDE\08-Apr-2025\0\\#t
 hf aug-cc-pvdz iop(5/13=1,5/36=2,99/5=2) pseudo=read geom=check guess=
 (read,tcheck) scf=(maxcycle=1)\\title\\0,1\C,0,2.293896,1.228592,-0.03
 3648\C,0,1.558812,0.050016,0.625142\C,0,2.375058,-1.165281,0.176546\N,
 0,3.380047,-0.700349,-0.662183\N,0,3.457511,0.717675,-0.60026\H,0,3.75
 3612,1.161729,-1.462204\H,0,4.270685,-1.17967,-0.600613\C,0,0.056516,0
 .008178,0.365339\O,0,2.244966,-2.321607,0.498679\O,0,1.972176,2.389356
 ,-0.087705\H,0,1.724825,0.130192,1.708162\C,0,-0.585449,-1.169413,-0.0

 Normal termination of Gaussian 16 at Tue Apr  8 23:13:05 2025.
