 Gaussian 16, Revision C.01,

 ----------------------------------------------------------------------
 #t hf aug-cc-pvdz symm=none int=(grid=ultrafine) guess=(read,tcheck) s
 table=(opt,rrhf)
 ----------------------------------------------------------------------
 -----
 title
 -----
 Symbolic Z-matrix:
 Charge =  0 Multiplicity = 1

 SCF Done:  E(RHF) =  -626.648523366     A.U. after   14 cycles
 Normal termination of Gaussian 16 at Tue Apr  8 22:54:34 2025.
 Gaussian 16:  ES64L-G16RevC.01  3-Jul-2019

 ----------------------------------------------------------------------
 #t hf aug-cc-pvdz iop(5/13=1,5/36=2,99/5=2) pseudo=read geom=check gue
 ss=(read,tcheck) scf=(maxcycle=1)
 ----------------------------------------------------------------------
 -----
 title
 -----
 Structure from the checkpoint file:  "BDE49_expt_1837_mol1.chk"
 Charge =  0 Multiplicity = 1

                         Standard orientation:
 ---------------------------------------------------------------------
 Center     Atomic      Atomic             Coordinates (Angstroms)
 Number     Number       Type             X           Y           Z
 ---------------------------------------------------------------------
      1          7           0        0.000000    0.697191    0.000000
      2         17           0       -1.433649   -0.264500    0.000000
      3          6           0        1.106867    0.167669    0.000000
      4          8           0        2.216354   -0.173732    0.000000
 ---------------------------------------------------------------------

 SCF Done:  E(RHF) =  -626.882621170     A.U. after    2 cycles

 The electronic state is 1-A'.
 Alpha  occ. eigenvalues -- -105.64231 -20.64657 -15.59147 -11.45269 -10.68560
 Alpha  occ. eigenvalues --   -7.85545  -7.84988  -7.84975  -1.59004  -1.32004
 Alpha  occ. eigenvalues --   -1.08431  -0.79129  -0.73994  -0.70476  -0.69546
 Alpha  occ. eigenvalues --   -0.57233  -0.56709  -0.48293  -0.45237
 Alpha virt. eigenvalues --    0.03156   0.05661   0.09155   0.09261   0.09567
 Alpha virt. eigenvalues --    0.10927   0.13918   0.14101   0.18154   0.18528
 Alpha virt. eigenvalues --    0.20271   0.20771   0.22412   0.25684   0.28305

 Mulliken charges:
               1
     1  N    0.147831
     2  Cl   0.176186
     3  C    0.353015
     4  O   -0.677031
 Sum of Mulliken charges =   0.00000

 Dipole moment (field-independent basis, Debye):
    X=             -0.2490    Y=             -0.8853    Z=              0.0000  Tot=              0.9197

 Test job not archived.
 1\1\GINC-SE096\SP\RHF\Aug-CC-pVDZ\C1Cl1N1O1\OHZDE\08-Apr-2025\0\\#t hf
  aug-cc-pvdz iop(5/13=1,5/36=2,99/5=2) pseudo=read geom=check guess=(r
 ead,tcheck) scf=(maxcycle=1)\\title\\0,1\N,0,0.,0.697191,0.\Cl,0,-1.43
 3649,-0.2645,0.\C,0,1.106867,0.167669,0.\O,0,2.216354,-0.173732,0.\\Ve
 rsion=ES64L-G16RevC.01\State=1-A'\HF=-626.8826212\RMSD=1.259e-02\Dipol
 e=-0.0979634,-0.3483168,0.\Quadrupole=-0.1056249,-0.1948907,0.3005156,
 1.3600591,0.,0.\PG=CS [SG(C1Cl1N1O1)]\\@

 Normal termination of Gaussian 16 at Tue Apr  8 22:54:35 2025.
