 Gaussian 16, Revision C.01,

 ----------------------------------------------------------------------
 #t hf aug-cc-pvdz symm=none int=(grid=ultrafine) guess=(read,tcheck) s
 table=(opt,rrhf)
 ----------------------------------------------------------------------
 -----
 title
 -----
 Symbolic Z-matrix:
 Charge =  0 Multiplicity = 1

 SCF Done:  E(RHF) =  -608.608752237     A.U. after   15 cycles
 Normal termination of Gaussian 16 at Tue Apr  8 23:52:25 2025.
 Gaussian 16:  ES64L-G16RevC.01  3-Jul-2019

 ----------------------------------------------------------------------
 #t hf aug-cc-pvdz iop(5/13=1,5/36=2,99/5=2) pseudo=read geom=check gue
 ss=(read,tcheck) scf=(maxcycle=1)
 ----------------------------------------------------------------------
 -----
 title
 -----
 Structure from the checkpoint file:  "BDE49_nonexpt_1916_mol1.chk"
 Charge =  0 Multiplicity = 1

                         Standard orientation:
 ---------------------------------------------------------------------
 Center     Atomic      Atomic             Coordinates (Angstroms)
 Number     Number       Type             X           Y           Z
 ---------------------------------------------------------------------
      1         14           0       -2.409375   -0.166283   -0.000000
      2          6           0       -0.682686    0.631608    0.000001
      3          1           0       -3.388764    0.944126   -0.000002
      4          1           0       -2.582991   -0.991946    1.212741
      5          1           0       -2.582988   -0.991950   -1.212738
      6          8           0        0.252229   -0.461708    0.000005
      7          7           0        1.638064   -0.054494    0.000007
      8          8           0        1.860506    1.129117   -0.000001
      9          8           0        2.386289   -0.986980   -0.000011
     10          1           0       -0.538268    1.258059    0.884869
     11          1           0       -0.538266    1.258056   -0.884868
 ---------------------------------------------------------------------

 SCF Done:  E(RHF) =  -608.951538289     A.U. after    2 cycles

 The electronic state is 1-A.
 Alpha  occ. eigenvalues --  -69.55236 -20.65745 -20.62368 -20.62232 -15.86046
 Alpha  occ. eigenvalues --  -11.31218  -6.22364  -3.97749  -3.97728  -3.97713
 Alpha  occ. eigenvalues --   -1.73617  -1.56565  -1.51929  -1.03024  -0.91090
 Alpha  occ. eigenvalues --   -0.83264  -0.80652  -0.79224  -0.75428  -0.66470
 Alpha  occ. eigenvalues --   -0.62707  -0.55538  -0.52162  -0.51600  -0.50858
 Alpha  occ. eigenvalues --   -0.50141  -0.48359  -0.48322
 Alpha virt. eigenvalues --    0.03122   0.04036   0.04213   0.05616   0.06374
 Alpha virt. eigenvalues --    0.07647   0.08012   0.08537   0.09293   0.09763
 Alpha virt. eigenvalues --    0.13723   0.14237   0.14812   0.15283   0.15385

 Mulliken charges:
               1
     1  Si   1.041626
     2  C   -0.019021
     3  H   -0.165904
     4  H   -0.202107
     5  H   -0.202107
     6  O   -1.142334
     7  N    2.743161
     8  O   -1.110469
     9  O   -1.128858
    10  H    0.093007
    11  H    0.093006
 Sum of Mulliken charges =  -0.00000

 Dipole moment (field-independent basis, Debye):
    X=             -3.1299    Y=              1.1270    Z=              0.0000  Tot=              3.3266

 Test job not archived.
 1\1\GINC-SE454\SP\RHF\Aug-CC-pVDZ\C1H5N1O3Si1\OHZDE\08-Apr-2025\0\\#t
 hf aug-cc-pvdz iop(5/13=1,5/36=2,99/5=2) pseudo=read geom=check guess=
 (read,tcheck) scf=(maxcycle=1)\\title\\0,1\Si,0,2.409375,-0.166283,0.\
 C,0,0.682686,0.631608,-0.000001\H,0,3.388764,0.944126,0.000002\H,0,2.5
 82991,-0.991946,-1.212741\H,0,2.582988,-0.99195,1.212738\O,0,-0.252229
 ,-0.461708,-0.000005\N,0,-1.638064,-0.054494,-0.000007\O,0,-1.860506,1
 .129117,0.000001\O,0,-2.386289,-0.98698,0.000011\H,0,0.538268,1.258059
 ,-0.884869\H,0,0.538266,1.258056,0.884868\\Version=ES64L-G16RevC.01\St

 Normal termination of Gaussian 16 at Tue Apr  8 23:52:30 2025.
