 Gaussian 16, Revision C.01,

 ----------------------------------------------------------------------
 #t hf aug-cc-pvdz symm=none int=(grid=ultrafine) guess=(read,tcheck) s
 table=(opt,rrhf)
 ----------------------------------------------------------------------
 -----
 title
 -----
 Symbolic Z-matrix:
 Charge =  0 Multiplicity = 1

 SCF Done:  E(RHF) =  -719.722511733     A.U. after   18 cycles
 Normal termination of Gaussian 16 at Tue Apr  8 23:05:25 2025.
 Gaussian 16:  ES64L-G16RevC.01  3-Jul-2019

 ----------------------------------------------------------------------
 #t hf aug-cc-pvdz iop(5/13=1,5/36=2,99/5=2) pseudo=read geom=check gue
 ss=(read,tcheck) scf=(maxcycle=1)
 ----------------------------------------------------------------------
 -----
 title
 -----
 Structure from the checkpoint file:  "BDE49_expt_1770_mol1.chk"
 Charge =  0 Multiplicity = 1

                         Standard orientation:
 ---------------------------------------------------------------------
 Center     Atomic      Atomic             Coordinates (Angstroms)
 Number     Number       Type             X           Y           Z
 ---------------------------------------------------------------------
      1          6           0       -3.460737    0.840571   -0.991492
      2          6           0       -3.856784   -0.466287   -0.710903
      3          6           0       -2.971767   -1.339917   -0.094362
      4          6           0       -2.178192    1.259431   -0.655141
      5          6           0       -1.292328    0.382062   -0.031083
      6          6           0       -1.668758   -0.944548    0.254577
      7          1           0       -4.147426    1.532484   -1.464659
      8          1           0       -4.855301   -0.800616   -0.967489
      9          1           0       -3.283322   -2.354402    0.129676
     10          1           0       -1.856675    2.274492   -0.850334
     11          6           0        1.494249   -1.058135    0.229637
     12          6           0        1.201324    0.282928   -0.077322
     13          7           0       -0.019590    0.870856    0.386323
     14          7           0       -0.057783    1.958595    1.224742
     15          8           0        1.015094    2.414643    1.541674
     16          6           0        2.746964   -1.559938   -0.166010
     17          6           0        3.656680   -0.773393   -0.857270
     18          6           0        3.336248    0.547205   -1.171470
     19          6           0        2.110677    1.072556   -0.780547
     20          1           0        2.991854   -2.589915    0.069698
     21          1           0        4.614886   -1.186341   -1.150661
     22          1           0        4.042902    1.170101   -1.706984
     23          1           0        1.862269    2.103330   -0.994382
     24          6           0       -0.787684   -1.909820    0.905362
     25          6           0        0.559048   -1.953759    0.904324
     26          1           0       -1.302706   -2.735401    1.388202
     27          1           0        1.020732   -2.810750    1.386289
 ---------------------------------------------------------------------

 SCF Done:  E(RHF) =  -720.437858034     A.U. after    2 cycles

 The electronic state is 1-A.
 Alpha  occ. eigenvalues --  -20.58214 -15.67630 -15.57252 -11.29799 -11.29504
 Alpha  occ. eigenvalues --  -11.26705 -11.26636 -11.26127 -11.26021 -11.25760
 Alpha  occ. eigenvalues --  -11.25716 -11.25630 -11.25529 -11.25477 -11.25468
 Alpha  occ. eigenvalues --  -11.25370 -11.25277  -1.58896  -1.31031  -1.17447
 Alpha  occ. eigenvalues --   -1.17090  -1.10284  -1.05061  -1.04856  -1.04148
 Alpha  occ. eigenvalues --   -1.00117  -0.94306  -0.90219  -0.85836  -0.85334
 Alpha  occ. eigenvalues --   -0.81491  -0.80395  -0.76159  -0.73551  -0.71337
 Alpha  occ. eigenvalues --   -0.70924  -0.68588  -0.66300  -0.65610  -0.64467
 Alpha  occ. eigenvalues --   -0.64028  -0.62058  -0.61471  -0.60519  -0.56875
 Alpha  occ. eigenvalues --   -0.55707  -0.54201  -0.53666  -0.53021  -0.52438
 Alpha  occ. eigenvalues --   -0.50852  -0.45800  -0.44445  -0.43096  -0.36787
 Alpha  occ. eigenvalues --   -0.35574  -0.35397  -0.30699
 Alpha virt. eigenvalues --    0.03015   0.03181   0.03307   0.03609   0.03921
 Alpha virt. eigenvalues --    0.05174   0.05684   0.05991   0.06880   0.06954
 Alpha virt. eigenvalues --    0.07769   0.08626   0.08905   0.09918   0.09987

 Mulliken charges:
               1
     1  C   -0.111926
     2  C   -0.058182
     3  C    0.142742
     4  C    0.982074
     5  C   -2.656178
     6  C    1.989209
     7  H   -0.232998
     8  H   -0.239591
     9  H   -0.324545
    10  H   -0.354793
    11  C    1.749252
    12  C   -1.834301
    13  N    1.600068
    14  N    1.183605
    15  O   -1.136774
    16  C    0.037620
    17  C    0.018103
    18  C   -0.090643
    19  C    0.872926
    20  H   -0.324733
    21  H   -0.235552
    22  H   -0.230597
    23  H   -0.373108
    24  C    0.226177
    25  C    0.059078
    26  H   -0.335820
    27  H   -0.321114
 Sum of Mulliken charges =  -0.00000

 Dipole moment (field-independent basis, Debye):
    X=             -0.3573    Y=             -2.4377    Z=             -2.1037  Tot=              3.2397

 Test job not archived.
 1\1\GINC-SE339\SP\RHF\Aug-CC-pVDZ\C14H10N2O1\OHZDE\08-Apr-2025\0\\#t h
 f aug-cc-pvdz iop(5/13=1,5/36=2,99/5=2) pseudo=read geom=check guess=(
 read,tcheck) scf=(maxcycle=1)\\title\\0,1\C,0,-3.460737,0.840571,-0.99
 1492\C,0,-3.856784,-0.466287,-0.710903\C,0,-2.971767,-1.339917,-0.0943
 62\C,0,-2.178192,1.259431,-0.655141\C,0,-1.292328,0.382062,-0.031083\C
 ,0,-1.668758,-0.944548,0.254577\H,0,-4.147426,1.532484,-1.464659\H,0,-
 4.855301,-0.800616,-0.967489\H,0,-3.283322,-2.354402,0.129676\H,0,-1.8
 56675,2.274492,-0.850334\C,0,1.494249,-1.058135,0.229637\C,0,1.201324,

 Normal termination of Gaussian 16 at Tue Apr  8 23:06:01 2025.
