 Gaussian 16, Revision C.01,

 ----------------------------------------------------------------------
 #t hf aug-cc-pvdz symm=none int=(grid=ultrafine) guess=(read,tcheck) s
 table=(opt,rrhf)
 ----------------------------------------------------------------------
 -----
 title
 -----
 Symbolic Z-matrix:
 Charge =  0 Multiplicity = 1

 SCF Done:  E(RHF) =  -1561.44005971     A.U. after   16 cycles
 Normal termination of Gaussian 16 at Wed Apr  9 00:52:28 2025.
 Gaussian 16:  ES64L-G16RevC.01  3-Jul-2019

 ----------------------------------------------------------------------
 #t hf aug-cc-pvdz iop(5/13=1,5/36=2,99/5=2) pseudo=read geom=check gue
 ss=(read,tcheck) scf=(maxcycle=1)
 ----------------------------------------------------------------------
 -----
 title
 -----
 Structure from the checkpoint file:  "BDE49_nonexpt_902_mol1.chk"
 Charge =  0 Multiplicity = 1

                         Standard orientation:
 ---------------------------------------------------------------------
 Center     Atomic      Atomic             Coordinates (Angstroms)
 Number     Number       Type             X           Y           Z
 ---------------------------------------------------------------------
      1          6           0       -4.590846   -0.484482    0.000027
      2          6           0       -4.185670    0.850367   -0.000125
      3          6           0       -2.833822    1.165783   -0.000152
      4          6           0       -3.638857   -1.502053    0.000150
      5          6           0       -2.283149   -1.191385    0.000123
      6          6           0       -1.869518    0.146747   -0.000029
      7          1           0       -5.646595   -0.730932    0.000049
      8          1           0       -4.924469    1.643304   -0.000221
      9          1           0       -2.500425    2.195467   -0.000267
     10          1           0       -3.951569   -2.539543    0.000268
     11          1           0       -1.554595   -1.991437    0.000220
     12          6           0       -0.438491    0.573996   -0.000065
     13         16           0        0.761510   -0.805425    0.000021
     14          5           0        2.468182   -0.116407    0.000217
     15         16           0        3.016773    1.598345    0.000454
     16          8           0       -0.117856    1.739389   -0.000222
     17         16           0        3.699455   -1.463622   -0.000427
     18          1           0        1.784631    2.147909    0.000742
     19          1           0        4.793260   -0.680466   -0.000446
 ---------------------------------------------------------------------

 SCF Done:  E(RHF) =  -1561.98632085     A.U. after    2 cycles

 The electronic state is 1-A.
 Alpha  occ. eigenvalues --  -93.97170 -93.96010 -93.95108 -20.56740 -11.40037
 Alpha  occ. eigenvalues --  -11.27558 -11.27481 -11.27320 -11.27027 -11.26400
 Alpha  occ. eigenvalues --  -11.26305  -8.25563  -8.24303  -8.23481  -7.68697
 Alpha  occ. eigenvalues --   -6.23383  -6.23176  -6.23054  -6.22142  -6.21999
 Alpha  occ. eigenvalues --   -6.21825  -6.21308  -6.21184  -6.21024  -1.51029
 Alpha  occ. eigenvalues --   -1.18424  -1.09055  -1.06355  -1.04354  -1.02032
 Alpha  occ. eigenvalues --   -1.00449  -0.89804  -0.86067  -0.79847  -0.73762
 Alpha  occ. eigenvalues --   -0.70815  -0.68003  -0.65953  -0.64621  -0.62462
 Alpha  occ. eigenvalues --   -0.60520  -0.59762  -0.58938  -0.55212  -0.53807
 Alpha  occ. eigenvalues --   -0.52857  -0.52586  -0.47491  -0.46439  -0.45203
 Alpha  occ. eigenvalues --   -0.42106  -0.39447  -0.37674  -0.36943  -0.36812
 Alpha virt. eigenvalues --    0.02695   0.03325   0.03797   0.04000   0.04672
 Alpha virt. eigenvalues --    0.05090   0.05785   0.06141   0.07334   0.07526
 Alpha virt. eigenvalues --    0.08459   0.09104   0.09947   0.10159   0.10387

 Mulliken charges:
               1
     1  C   -0.049481
     2  C    0.444036
     3  C   -0.503824
     4  C    0.230115
     5  C    0.097247
     6  C    2.487057
     7  H   -0.209786
     8  H   -0.219996
     9  H   -0.353531
    10  H   -0.245363
    11  H   -0.172150
    12  C   -0.640685
    13  S    0.162409
    14  B    1.180618
    15  S   -0.645071
    16  O   -1.555420
    17  S   -0.686545
    18  H    0.428691
    19  H    0.251678
 Sum of Mulliken charges =  -0.00000

 Dipole moment (field-independent basis, Debye):
    X=             -3.2782    Y=             -0.4955    Z=              0.0005  Tot=              3.3154

 Test job not archived.
 1\1\GINC-SE105\SP\RHF\Aug-CC-pVDZ\C7H7B1O1S3\OHZDE\09-Apr-2025\0\\#t h
 f aug-cc-pvdz iop(5/13=1,5/36=2,99/5=2) pseudo=read geom=check guess=(
 read,tcheck) scf=(maxcycle=1)\\title\\0,1\C,0,-4.590846,-0.484482,0.00
 0027\C,0,-4.18567,0.850367,-0.000125\C,0,-2.833822,1.165783,-0.000152\
 C,0,-3.638857,-1.502053,0.00015\C,0,-2.283149,-1.191385,0.000123\C,0,-
 1.869518,0.146747,-0.000029\H,0,-5.646595,-0.730932,0.000049\H,0,-4.92
 4469,1.643304,-0.000221\H,0,-2.500425,2.195467,-0.000267\H,0,-3.951569
 ,-2.539543,0.000268\H,0,-1.554595,-1.991437,0.00022\C,0,-0.438491,0.57

 Normal termination of Gaussian 16 at Wed Apr  9 00:52:43 2025.
