 Gaussian 16, Revision C.01,

 ----------------------------------------------------------------------
 #t hf aug-cc-pvdz symm=none int=(grid=ultrafine) guess=(read,tcheck) s
 table=(opt,rrhf)
 ----------------------------------------------------------------------
 -----
 title
 -----
 Symbolic Z-matrix:
 Charge =  0 Multiplicity = 1

 SCF Done:  E(RHF) =  -142.327571785     A.U. after   12 cycles
 Normal termination of Gaussian 16 at Wed Apr  9 00:28:42 2025.
 Gaussian 16:  ES64L-G16RevC.01  3-Jul-2019

 ----------------------------------------------------------------------
 #t hf aug-cc-pvdz iop(5/13=1,5/36=2,99/5=2) pseudo=read geom=check gue
 ss=(read,tcheck) scf=(maxcycle=1)
 ----------------------------------------------------------------------
 -----
 title
 -----
 Structure from the checkpoint file:  "BDE49_nonexpt_301_mol1.chk"
 Charge =  0 Multiplicity = 1

                         Standard orientation:
 ---------------------------------------------------------------------
 Center     Atomic      Atomic             Coordinates (Angstroms)
 Number     Number       Type             X           Y           Z
 ---------------------------------------------------------------------
      1          5           0       -1.660503   -0.000030   -0.186160
      2          6           0       -0.314396   -0.000023    0.524372
      3          6           0        0.869317    0.737723   -0.146807
      4          6           0        0.869331   -0.737704   -0.146854
      5          1           0       -0.273012   -0.000057    1.608863
      6          1           0        0.667114   -1.259193   -1.073887
      7          1           0        1.538329   -1.257857    0.527870
      8          1           0        1.538308    1.257845    0.527948
      9          1           0        0.667090    1.259267   -1.073807
     10          1           0       -1.687460    0.000135   -1.382545
     11          1           0       -2.693372    0.000035    0.412091
 ---------------------------------------------------------------------

 SCF Done:  E(RHF) =  -142.485249582     A.U. after    2 cycles

 The electronic state is 1-A.
 Alpha  occ. eigenvalues --  -11.24769 -11.24699 -11.21693  -7.58271  -1.13825
 Alpha  occ. eigenvalues --   -0.84001  -0.82726  -0.71138  -0.65870  -0.60296
 Alpha  occ. eigenvalues --   -0.52765  -0.50955  -0.47387  -0.42778  -0.42259
 Alpha virt. eigenvalues --    0.03433   0.03602   0.03927   0.04254   0.06235
 Alpha virt. eigenvalues --    0.06594   0.06914   0.07670   0.09793   0.10754
 Alpha virt. eigenvalues --    0.11118   0.13229   0.13777   0.14127   0.15352

 Mulliken charges:
               1
     1  B   -0.465831
     2  C    0.099032
     3  C    0.239373
     4  C    0.239328
     5  H   -0.159994
     6  H   -0.107934
     7  H   -0.076767
     8  H   -0.076769
     9  H   -0.107949
    10  H    0.206997
    11  H    0.210515
 Sum of Mulliken charges =  -0.00000

 Dipole moment (field-independent basis, Debye):
    X=              1.0493    Y=             -0.0002    Z=              0.2258  Tot=              1.0733

 Test job not archived.
 1\1\GINC-SE049\SP\RHF\Aug-CC-pVDZ\C3H7B1\OHZDE\09-Apr-2025\0\\#t hf au
 g-cc-pvdz iop(5/13=1,5/36=2,99/5=2) pseudo=read geom=check guess=(read
 ,tcheck) scf=(maxcycle=1)\\title\\0,1\B,0,1.660503,0.00003,-0.18616\C,
 0,0.314396,0.000023,0.524372\C,0,-0.869317,-0.737723,-0.146807\C,0,-0.
 869331,0.737704,-0.146854\H,0,0.273012,0.000057,1.608863\H,0,-0.667114
 ,1.259193,-1.073887\H,0,-1.538329,1.257857,0.52787\H,0,-1.538308,-1.25
 7845,0.527948\H,0,-0.66709,-1.259267,-1.073807\H,0,1.68746,-0.000135,-
 1.382545\H,0,2.693372,-0.000036,0.412091\\Version=ES64L-G16RevC.01\Sta

 Normal termination of Gaussian 16 at Wed Apr  9 00:28:45 2025.
