 Gaussian 16, Revision C.01,

 ----------------------------------------------------------------------
 #t hf aug-cc-pvdz symm=none int=(grid=ultrafine) guess=(read,tcheck) s
 table=(opt,rrhf)
 ----------------------------------------------------------------------
 -----
 title
 -----
 Symbolic Z-matrix:
 Charge =  0 Multiplicity = 1

 SCF Done:  E(RHF) =  -1741.76529190     A.U. after   14 cycles
 Normal termination of Gaussian 16 at Wed Apr  9 00:41:16 2025.
 Gaussian 16:  ES64L-G16RevC.01  3-Jul-2019

 ----------------------------------------------------------------------
 #t hf aug-cc-pvdz iop(5/13=1,5/36=2,99/5=2) pseudo=read geom=check gue
 ss=(read,tcheck) scf=(maxcycle=1)
 ----------------------------------------------------------------------
 -----
 title
 -----
 Structure from the checkpoint file:  "BDE49_nonexpt_676_mol1.chk"
 Charge =  0 Multiplicity = 1

                         Standard orientation:
 ---------------------------------------------------------------------
 Center     Atomic      Atomic             Coordinates (Angstroms)
 Number     Number       Type             X           Y           Z
 ---------------------------------------------------------------------
      1          8           0        1.242167    0.658495   -0.467269
      2          5           0        2.443006   -0.040127   -0.220332
      3          8           0        3.482574    0.787116    0.034337
      4          8           0        2.556360   -1.388706   -0.241807
      5          8           0        0.196186   -0.297345   -0.785092
      6          6           0       -0.925965   -0.004306   -0.038150
      7         17           0       -2.090599   -1.241229   -0.582785
      8         17           0       -1.554821    1.636838   -0.368392
      9         17           0       -0.619393   -0.178850    1.730185
     10          1           0        1.727492   -1.838352   -0.434873
     11          1           0        4.296787    0.303434    0.200947
 ---------------------------------------------------------------------

 SCF Done:  E(RHF) =  -1742.34154216     A.U. after    2 cycles

 The electronic state is 1-A.
 Alpha  occ. eigenvalues -- -105.61191-105.60543-105.60272 -20.68664 -20.65128
 Alpha  occ. eigenvalues --  -20.58254 -20.57652 -11.51400 -10.66037 -10.65371
 Alpha  occ. eigenvalues --  -10.65118  -7.82990  -7.82539  -7.82528  -7.82316
 Alpha  occ. eigenvalues --   -7.82070  -7.81887  -7.81875  -7.81619  -7.81616
 Alpha  occ. eigenvalues --   -7.70087  -1.65867  -1.50750  -1.47100  -1.37668
 Alpha  occ. eigenvalues --   -1.18253  -1.08654  -1.08062  -0.86344  -0.80706
 Alpha  occ. eigenvalues --   -0.78014  -0.74641  -0.72861  -0.70423  -0.66005
 Alpha  occ. eigenvalues --   -0.62489  -0.59739  -0.58531  -0.57883  -0.55236
 Alpha  occ. eigenvalues --   -0.52510  -0.51903  -0.51639  -0.51283  -0.49500
 Alpha  occ. eigenvalues --   -0.48342  -0.48043  -0.46859
 Alpha virt. eigenvalues --    0.03765   0.04977   0.05406   0.05910   0.07638
 Alpha virt. eigenvalues --    0.08172   0.08658   0.09191   0.10305   0.10826
 Alpha virt. eigenvalues --    0.13345   0.13611   0.14996   0.15408   0.15919

 Mulliken charges:
               1
     1  O   -0.419900
     2  B    1.979893
     3  O   -1.094893
     4  O   -1.131795
     5  O   -0.804050
     6  C   -0.000033
     7  Cl   0.132514
     8  Cl   0.200348
     9  Cl   0.111137
    10  H    0.596593
    11  H    0.430186
 Sum of Mulliken charges =  -0.00000

 Dipole moment (field-independent basis, Debye):
    X=              0.8201    Y=             -1.5636    Z=              0.0638  Tot=              1.7668

 Test job not archived.
 1\1\GINC-SE073\SP\RHF\Aug-CC-pVDZ\C1H2B1Cl3O4\OHZDE\09-Apr-2025\0\\#t
 hf aug-cc-pvdz iop(5/13=1,5/36=2,99/5=2) pseudo=read geom=check guess=
 (read,tcheck) scf=(maxcycle=1)\\title\\0,1\O,0,1.242167,0.658495,-0.46
 7269\B,0,2.443006,-0.040127,-0.220332\O,0,3.482574,0.787116,0.034337\O
 ,0,2.55636,-1.388706,-0.241807\O,0,0.196186,-0.297345,-0.785092\C,0,-0
 .925965,-0.004306,-0.03815\Cl,0,-2.090599,-1.241229,-0.582785\Cl,0,-1.
 554821,1.636838,-0.368392\Cl,0,-0.619393,-0.17885,1.730185\H,0,1.72749
 2,-1.838352,-0.434873\H,0,4.296787,0.303434,0.200947\\Version=ES64L-G1

 Normal termination of Gaussian 16 at Wed Apr  9 00:41:23 2025.
