 Gaussian 16, Revision C.01,

 ----------------------------------------------------------------------
 #t hf aug-cc-pvdz symm=none int=(grid=ultrafine) guess=(read,tcheck) s
 table=(opt,rrhf)
 ----------------------------------------------------------------------
 -----
 title
 -----
 Symbolic Z-matrix:
 Charge =  0 Multiplicity = 1

 SCF Done:  E(RHF) =  -1682.35296719     A.U. after   16 cycles
 Normal termination of Gaussian 16 at Tue Apr  8 23:12:49 2025.
 Gaussian 16:  ES64L-G16RevC.01  3-Jul-2019

 ----------------------------------------------------------------------
 #t hf aug-cc-pvdz iop(5/13=1,5/36=2,99/5=2) pseudo=read geom=check gue
 ss=(read,tcheck) scf=(maxcycle=1)
 ----------------------------------------------------------------------
 -----
 title
 -----
 Structure from the checkpoint file:  "BDE49_expt_772_mol1.chk"
 Charge =  0 Multiplicity = 1

                         Standard orientation:
 ---------------------------------------------------------------------
 Center     Atomic      Atomic             Coordinates (Angstroms)
 Number     Number       Type             X           Y           Z
 ---------------------------------------------------------------------
      1          6           0        0.492800    2.129839    0.000004
      2          6           0        1.509684    1.177200    0.000003
      3          6           0        1.186971   -0.176072   -0.000000
      4          6           0       -0.144045   -0.608299   -0.000001
      5          6           0       -1.148354    0.372572   -0.000000
      6          6           0       -0.841495    1.725227    0.000003
      7          8           0        0.735387    3.467301    0.000006
      8          1           0        1.684977    3.627655    0.000009
      9          1           0        2.552040    1.472043    0.000003
     10          1           0       -1.627240    2.467435    0.000004
     11         17           0       -2.830564   -0.083716   -0.000001
     12         17           0       -0.539009   -2.297954   -0.000004
     13         17           0        2.497441   -1.325880   -0.000001
 ---------------------------------------------------------------------

 SCF Done:  E(RHF) =  -1682.88100738     A.U. after    2 cycles

 The electronic state is 1-A.
 Alpha  occ. eigenvalues -- -105.59229-105.58939-105.58557 -20.61030 -11.34796
 Alpha  occ. eigenvalues --  -11.34682 -11.34510 -11.33305 -11.27815 -11.27248
 Alpha  occ. eigenvalues --  -10.64030 -10.63743 -10.63368  -7.81001  -7.80714
 Alpha  occ. eigenvalues --   -7.80580  -7.80568  -7.80345  -7.80292  -7.80282
 Alpha  occ. eigenvalues --   -7.79913  -7.79900  -1.52606  -1.23216  -1.15015
 Alpha  occ. eigenvalues --   -1.12050  -1.08278  -1.01146  -0.99443  -0.87043
 Alpha  occ. eigenvalues --   -0.85361  -0.76890  -0.72969  -0.69242  -0.63873
 Alpha  occ. eigenvalues --   -0.63119  -0.62655  -0.61439  -0.58545  -0.57912
 Alpha  occ. eigenvalues --   -0.55143  -0.53254  -0.49951  -0.49670  -0.48941
 Alpha  occ. eigenvalues --   -0.46290  -0.45903  -0.36981  -0.34591
 Alpha virt. eigenvalues --    0.02467   0.04253   0.05203   0.06671   0.07284
 Alpha virt. eigenvalues --    0.08351   0.09305   0.09366   0.10645   0.10677
 Alpha virt. eigenvalues --    0.11658   0.12344   0.12984   0.14052   0.14131

 Mulliken charges:
               1
     1  C    2.203388
     2  C   -0.560997
     3  C    0.302401
     4  C   -0.113318
     5  C    0.750328
     6  C   -0.073174
     7  O   -1.789895
     8  H    0.431544
     9  H   -0.233767
    10  H   -0.134129
    11  Cl  -0.290085
    12  Cl  -0.203363
    13  Cl  -0.288934
 Sum of Mulliken charges =  -0.00000

 Dipole moment (field-independent basis, Debye):
    X=              1.9783    Y=              2.6588    Z=              0.0000  Tot=              3.3141

 Test job not archived.
 1\1\GINC-SE038\SP\RHF\Aug-CC-pVDZ\C6H3Cl3O1\OHZDE\08-Apr-2025\0\\#t hf
  aug-cc-pvdz iop(5/13=1,5/36=2,99/5=2) pseudo=read geom=check guess=(r
 ead,tcheck) scf=(maxcycle=1)\\title\\0,1\C,0,0.492779,2.129844,0.00000
 4\C,0,1.509672,1.177215,0.000003\C,0,1.186972,-0.176061,0.\C,0,-0.1440
 39,-0.6083,-0.000001\C,0,-1.148358,0.372561,0.\C,0,-0.841512,1.725219,
 0.000003\O,0,0.735353,3.467308,0.000006\H,0,1.684942,3.627671,0.000009
 \H,0,2.552026,1.472068,0.000003\H,0,-1.627264,2.467419,0.000004\Cl,0,-
 2.830563,-0.083743,-0.000001\Cl,0,-0.538987,-2.297959,-0.000004\Cl,0,2

 Normal termination of Gaussian 16 at Tue Apr  8 23:12:59 2025.
