 Gaussian 16, Revision C.01,

 ----------------------------------------------------------------------
 #t hf aug-cc-pvdz symm=none int=(grid=ultrafine) guess=(read,tcheck) s
 table=opt
 ----------------------------------------------------------------------
 -----
 title
 -----
 Symbolic Z-matrix:
 Charge =  0 Multiplicity = 2

 SCF Done:  E(UHF) =  -497.504780208     A.U. after   18 cycles
 Normal termination of Gaussian 16 at Wed Apr  9 00:11:44 2025.
 Gaussian 16:  ES64L-G16RevC.01  3-Jul-2019

 ----------------------------------------------------------------------
 #t hf aug-cc-pvdz iop(5/13=1,5/36=2,99/5=2) pseudo=read geom=check gue
 ss=(read,tcheck) scf=(maxcycle=1)
 ----------------------------------------------------------------------
 -----
 title
 -----
 Structure from the checkpoint file:  "BDE49_nonexpt_2388_mol2.chk"
 Charge =  0 Multiplicity = 2

                         Standard orientation:
 ---------------------------------------------------------------------
 Center     Atomic      Atomic             Coordinates (Angstroms)
 Number     Number       Type             X           Y           Z
 ---------------------------------------------------------------------
      1         14           0        1.852735   -0.007770   -0.068775
      2          7           0        0.222382   -0.672506   -0.001537
      3          1           0        2.079904    0.945886    1.043418
      4          1           0        2.721900   -1.206561    0.074500
      5          6           0       -0.880934    0.159834   -0.015495
      6          8           0       -0.740776    1.367965   -0.062211
      7          1           0        0.055391   -1.669715   -0.015736
      8          6           0       -2.237424   -0.516916    0.045372
      9          1           0       -2.347661   -1.243129   -0.765076
     10          1           0       -3.013932    0.240418   -0.037410
     11          1           0       -2.354204   -1.051804    0.992344
 ---------------------------------------------------------------------

 SCF Done:  E(UHF) =  -497.744730597     A.U. after    2 cycles

 The electronic state is 2-A.
 Alpha  occ. eigenvalues --  -69.56208 -20.52014 -15.51982 -11.36808 -11.25508
 Alpha  occ. eigenvalues --   -6.23028  -3.98885  -3.98122  -3.98023  -1.46870
 Alpha  occ. eigenvalues --   -1.21611  -1.01472  -0.83326  -0.77806  -0.69316
 Alpha  occ. eigenvalues --   -0.64154  -0.63455  -0.58929  -0.56205  -0.55345
 Alpha  occ. eigenvalues --   -0.49861  -0.45589  -0.43292  -0.33922
 Alpha virt. eigenvalues --    0.02758   0.04491   0.04631   0.04940   0.06152
 Alpha virt. eigenvalues --    0.06775   0.07082   0.08003   0.10005   0.11187
 Alpha virt. eigenvalues --    0.12043   0.13534   0.14440   0.14909   0.15726

  Beta  occ. eigenvalues --  -69.55643 -20.51980 -15.51766 -11.36809 -11.25509
  Beta  occ. eigenvalues --   -6.22141  -3.97751  -3.97664  -3.96811  -1.46781
  Beta  occ. eigenvalues --   -1.20989  -1.01388  -0.82726  -0.75900  -0.68916
  Beta  occ. eigenvalues --   -0.63230  -0.62374  -0.58700  -0.55392  -0.54577
  Beta  occ. eigenvalues --   -0.48571  -0.44200  -0.43168
  Beta virt. eigenvalues --    0.02617   0.03026   0.04557   0.04858   0.05040
  Beta virt. eigenvalues --    0.06246   0.07095   0.07788   0.09133   0.10202
  Beta virt. eigenvalues --    0.11401   0.12359   0.13771   0.14971   0.15550

 Mulliken charges and spin densities:
               1          2
     1  Si   0.511295   0.906798
     2  N    0.369271  -0.010203
     3  H   -0.080571   0.063252
     4  H   -0.130140   0.028732
     5  C    0.448595   0.014825
     6  O   -1.226284   0.004186
     7  H   -0.046866  -0.003192
     8  C   -0.427623  -0.005657
     9  H    0.204947   0.001498
    10  H    0.139317  -0.000759
    11  H    0.238059   0.000520
 Sum of Mulliken charges =  -0.00000   1.00000

 Dipole moment (field-independent basis, Debye):
    X=             -0.6712    Y=             -3.5422    Z=              0.1260  Tot=              3.6075
                          Isotropic Fermi Contact Couplings
        Atom                 a.u.       MegaHertz       Gauss      10(-4) cm-1
     1  Si(29)             0.72289    -642.44802    -229.24143    -214.29759
     2  N(14)              0.03275      10.58323       3.77636       3.53019
     3  H(1)               0.01496      66.87529      23.86277      22.30720
     4  H(1)               0.00879      39.30819      14.02614      13.11180
     5  C(13)             -0.00139      -1.56374      -0.55798      -0.52161
     6  O(17)              0.00289      -1.75002      -0.62445      -0.58374
     7  H(1)              -0.00007      -0.29548      -0.10543      -0.09856
     8  C(13)             -0.00008      -0.09217      -0.03289      -0.03074

 1\1\GINC-SE454\SP\UHF\Aug-CC-pVDZ\C2H6N1O1Si1(2)\OHZDE\09-Apr-2025\0\\
 #t hf aug-cc-pvdz iop(5/13=1,5/36=2,99/5=2) pseudo=read geom=check gue
 ss=(read,tcheck) scf=(maxcycle=1)\\title\\0,2\Si,0,1.852735,-0.00777,-
 0.068775\N,0,0.222382,-0.672506,-0.001537\H,0,2.079904,0.945886,1.0434
 18\H,0,2.7219,-1.206561,0.0745\C,0,-0.880934,0.159834,-0.015495\O,0,-0
 .740776,1.367965,-0.062211\H,0,0.055391,-1.669715,-0.015736\C,0,-2.237
 424,-0.516916,0.045372\H,0,-2.347661,-1.243129,-0.765076\H,0,-3.013932
 ,0.240418,-0.03741\H,0,-2.354204,-1.051804,0.992344\\Version=ES64L-G16

 Normal termination of Gaussian 16 at Wed Apr  9 00:11:48 2025.
