 Gaussian 16, Revision C.01,

 ----------------------------------------------------------------------
 #t hf aug-cc-pvdz symm=none int=(grid=ultrafine) guess=(read,tcheck) s
 table=(opt,rrhf)
 ----------------------------------------------------------------------
 -----
 title
 -----
 Symbolic Z-matrix:
 Charge =  0 Multiplicity = 1

 SCF Done:  E(RHF) =  -341.226832464     A.U. after   15 cycles
 Normal termination of Gaussian 16 at Tue Apr  8 23:20:51 2025.
 Gaussian 16:  ES64L-G16RevC.01  3-Jul-2019

 ----------------------------------------------------------------------
 #t hf aug-cc-pvdz iop(5/13=1,5/36=2,99/5=2) pseudo=read geom=check gue
 ss=(read,tcheck) scf=(maxcycle=1)
 ----------------------------------------------------------------------
 -----
 title
 -----
 Structure from the checkpoint file:  "BDE49_nonexpt_1156_mol1.chk"
 Charge =  0 Multiplicity = 1

                         Standard orientation:
 ---------------------------------------------------------------------
 Center     Atomic      Atomic             Coordinates (Angstroms)
 Number     Number       Type             X           Y           Z
 ---------------------------------------------------------------------
      1          9           0        1.612274   -0.693869   -0.185727
      2          8           0        1.007510    0.404505    0.487055
      3          6           0       -1.149542    0.066582   -0.063157
      4          7           0       -2.115186   -0.537457    0.132860
      5          8           0       -0.108374    0.796436   -0.346997
 ---------------------------------------------------------------------

 SCF Done:  E(RHF) =  -341.540577522     A.U. after    2 cycles

 The electronic state is 1-A.
 Alpha  occ. eigenvalues --  -26.58263 -20.81761 -20.75954 -15.56047 -11.38102
 Alpha  occ. eigenvalues --   -1.78671  -1.61920  -1.35011  -1.26873  -0.88915
 Alpha  occ. eigenvalues --   -0.80420  -0.79083  -0.73936  -0.67674  -0.66263
 Alpha  occ. eigenvalues --   -0.64931  -0.59125  -0.53769  -0.52147
 Alpha virt. eigenvalues --    0.04740   0.06181   0.08841   0.09437   0.10509
 Alpha virt. eigenvalues --    0.12313   0.16323   0.17127   0.17835   0.19896
 Alpha virt. eigenvalues --    0.21410   0.21630   0.22328   0.23582   0.25237

 Mulliken charges:
               1
     1  F   -0.366994
     2  O    0.334997
     3  C   -0.044977
     4  N    0.584945
     5  O   -0.507971
 Sum of Mulliken charges =   0.00000

 Dipole moment (field-independent basis, Debye):
    X=              2.3578    Y=              1.5453    Z=             -0.1943  Tot=              2.8258

 Test job not archived.
 1\1\GINC-SE284\SP\RHF\Aug-CC-pVDZ\C1F1N1O2\OHZDE\08-Apr-2025\0\\#t hf
 aug-cc-pvdz iop(5/13=1,5/36=2,99/5=2) pseudo=read geom=check guess=(re
 ad,tcheck) scf=(maxcycle=1)\\title\\0,1\F,0,1.612274,-0.693869,-0.1857
 27\O,0,1.00751,0.404505,0.487055\C,0,-1.149542,0.066582,-0.063157\N,0,
 -2.115186,-0.537457,0.13286\O,0,-0.108374,0.796436,-0.346997\\Version=
 ES64L-G16RevC.01\State=1-A\HF=-341.5405775\RMSD=1.250e-02\Dipole=0.927
 6391,0.6079742,-0.0764477\Quadrupole=-3.5155881,1.4362385,2.0793497,-2
 .1729475,0.9482234,0.3595684\PG=C01 [X(C1F1N1O2)]\\@

 Normal termination of Gaussian 16 at Tue Apr  8 23:20:53 2025.
