 Gaussian 16, Revision C.01,

 ----------------------------------------------------------------------
 #t hf aug-cc-pvdz symm=none int=(grid=ultrafine) guess=(read,tcheck) s
 table=opt
 ----------------------------------------------------------------------
 -----
 title
 -----
 Symbolic Z-matrix:
 Charge =  0 Multiplicity = 2

 SCF Done:  E(UHF) =  -135.959480901     A.U. after   14 cycles
 Normal termination of Gaussian 16 at Wed Apr  9 00:44:22 2025.
 Gaussian 16:  ES64L-G16RevC.01  3-Jul-2019

 ----------------------------------------------------------------------
 #t hf aug-cc-pvdz iop(5/13=1,5/36=2,99/5=2) pseudo=read geom=check gue
 ss=(read,tcheck) scf=(maxcycle=1)
 ----------------------------------------------------------------------
 -----
 title
 -----
 Structure from the checkpoint file:  "BDE49_nonexpt_767_mol2.chk"
 Charge =  0 Multiplicity = 2

                         Standard orientation:
 ---------------------------------------------------------------------
 Center     Atomic      Atomic             Coordinates (Angstroms)
 Number     Number       Type             X           Y           Z
 ---------------------------------------------------------------------
      1          5           0        0.000000   -0.523473   -0.000001
      2          7           0        1.259151    0.092090    0.000008
      3          7           0       -1.259151    0.092090   -0.000008
      4          1           0       -2.117006   -0.431725   -0.000017
      5          1           0       -1.398294    1.095779   -0.000009
      6          1           0        2.117006   -0.431725    0.000016
      7          1           0        1.398294    1.095779    0.000016
 ---------------------------------------------------------------------

 SCF Done:  E(UHF) =  -136.098485320     A.U. after    2 cycles

 The electronic state is 2-A.
 Alpha  occ. eigenvalues --  -15.48053 -15.48033  -7.60230  -1.17140  -1.13426
 Alpha  occ. eigenvalues --   -0.75866  -0.71662  -0.69892  -0.64950  -0.50461
 Alpha  occ. eigenvalues --   -0.42578  -0.33078
 Alpha virt. eigenvalues --    0.03462   0.05017   0.05655   0.06467   0.06533
 Alpha virt. eigenvalues --    0.07464   0.10167   0.10251   0.16931   0.17507
 Alpha virt. eigenvalues --    0.17666   0.18461   0.19973   0.21372   0.21929

  Beta  occ. eigenvalues --  -15.48098 -15.48080  -7.58333  -1.16493  -1.13300
  Beta  occ. eigenvalues --   -0.74194  -0.69725  -0.69131  -0.64357  -0.50403
  Beta  occ. eigenvalues --   -0.43495
  Beta virt. eigenvalues --    0.02666   0.05093   0.05695   0.06562   0.06583
  Beta virt. eigenvalues --    0.07208   0.09057   0.10200   0.15263   0.16920
  Beta virt. eigenvalues --    0.18371   0.18794   0.20350   0.20412   0.22093

 Mulliken charges and spin densities:
               1          2
     1  B   -0.314532   0.976034
     2  N    0.167536  -0.017922
     3  N    0.167536  -0.017922
     4  H   -0.007676  -0.009250
     5  H   -0.002594   0.039154
     6  H   -0.007676  -0.009250
     7  H   -0.002594   0.039154
 Sum of Mulliken charges =  -0.00000   1.00000

 Dipole moment (field-independent basis, Debye):
    X=             -0.0000    Y=              1.5167    Z=              0.0000  Tot=              1.5167
                          Isotropic Fermi Contact Couplings
        Atom                 a.u.       MegaHertz       Gauss      10(-4) cm-1
     1  B(11)              0.34262     491.44543     175.35995     163.92855
     2  N(14)              0.04902      15.83870       5.65164       5.28322
     3  N(14)              0.04902      15.83870       5.65164       5.28322
     4  H(1)               0.00372      16.64313       5.93868       5.55155
     5  H(1)               0.01299      58.07107      20.72120      19.37042
     6  H(1)               0.00372      16.64313       5.93868       5.55155
     7  H(1)               0.01299      58.07107      20.72120      19.37042
 --------------------------------------------------------

 Normal termination of Gaussian 16 at Wed Apr  9 00:44:24 2025.
