 Gaussian 16, Revision C.01,

 ----------------------------------------------------------------------
 #t hf aug-cc-pvdz symm=none int=(grid=ultrafine) guess=(read,tcheck) s
 table=(opt,rrhf)
 ----------------------------------------------------------------------
 -----
 title
 -----
 Symbolic Z-matrix:
 Charge =  0 Multiplicity = 1

 SCF Done:  E(RHF) =  -1377.44914837     A.U. after   16 cycles
 Normal termination of Gaussian 16 at Wed Apr  9 00:16:25 2025.
 Gaussian 16:  ES64L-G16RevC.01  3-Jul-2019

 ----------------------------------------------------------------------
 #t hf aug-cc-pvdz iop(5/13=1,5/36=2,99/5=2) pseudo=read geom=check gue
 ss=(read,tcheck) scf=(maxcycle=1)
 ----------------------------------------------------------------------
 -----
 title
 -----
 Structure from the checkpoint file:  "BDE49_nonexpt_248_mol1.chk"
 Charge =  0 Multiplicity = 1

                         Standard orientation:
 ---------------------------------------------------------------------
 Center     Atomic      Atomic             Coordinates (Angstroms)
 Number     Number       Type             X           Y           Z
 ---------------------------------------------------------------------
      1         17           0       -3.179103    1.505027   -0.000443
      2         17           0       -3.179103   -1.505027   -0.000437
      3          5           0       -2.256281    0.000000    0.000727
      4          6           0       -0.703373    0.000000    0.000482
      5          6           0        0.021301   -1.207526    0.000372
      6          6           0        1.409678   -1.217083    0.000168
      7          6           0        2.080038   -0.000000    0.000065
      8          6           0        0.021301    1.207526    0.000367
      9          1           0       -0.509873    2.150824    0.000445
     10          6           0        1.409678    1.217083    0.000163
     11          1           0        1.975603    2.137894    0.000077
     12          7           0        3.565808   -0.000000   -0.000160
     13          8           0        4.127941   -1.084782    0.000107
     14          8           0        4.127942    1.084782    0.000104
     15          1           0       -0.509873   -2.150824    0.000453
     16          1           0        1.975603   -2.137894    0.000086
 ---------------------------------------------------------------------

 SCF Done:  E(RHF) =  -1378.04792815     A.U. after    2 cycles

 The electronic state is 1-A.
 Alpha  occ. eigenvalues -- -105.58980-105.58979 -20.60324 -20.60319 -15.80541
 Alpha  occ. eigenvalues --  -11.33748 -11.29236 -11.29215 -11.29163 -11.29131
 Alpha  occ. eigenvalues --  -11.27800 -10.64007 -10.63977  -7.80900  -7.80877
 Alpha  occ. eigenvalues --   -7.80606  -7.80602  -7.80572  -7.80565  -7.73523
 Alpha  occ. eigenvalues --   -1.68365  -1.52101  -1.21869  -1.13664  -1.10848
 Alpha  occ. eigenvalues --   -1.07722  -1.06260  -0.99664  -0.88813  -0.86489
 Alpha  occ. eigenvalues --   -0.81554  -0.76196  -0.75846  -0.75627  -0.69320
 Alpha  occ. eigenvalues --   -0.67510  -0.67018  -0.64920  -0.59139  -0.57870
 Alpha  occ. eigenvalues --   -0.56860  -0.54898  -0.53582  -0.50991  -0.50058
 Alpha  occ. eigenvalues --   -0.49519  -0.49120  -0.47658  -0.46263  -0.40328
 Alpha  occ. eigenvalues --   -0.38913
 Alpha virt. eigenvalues --   -0.01122   0.02962   0.03473   0.04285   0.04358
 Alpha virt. eigenvalues --    0.05839   0.06074   0.06407   0.06651   0.07247
 Alpha virt. eigenvalues --    0.08474   0.10293   0.11745   0.11961   0.12466

 Mulliken charges:
               1
     1  Cl  -0.356299
     2  Cl  -0.356299
     3  B    0.496256
     4  C    0.223029
     5  C    0.409431
     6  C    0.043095
     7  C    0.175454
     8  C    0.409431
     9  H   -0.361514
    10  C    0.043095
    11  H   -0.194319
    12  N    2.969390
    13  O   -1.472458
    14  O   -1.472458
    15  H   -0.361514
    16  H   -0.194319
 Sum of Mulliken charges =  -0.00000

 Dipole moment (field-independent basis, Debye):
    X=             -2.4825    Y=             -0.0000    Z=              0.0016  Tot=              2.4825

 Test job not archived.
 1\1\GINC-SE080\SP\RHF\Aug-CC-pVDZ\C6H4B1Cl2N1O2\OHZDE\09-Apr-2025\0\\#
 t hf aug-cc-pvdz iop(5/13=1,5/36=2,99/5=2) pseudo=read geom=check gues
 s=(read,tcheck) scf=(maxcycle=1)\\title\\0,1\Cl,0,3.179103,-1.505027,-
 0.000443\Cl,0,3.179103,1.505027,-0.000437\B,0,2.256281,0.,0.000727\C,0
 ,0.703373,0.,0.000482\C,0,-0.021301,1.207526,0.000372\C,0,-1.409678,1.
 217083,0.000168\C,0,-2.080038,0.,0.000065\C,0,-0.021301,-1.207526,0.00
 0367\H,0,0.509873,-2.150824,0.000445\C,0,-1.409678,-1.217083,0.000163\
 H,0,-1.975603,-2.137894,0.000077\N,0,-3.565808,0.,-0.00016\O,0,-4.1279

 Normal termination of Gaussian 16 at Wed Apr  9 00:16:35 2025.
