 Gaussian 16, Revision C.01,

 ----------------------------------------------------------------------
 #t hf aug-cc-pvdz symm=none int=(grid=ultrafine) guess=(read,tcheck) s
 table=(opt,rrhf)
 ----------------------------------------------------------------------
 -----
 title
 -----
 Symbolic Z-matrix:
 Charge =  0 Multiplicity = 1

 SCF Done:  E(RHF) =  -666.830294692     A.U. after   14 cycles
 Normal termination of Gaussian 16 at Tue Apr  8 23:18:50 2025.
 Gaussian 16:  ES64L-G16RevC.01  3-Jul-2019

 ----------------------------------------------------------------------
 #t hf aug-cc-pvdz iop(5/13=1,5/36=2,99/5=2) pseudo=read geom=check gue
 ss=(read,tcheck) scf=(maxcycle=1)
 ----------------------------------------------------------------------
 -----
 title
 -----
 Structure from the checkpoint file:  "BDE49_nonexpt_1065_mol1.chk"
 Charge =  0 Multiplicity = 1

                         Standard orientation:
 ---------------------------------------------------------------------
 Center     Atomic      Atomic             Coordinates (Angstroms)
 Number     Number       Type             X           Y           Z
 ---------------------------------------------------------------------
      1         17           0        1.762281   -0.088096   -0.000002
      2          8           0        0.155070   -0.736864   -0.000001
      3          6           0       -0.879881    0.204364    0.000001
      4          6           0       -2.162829   -0.581961    0.000002
      5          7           0       -0.809645    1.454436    0.000002
      6          1           0       -2.217515   -1.221760   -0.883070
      7          1           0       -2.991603    0.122657    0.000004
      8          1           0       -2.217512   -1.221762    0.883072
      9          1           0        0.151070    1.797943    0.000001
 ---------------------------------------------------------------------

 SCF Done:  E(RHF) =  -667.114580281     A.U. after    2 cycles

 The electronic state is 1-A.
 Alpha  occ. eigenvalues -- -105.64184 -20.65743 -15.49927 -11.36904 -11.25776
 Alpha  occ. eigenvalues --  -10.68382  -7.85366  -7.84825  -7.84788  -1.52327
 Alpha  occ. eigenvalues --   -1.23032  -1.07411  -0.99872  -0.80225  -0.75535
 Alpha  occ. eigenvalues --   -0.66851  -0.66839  -0.59219  -0.58747  -0.55844
 Alpha  occ. eigenvalues --   -0.49896  -0.49489  -0.48879  -0.44954
 Alpha virt. eigenvalues --    0.03695   0.04590   0.05481   0.05956   0.06420
 Alpha virt. eigenvalues --    0.08655   0.11171   0.12139   0.13898   0.14742
 Alpha virt. eigenvalues --    0.15046   0.15534   0.16240   0.16733   0.17425

 Mulliken charges:
               1
     1  Cl   0.340902
     2  O   -1.229491
     3  C   -0.018032
     4  C   -0.464957
     5  N    0.545501
     6  H    0.228376
     7  H    0.197646
     8  H    0.228375
     9  H    0.171679
 Sum of Mulliken charges =  -0.00000

 Dipole moment (field-independent basis, Debye):
    X=             -0.0759    Y=             -1.4739    Z=             -0.0000  Tot=              1.4759

 Test job not archived.
 1\1\GINC-SE102\SP\RHF\Aug-CC-pVDZ\C2H4Cl1N1O1\OHZDE\08-Apr-2025\0\\#t
 hf aug-cc-pvdz iop(5/13=1,5/36=2,99/5=2) pseudo=read geom=check guess=
 (read,tcheck) scf=(maxcycle=1)\\title\\0,1\Cl,0,1.762281,-0.088096,-0.
 000002\O,0,0.15507,-0.736864,-0.000001\C,0,-0.879881,0.204364,0.000001
 \C,0,-2.162829,-0.581961,0.000002\N,0,-0.809645,1.454436,0.000002\H,0,
 -2.217515,-1.22176,-0.88307\H,0,-2.991603,0.122657,0.000004\H,0,-2.217
 512,-1.221762,0.883072\H,0,0.15107,1.797943,0.000001\\Version=ES64L-G1
 6RevC.01\State=1-A\HF=-667.1145803\RMSD=1.469e-02\Dipole=-0.0298521,-0

 Normal termination of Gaussian 16 at Tue Apr  8 23:18:53 2025.
