 Gaussian 16, Revision C.01,

 ----------------------------------------------------------------------
 #t hf aug-cc-pvdz symm=none int=(grid=ultrafine) guess=(read,tcheck) s
 table=(opt,rrhf)
 ----------------------------------------------------------------------
 -----
 title
 -----
 Symbolic Z-matrix:
 Charge =  0 Multiplicity = 1

 SCF Done:  E(RHF) =  -2234.20414457     A.U. after   13 cycles
 Normal termination of Gaussian 16 at Tue Apr  8 23:42:30 2025.
 Gaussian 16:  ES64L-G16RevC.01  3-Jul-2019

 ----------------------------------------------------------------------
 #t hf aug-cc-pvdz iop(5/13=1,5/36=2,99/5=2) pseudo=read geom=check gue
 ss=(read,tcheck) scf=(maxcycle=1)
 ----------------------------------------------------------------------
 -----
 title
 -----
 Structure from the checkpoint file:  "BDE49_nonexpt_1681_mol1.chk"
 Charge =  0 Multiplicity = 1

                         Standard orientation:
 ---------------------------------------------------------------------
 Center     Atomic      Atomic             Coordinates (Angstroms)
 Number     Number       Type             X           Y           Z
 ---------------------------------------------------------------------
      1         14           0       -0.670146   -0.002387   -0.005397
      2         15           0        1.599578   -0.015111   -0.141125
      3         17           0       -1.270269    1.943348   -0.293054
      4         17           0       -1.333264   -0.647794    1.824400
      5         17           0       -1.452057   -1.189695   -1.479714
      6          8           0        2.146961    0.339755   -1.456955
      7          8           0        2.092282    0.937161    1.063156
      8          1           0        2.340251    1.815446    0.745902
      9          8           0        1.909886   -1.472037    0.435228
     10          1           0        2.800134   -1.793986    0.237359
 ---------------------------------------------------------------------

 SCF Done:  E(RHF) =  -2234.73151740     A.U. after    2 cycles

 The electronic state is 1-A.
 Alpha  occ. eigenvalues -- -105.59513-105.59512-105.59421 -84.44980 -69.69258
 Alpha  occ. eigenvalues --  -20.61616 -20.61266 -20.52637 -10.64521 -10.64513
 Alpha  occ. eigenvalues --  -10.64428  -7.81414  -7.81408  -7.81323  -7.81076
 Alpha  occ. eigenvalues --   -7.81071  -7.81068  -7.81064  -7.80981  -7.80975
 Alpha  occ. eigenvalues --   -6.90322  -6.35043  -4.44419  -4.43718  -4.42607
 Alpha  occ. eigenvalues --   -4.10381  -4.10378  -4.10231  -1.55381  -1.49465
 Alpha  occ. eigenvalues --   -1.40806  -1.12766  -1.07487  -1.07459  -0.89422
 Alpha  occ. eigenvalues --   -0.75965  -0.74081  -0.68987  -0.65945  -0.63042
 Alpha  occ. eigenvalues --   -0.60265  -0.60081  -0.57130  -0.56920  -0.54946
 Alpha  occ. eigenvalues --   -0.52411  -0.52354  -0.50781  -0.49882  -0.49334
 Alpha  occ. eigenvalues --   -0.48369  -0.47603  -0.43431
 Alpha virt. eigenvalues --    0.03221   0.04238   0.05426   0.06532   0.07048
 Alpha virt. eigenvalues --    0.08082   0.09886   0.10208   0.10333   0.11153
 Alpha virt. eigenvalues --    0.11663   0.13035   0.13790   0.14664   0.14950

 Mulliken charges:
               1
     1  Si   1.825042
     2  P    3.019733
     3  Cl  -0.522959
     4  Cl  -0.511338
     5  Cl  -0.507742
     6  O   -1.434152
     7  O   -1.291135
     8  H    0.340123
     9  O   -1.279099
    10  H    0.361527
 Sum of Mulliken charges =  -0.00000

 Dipole moment (field-independent basis, Debye):
    X=              1.2127    Y=             -0.1082    Z=              1.7903  Tot=              2.1651

 Test job not archived.
 1\1\GINC-SE454\SP\RHF\Aug-CC-pVDZ\Cl3H2O3P1Si1\OHZDE\08-Apr-2025\0\\#t
  hf aug-cc-pvdz iop(5/13=1,5/36=2,99/5=2) pseudo=read geom=check guess
 =(read,tcheck) scf=(maxcycle=1)\\title\\0,1\Si,0,-0.670146,-0.002387,-
 0.005397\P,0,1.599578,-0.015111,-0.141125\Cl,0,-1.270269,1.943348,-0.2
 93054\Cl,0,-1.333264,-0.647794,1.8244\Cl,0,-1.452057,-1.189695,-1.4797
 14\O,0,2.146961,0.339755,-1.456955\O,0,2.092282,0.937161,1.063156\H,0,
 2.340251,1.815446,0.745902\O,0,1.909886,-1.472037,0.435228\H,0,2.80013
 4,-1.793986,0.237359\\Version=ES64L-G16RevC.01\State=1-A\HF=-2234.7315

 Normal termination of Gaussian 16 at Tue Apr  8 23:42:35 2025.
