 Gaussian 16, Revision C.01,

 ----------------------------------------------------------------------
 #t hf aug-cc-pvdz symm=none int=(grid=ultrafine) guess=(read,tcheck) s
 table=(opt,rrhf)
 ----------------------------------------------------------------------
 -----
 title
 -----
 Symbolic Z-matrix:
 Charge =  0 Multiplicity = 1

 SCF Done:  E(RHF) =  -1325.09037177     A.U. after   13 cycles
 Normal termination of Gaussian 16 at Tue Apr  8 23:45:25 2025.
 Gaussian 16:  ES64L-G16RevC.01  3-Jul-2019

 ----------------------------------------------------------------------
 #t hf aug-cc-pvdz iop(5/13=1,5/36=2,99/5=2) pseudo=read geom=check gue
 ss=(read,tcheck) scf=(maxcycle=1)
 ----------------------------------------------------------------------
 -----
 title
 -----
 Structure from the checkpoint file:  "BDE49_nonexpt_1760_mol1.chk"
 Charge =  0 Multiplicity = 1

                         Standard orientation:
 ---------------------------------------------------------------------
 Center     Atomic      Atomic             Coordinates (Angstroms)
 Number     Number       Type             X           Y           Z
 ---------------------------------------------------------------------
      1         14           0        1.706037    1.003653    0.000003
      2          6           0       -0.099023    0.581978   -0.000001
      3          6           0       -0.600983   -0.652742    0.000004
      4         17           0        2.855685   -0.739567    0.000003
      5          6           0       -2.043059   -1.060533    0.000002
      6          1           0       -2.269779   -1.660714   -0.883152
      7         17           0       -3.227280    0.305048   -0.000008
      8          1           0       -2.269783   -1.660706    0.883160
      9          1           0       -0.796356    1.419613   -0.000007
     10          1           0        0.068828   -1.512520    0.000010
     11          1           0        2.079039    1.768887    1.206261
     12          1           0        2.079042    1.768889   -1.206253
 ---------------------------------------------------------------------

 SCF Done:  E(RHF) =  -1325.40101460     A.U. after    2 cycles

 The electronic state is 1-A.
 Alpha  occ. eigenvalues -- -105.56582-105.55872 -69.58214 -11.32380 -11.28111
 Alpha  occ. eigenvalues --  -11.24454 -10.61382 -10.60880  -7.78322  -7.77958
 Alpha  occ. eigenvalues --   -7.77938  -7.77764  -7.77468  -7.77455  -6.24867
 Alpha  occ. eigenvalues --   -4.00331  -4.00153  -4.00135  -1.13751  -1.06107
 Alpha  occ. eigenvalues --   -1.03816  -0.93418  -0.79284  -0.73021  -0.65712
 Alpha  occ. eigenvalues --   -0.64982  -0.62055  -0.54792  -0.54205  -0.53361
 Alpha  occ. eigenvalues --   -0.50337  -0.46123  -0.45917  -0.45806  -0.45593
 Alpha  occ. eigenvalues --   -0.39692
 Alpha virt. eigenvalues --    0.03272   0.03798   0.04599   0.04743   0.06113
 Alpha virt. eigenvalues --    0.06438   0.06855   0.07847   0.09671   0.10080
 Alpha virt. eigenvalues --    0.10755   0.11814   0.12877   0.13346   0.14615

 Mulliken charges:
               1
     1  Si   1.164382
     2  C   -0.666244
     3  C    0.887581
     4  Cl  -0.577451
     5  C   -0.933823
     6  H    0.340904
     7  Cl  -0.034365
     8  H    0.340903
     9  H   -0.077229
    10  H   -0.159310
    11  H   -0.142673
    12  H   -0.142673
 Sum of Mulliken charges =  -0.00000

 Dipole moment (field-independent basis, Debye):
    X=             -0.4559    Y=             -0.5901    Z=              0.0000  Tot=              0.7457

 Test job not archived.
 1\1\GINC-SE461\SP\RHF\Aug-CC-pVDZ\C3H6Cl2Si1\OHZDE\08-Apr-2025\0\\#t h
 f aug-cc-pvdz iop(5/13=1,5/36=2,99/5=2) pseudo=read geom=check guess=(
 read,tcheck) scf=(maxcycle=1)\\title\\0,1\Si,0,1.706037,1.003653,0.000
 003\C,0,-0.099023,0.581978,-0.000001\C,0,-0.600983,-0.652742,0.000004\
 Cl,0,2.855685,-0.739567,0.000003\C,0,-2.043059,-1.060533,0.000002\H,0,
 -2.269779,-1.660714,-0.883152\Cl,0,-3.22728,0.305048,-0.000008\H,0,-2.
 269783,-1.660706,0.88316\H,0,-0.796356,1.419613,-0.000007\H,0,0.068828
 ,-1.51252,0.00001\H,0,2.079039,1.768887,1.206261\H,0,2.079042,1.768889

 Normal termination of Gaussian 16 at Tue Apr  8 23:45:30 2025.
