 Gaussian 16, Revision C.01,

 ----------------------------------------------------------------------
 #t hf aug-cc-pvdz symm=none int=(grid=ultrafine) guess=(read,tcheck) s
 table=opt
 ----------------------------------------------------------------------
 -----
 title
 -----
 Symbolic Z-matrix:
 Charge =  0 Multiplicity = 2

 SCF Done:  E(UHF) =  -802.019061238     A.U. after   19 cycles
 Normal termination of Gaussian 16 at Tue Apr  8 23:55:00 2025.
 Gaussian 16:  ES64L-G16RevC.01  3-Jul-2019

 ----------------------------------------------------------------------
 #t hf aug-cc-pvdz iop(5/13=1,5/36=2,99/5=2) pseudo=read geom=check gue
 ss=(read,tcheck) scf=(maxcycle=1)
 ----------------------------------------------------------------------
 -----
 title
 -----
 Structure from the checkpoint file:  "BDE49_nonexpt_1967_mol2.chk"
 Charge =  0 Multiplicity = 2

                         Standard orientation:
 ---------------------------------------------------------------------
 Center     Atomic      Atomic             Coordinates (Angstroms)
 Number     Number       Type             X           Y           Z
 ---------------------------------------------------------------------
      1         14           0        1.624007   -0.329368    0.040841
      2         16           0       -0.503942    0.258945   -0.481570
      3          1           0        2.417765    0.768933   -0.579352
      4          1           0        1.646705   -0.120088    1.518415
      5          8           0       -0.718830    1.413995    0.479400
      6          6           0       -1.382897   -1.188546    0.219894
      7          1           0       -1.151690   -2.069178   -0.382341
      8          1           0       -2.447942   -0.959666    0.162172
      9          1           0       -1.089849   -1.332652    1.259877
 ---------------------------------------------------------------------

 SCF Done:  E(UHF) =  -802.227403424     A.U. after    2 cycles

 The electronic state is 2-A.
 Alpha  occ. eigenvalues --  -94.05740 -69.58075 -20.49895 -11.28293  -8.32796
 Alpha  occ. eigenvalues --   -6.30610  -6.30538  -6.30318  -6.25021  -4.00884
 Alpha  occ. eigenvalues --   -4.00011  -3.99964  -1.42186  -1.05390  -0.88739
 Alpha  occ. eigenvalues --   -0.75128  -0.62877  -0.62562  -0.59079  -0.54375
 Alpha  occ. eigenvalues --   -0.53552  -0.50573  -0.42622  -0.38988  -0.34616
 Alpha virt. eigenvalues --    0.02902   0.03637   0.04352   0.05208   0.06209
 Alpha virt. eigenvalues --    0.07460   0.07942   0.08550   0.10775   0.11320
 Alpha virt. eigenvalues --    0.12033   0.13512   0.13830   0.14614   0.16151

  Beta  occ. eigenvalues --  -94.05689 -69.57537 -20.49452 -11.28308  -8.32741
  Beta  occ. eigenvalues --   -6.30586  -6.30389  -6.30209  -6.24192  -3.99707
  Beta  occ. eigenvalues --   -3.99612  -3.98779  -1.41194  -1.05053  -0.87844
  Beta  occ. eigenvalues --   -0.71554  -0.62736  -0.62064  -0.58564  -0.53295
  Beta  occ. eigenvalues --   -0.52331  -0.49398  -0.39683  -0.35174
  Beta virt. eigenvalues --   -0.01009   0.03523   0.03923   0.04637   0.05472
  Beta virt. eigenvalues --    0.06405   0.07940   0.08262   0.08930   0.11183
  Beta virt. eigenvalues --    0.12331   0.12601   0.13813   0.14210   0.15988

 Mulliken charges and spin densities:
               1          2
     1  Si   0.766881   0.789579
     2  S    0.944718   0.044983
     3  H   -0.150806   0.051110
     4  H   -0.090036   0.056895
     5  O   -1.338871   0.066188
     6  C   -0.702694  -0.005022
     7  H    0.195683  -0.001968
     8  H    0.202860  -0.003139
     9  H    0.172265   0.001373
 Sum of Mulliken charges =  -0.00000   1.00000

 Dipole moment (field-independent basis, Debye):
    X=              1.1418    Y=             -4.1648    Z=             -0.8564  Tot=              4.4026
                          Isotropic Fermi Contact Couplings
        Atom                 a.u.       MegaHertz       Gauss      10(-4) cm-1
     1  Si(29)             0.58789    -522.47619    -186.43250    -174.27930
     2  S(33)              0.00487       1.67237       0.59674       0.55784
     3  H(1)               0.00905      40.43362      14.42772      13.48720
     4  H(1)               0.01230      54.98543      19.62017      18.34117
     5  O(17)              0.03377     -20.46853      -7.30368      -6.82757
     6  C(13)             -0.00299      -3.36325      -1.20009      -1.12186
     7  H(1)               0.00023       1.03504       0.36933       0.34525
     8  H(1)              -0.00055      -2.45389      -0.87561      -0.81853

 1\1\GINC-SE109\SP\UHF\Aug-CC-pVDZ\C1H5O1S1Si1(2)\OHZDE\08-Apr-2025\0\\
 #t hf aug-cc-pvdz iop(5/13=1,5/36=2,99/5=2) pseudo=read geom=check gue
 ss=(read,tcheck) scf=(maxcycle=1)\\title\\0,2\Si,0,-1.624007,0.329368,
 0.040841\S,0,0.503942,-0.258945,-0.48157\H,0,-2.417765,-0.768933,-0.57
 9352\H,0,-1.646705,0.120088,1.518415\O,0,0.71883,-1.413995,0.4794\C,0,
 1.382897,1.188546,0.219894\H,0,1.15169,2.069178,-0.382341\H,0,2.447942
 ,0.959666,0.162172\H,0,1.089849,1.332652,1.259877\\Version=ES64L-G16Re
 vC.01\State=2-A\HF=-802.2274034\S2=0.758535\S2-1=0.\S2A=0.750026\RMSD=

 Normal termination of Gaussian 16 at Tue Apr  8 23:55:03 2025.
