 Gaussian 16, Revision C.01,

 ----------------------------------------------------------------------
 #t hf aug-cc-pvdz symm=none int=(grid=ultrafine) guess=(read,tcheck) s
 table=opt
 ----------------------------------------------------------------------
 -----
 title
 -----
 Symbolic Z-matrix:
 Charge =  0 Multiplicity = 2

 SCF Done:  E(UHF) =  -192.444925919     A.U. after   18 cycles
 Normal termination of Gaussian 16 at Wed Apr  9 00:35:57 2025.
 Gaussian 16:  ES64L-G16RevC.01  3-Jul-2019

 ----------------------------------------------------------------------
 #t hf aug-cc-pvdz iop(5/13=1,5/36=2,99/5=2) pseudo=read geom=check gue
 ss=(read,tcheck) scf=(maxcycle=1)
 ----------------------------------------------------------------------
 -----
 title
 -----
 Structure from the checkpoint file:  "BDE49_nonexpt_510_mol2.chk"
 Charge =  0 Multiplicity = 2

                         Standard orientation:
 ---------------------------------------------------------------------
 Center     Atomic      Atomic             Coordinates (Angstroms)
 Number     Number       Type             X           Y           Z
 ---------------------------------------------------------------------
      1          1           0       -2.879287    0.564741    0.000004
      2          5           0       -1.981694   -0.213897    0.000001
      3          6           0        0.565519    0.007628   -0.000001
      4          8           0        1.731798   -0.011968    0.000000
      5          7           0       -0.637106    0.079245   -0.000001
 ---------------------------------------------------------------------

 SCF Done:  E(UHF) =  -192.624398949     A.U. after    2 cycles

 The electronic state is 2-A.
 Alpha  occ. eigenvalues --  -20.62270 -15.54507 -11.44323  -7.66890  -1.56934
 Alpha  occ. eigenvalues --   -1.29381  -0.93399  -0.75408  -0.69699  -0.67897
 Alpha  occ. eigenvalues --   -0.62255  -0.53287  -0.50966  -0.33863
 Alpha virt. eigenvalues --    0.02964   0.04163   0.05316   0.05358   0.07442
 Alpha virt. eigenvalues --    0.09542   0.09906   0.10610   0.12264   0.13588
 Alpha virt. eigenvalues --    0.18262   0.19973   0.21497   0.23165   0.23675

  Beta  occ. eigenvalues --  -20.61969 -15.54894 -11.44074  -7.65024  -1.56315
  Beta  occ. eigenvalues --   -1.29433  -0.91898  -0.74926  -0.68000  -0.67927
  Beta  occ. eigenvalues --   -0.59232  -0.51353  -0.50543
  Beta virt. eigenvalues --    0.03747   0.04069   0.04525   0.05386   0.07829
  Beta virt. eigenvalues --    0.08577   0.09959   0.11078   0.11371   0.12764
  Beta virt. eigenvalues --    0.14180   0.19836   0.19970   0.22519   0.25327

 Mulliken charges and spin densities:
               1          2
     1  H    0.316696   0.029399
     2  B   -0.482469   0.987632
     3  C    0.119811   0.069628
     4  O   -0.741235   0.056277
     5  N    0.787197  -0.142936
 Sum of Mulliken charges =  -0.00000   1.00000

 Dipole moment (field-independent basis, Debye):
    X=             -0.7198    Y=              0.2952    Z=              0.0000  Tot=              0.7779
                          Isotropic Fermi Contact Couplings
        Atom                 a.u.       MegaHertz       Gauss      10(-4) cm-1
     1  H(1)               0.01531      68.43847      24.42055      22.82862
     2  B(11)              0.30497     437.43464     156.08756     145.91249
     3  C(13)              0.01522      17.10702       6.10421       5.70629
     4  O(17)              0.02519     -15.26804      -5.44802      -5.09287
     5  N(14)             -0.04164     -13.45394      -4.80070      -4.48775
 --------------------------------------------------------
       Center         ----  Spin Dipole Couplings  ----
                      3XX-RR        3YY-RR        3ZZ-RR

 Normal termination of Gaussian 16 at Wed Apr  9 00:35:58 2025.
