 Gaussian 16, Revision C.01,

 ----------------------------------------------------------------------
 #t hf aug-cc-pvdz symm=none int=(grid=ultrafine) guess=(read,tcheck) s
 table=(opt,rrhf)
 ----------------------------------------------------------------------
 -----
 title
 -----
 Symbolic Z-matrix:
 Charge =  0 Multiplicity = 1

 SCF Done:  E(RHF) =  -551.604802303     A.U. after   13 cycles
 Normal termination of Gaussian 16 at Tue Apr  8 23:22:55 2025.
 Gaussian 16:  ES64L-G16RevC.01  3-Jul-2019

 ----------------------------------------------------------------------
 #t hf aug-cc-pvdz iop(5/13=1,5/36=2,99/5=2) pseudo=read geom=check gue
 ss=(read,tcheck) scf=(maxcycle=1)
 ----------------------------------------------------------------------
 -----
 title
 -----
 Structure from the checkpoint file:  "BDE49_nonexpt_1218_mol1.chk"
 Charge =  0 Multiplicity = 1

                         Standard orientation:
 ---------------------------------------------------------------------
 Center     Atomic      Atomic             Coordinates (Angstroms)
 Number     Number       Type             X           Y           Z
 ---------------------------------------------------------------------
      1         16           0       -1.654161    0.003914   -0.093551
      2          8           0       -0.062542   -0.509083    0.088118
      3          6           0        0.934438    0.525937   -0.036721
      4          6           0        2.288285   -0.156609    0.000549
      5          1           0        0.825527    1.236008    0.792580
      6          1           0        0.782897    1.071466   -0.974125
      7          1           0        2.416243   -0.707917    0.934448
      8          1           0        3.085074    0.588505   -0.074565
      9          1           0        2.388516   -0.857523   -0.830701
     10          1           0       -1.867679    0.463532    1.161261
 ---------------------------------------------------------------------

 SCF Done:  E(RHF) =  -551.825873889     A.U. after    2 cycles

 The electronic state is 1-A.
 Alpha  occ. eigenvalues --  -94.00255 -20.57890 -11.29645 -11.23354  -8.27679
 Alpha  occ. eigenvalues --   -6.25550  -6.25334  -6.25081  -1.46794  -1.04686
 Alpha  occ. eigenvalues --   -0.95795  -0.84696  -0.68013  -0.65671  -0.60136
 Alpha  occ. eigenvalues --   -0.57614  -0.54425  -0.51612  -0.49217  -0.43944
 Alpha  occ. eigenvalues --   -0.37517
 Alpha virt. eigenvalues --    0.03731   0.04221   0.04781   0.05049   0.06672
 Alpha virt. eigenvalues --    0.07847   0.09112   0.10859   0.12414   0.13347
 Alpha virt. eigenvalues --    0.15415   0.15759   0.16463   0.16666   0.17248

 Mulliken charges:
               1
     1  S    0.256024
     2  O   -1.261472
     3  C    0.475625
     4  C   -0.495813
     5  H    0.092296
     6  H    0.130393
     7  H    0.156602
     8  H    0.180930
     9  H    0.158013
    10  H    0.307403
 Sum of Mulliken charges =  -0.00000

 Dipole moment (field-independent basis, Debye):
    X=              0.9667    Y=              1.4534    Z=              0.6753  Tot=              1.8716

 Test job not archived.
 1\1\GINC-SE118\SP\RHF\Aug-CC-pVDZ\C2H6O1S1\OHZDE\08-Apr-2025\0\\#t hf
 aug-cc-pvdz iop(5/13=1,5/36=2,99/5=2) pseudo=read geom=check guess=(re
 ad,tcheck) scf=(maxcycle=1)\\title\\0,1\S,0,-1.654161,0.003914,-0.0935
 51\O,0,-0.062542,-0.509083,0.088118\C,0,0.934438,0.525937,-0.036721\C,
 0,2.288285,-0.156609,0.000549\H,0,0.825527,1.236008,0.79258\H,0,0.7828
 97,1.071466,-0.974125\H,0,2.416243,-0.707917,0.934448\H,0,3.085074,0.5
 88505,-0.074565\H,0,2.388516,-0.857523,-0.830701\H,0,-1.867679,0.46353
 2,1.161261\\Version=ES64L-G16RevC.01\State=1-A\HF=-551.8258739\RMSD=7.

 Normal termination of Gaussian 16 at Tue Apr  8 23:22:58 2025.
