 Gaussian 16, Revision C.01,

 ----------------------------------------------------------------------
 #t hf aug-cc-pvdz symm=none int=(grid=ultrafine) guess=(read,tcheck) s
 table=(opt,rrhf)
 ----------------------------------------------------------------------
 -----
 title
 -----
 Symbolic Z-matrix:
 Charge =  0 Multiplicity = 1

 SCF Done:  E(RHF) =  -1764.93936476     A.U. after   18 cycles
 Normal termination of Gaussian 16 at Wed Apr  9 00:55:26 2025.
 Gaussian 16:  ES64L-G16RevC.01  3-Jul-2019

 ----------------------------------------------------------------------
 #t hf aug-cc-pvdz iop(5/13=1,5/36=2,99/5=2) pseudo=read geom=check gue
 ss=(read,tcheck) scf=(maxcycle=1)
 ----------------------------------------------------------------------
 -----
 title
 -----
 Structure from the checkpoint file:  "BDE49_nonexpt_903_mol1.chk"
 Charge =  0 Multiplicity = 1

                         Standard orientation:
 ---------------------------------------------------------------------
 Center     Atomic      Atomic             Coordinates (Angstroms)
 Number     Number       Type             X           Y           Z
 ---------------------------------------------------------------------
      1          6           0       -3.507753   -0.082520    0.000044
      2          6           0       -3.035420    1.225235   -0.000031
      3          6           0       -1.664460    1.434344   -0.000102
      4          6           0       -2.655434   -1.179380    0.000051
      5          6           0       -1.283803   -0.958843   -0.000021
      6          6           0       -0.778626    0.347166   -0.000099
      7          1           0       -3.737860    2.046684   -0.000034
      8          1           0       -1.258811    2.437245   -0.000161
      9          1           0       -3.070211   -2.177301    0.000113
     10          1           0       -0.615385   -1.809135   -0.000014
     11          6           0        0.687010    0.673761   -0.000178
     12         16           0        1.780565   -0.776614   -0.000215
     13          5           0        3.536795   -0.207168   -0.000126
     14         16           0        4.661003   -1.641039   -0.000028
     15          8           0        1.073779    1.818322   -0.000187
     16          7           0       -4.974094   -0.315478    0.000120
     17          8           0       -5.359210   -1.475258    0.000185
     18          8           0       -5.698966    0.668261    0.000113
     19         16           0        4.202021    1.463665    0.000271
     20          1           0        5.810357   -0.941936    0.000186
     21          1           0        3.015249    2.103261    0.000378
 ---------------------------------------------------------------------

 SCF Done:  E(RHF) =  -1765.67228599     A.U. after    2 cycles

 The electronic state is 1-A.
 Alpha  occ. eigenvalues --  -93.98846 -93.97135 -93.96359 -20.60630 -20.60614
 Alpha  occ. eigenvalues --  -20.58733 -15.80884 -11.41913 -11.34131 -11.30771
 Alpha  occ. eigenvalues --  -11.30035 -11.29941 -11.29823 -11.29510  -8.27240
 Alpha  occ. eigenvalues --   -8.25430  -8.24725  -7.70010  -6.25062  -6.24850
 Alpha  occ. eigenvalues --   -6.24728  -6.23267  -6.23125  -6.22951  -6.22551
 Alpha  occ. eigenvalues --   -6.22426  -6.22265  -1.68641  -1.52960  -1.52387
 Alpha  occ. eigenvalues --   -1.22784  -1.14164  -1.09801  -1.07620  -1.05399
 Alpha  occ. eigenvalues --   -1.01677  -1.00884  -0.90032  -0.89290  -0.82623
 Alpha  occ. eigenvalues --   -0.81883  -0.76741  -0.76155  -0.73305  -0.72408
 Alpha  occ. eigenvalues --   -0.68768  -0.68116  -0.65614  -0.62525  -0.62005
 Alpha  occ. eigenvalues --   -0.61737  -0.60311  -0.56049  -0.55592  -0.55270
 Alpha  occ. eigenvalues --   -0.51354  -0.50352  -0.48728  -0.47729  -0.46551
 Alpha  occ. eigenvalues --   -0.46544  -0.44082  -0.41517  -0.40014  -0.39439
 Alpha  occ. eigenvalues --   -0.38774
 Alpha virt. eigenvalues --   -0.01028   0.02934   0.03338   0.03943   0.04746
 Alpha virt. eigenvalues --    0.04942   0.05380   0.05787   0.06188   0.06985
 Alpha virt. eigenvalues --    0.07087   0.07845   0.08978   0.09055   0.09634

 Mulliken charges:
               1
     1  C   -0.715081
     2  C    0.149878
     3  C   -0.248645
     4  C    0.009175
     5  C    0.885804
     6  C    2.376389
     7  H   -0.209064
     8  H   -0.352582
     9  H   -0.225033
    10  H   -0.217229
    11  C   -0.676686
    12  S    0.193434
    13  B    1.164746
    14  S   -0.672673
    15  O   -1.553689
    16  N    2.995757
    17  O   -1.469918
    18  O   -1.474069
    19  S   -0.637836
    20  H    0.251511
    21  H    0.425811
 Sum of Mulliken charges =  -0.00000

 Dipole moment (field-independent basis, Debye):
    X=              2.2788    Y=              0.4322    Z=              0.0000  Tot=              2.3194

 Test job not archived.
 1\1\GINC-SE174\SP\RHF\Aug-CC-pVDZ\C7H6B1N1O3S3\OHZDE\09-Apr-2025\0\\#t
  hf aug-cc-pvdz iop(5/13=1,5/36=2,99/5=2) pseudo=read geom=check guess
 =(read,tcheck) scf=(maxcycle=1)\\title\\0,1\C,0,-3.507753,-0.08252,0.0
 00044\C,0,-3.03542,1.225235,-0.000031\C,0,-1.66446,1.434344,-0.000102\
 C,0,-2.655434,-1.17938,0.000051\C,0,-1.283803,-0.958843,-0.000021\C,0,
 -0.778626,0.347166,-0.000099\H,0,-3.73786,2.046684,-0.000034\H,0,-1.25
 8811,2.437245,-0.000161\H,0,-3.070211,-2.177301,0.000113\H,0,-0.615385
 ,-1.809135,-0.000014\C,0,0.68701,0.673761,-0.000178\S,0,1.780565,-0.77

 Normal termination of Gaussian 16 at Wed Apr  9 00:55:47 2025.
