 Gaussian 16, Revision C.01,

 ----------------------------------------------------------------------
 #t hf aug-cc-pvdz symm=none int=(grid=ultrafine) guess=(read,tcheck) s
 table=(opt,rrhf)
 ----------------------------------------------------------------------
 -----
 title
 -----
 Symbolic Z-matrix:
 Charge =  0 Multiplicity = 1

 SCF Done:  E(RHF) =  -405.184691719     A.U. after   11 cycles
 Normal termination of Gaussian 16 at Tue Apr  8 23:59:22 2025.
 Gaussian 16:  ES64L-G16RevC.01  3-Jul-2019

 ----------------------------------------------------------------------
 #t hf aug-cc-pvdz iop(5/13=1,5/36=2,99/5=2) pseudo=read geom=check gue
 ss=(read,tcheck) scf=(maxcycle=1)
 ----------------------------------------------------------------------
 -----
 title
 -----
 Structure from the checkpoint file:  "BDE49_nonexpt_2084_mol1.chk"
 Charge =  0 Multiplicity = 1

                         Standard orientation:
 ---------------------------------------------------------------------
 Center     Atomic      Atomic             Coordinates (Angstroms)
 Number     Number       Type             X           Y           Z
 ---------------------------------------------------------------------
      1         14           0       -1.066109    0.088766   -0.000000
      2          8           0        0.451077   -0.552576   -0.000000
      3          6           0        1.656901    0.200033    0.000001
      4          1           0        2.491232   -0.502976    0.000001
      5          1           0        1.733494    0.834065    0.891528
      6          1           0        1.733494    0.834065   -0.891527
      7          1           0       -1.996274   -1.056009   -0.000002
      8          1           0       -1.293226    0.934274   -1.199934
      9          1           0       -1.293227    0.934271    1.199935
 ---------------------------------------------------------------------

 SCF Done:  E(RHF) =  -405.339243463     A.U. after    2 cycles

 The electronic state is 1-A.
 Alpha  occ. eigenvalues --  -69.55584 -20.53901 -11.29435  -6.22219  -3.97724
 Alpha  occ. eigenvalues --   -3.97576  -3.97549  -1.44108  -0.94172  -0.74816
 Alpha  occ. eigenvalues --   -0.63777  -0.63153  -0.61525  -0.50820  -0.50425
 Alpha  occ. eigenvalues --   -0.46035  -0.43442
 Alpha virt. eigenvalues --    0.03643   0.04443   0.05028   0.05359   0.06782
 Alpha virt. eigenvalues --    0.07513   0.08265   0.09544   0.09610   0.13399
 Alpha virt. eigenvalues --    0.15018   0.15925   0.16134   0.17109   0.18865

 Mulliken charges:
               1
     1  Si   1.581261
     2  O   -1.532512
     3  C    0.399775
     4  H    0.008598
     5  H    0.105916
     6  H    0.105917
     7  H   -0.205634
     8  H   -0.231661
     9  H   -0.231660
 Sum of Mulliken charges =  -0.00000

 Dipole moment (field-independent basis, Debye):
    X=              0.6598    Y=              0.9650    Z=              0.0000  Tot=              1.1690

 Test job not archived.
 1\1\GINC-SE423\SP\RHF\Aug-CC-pVDZ\C1H6O1Si1\OHZDE\08-Apr-2025\0\\#t hf
  aug-cc-pvdz iop(5/13=1,5/36=2,99/5=2) pseudo=read geom=check guess=(r
 ead,tcheck) scf=(maxcycle=1)\\title\\0,1\Si,0,-1.066109,0.088766,0.\O,
 0,0.451077,-0.552576,0.\C,0,1.656901,0.200033,0.000001\H,0,2.491232,-0
 .502976,0.000001\H,0,1.733494,0.834065,0.891528\H,0,1.733494,0.834065,
 -0.891527\H,0,-1.996275,-1.056009,-0.000002\H,0,-1.293226,0.934274,-1.
 199934\H,0,-1.293227,0.934271,1.199935\\Version=ES64L-G16RevC.01\State
 =1-A\HF=-405.3392435\RMSD=6.120e-03\Dipole=0.2595808,0.3796762,0.00000

 Normal termination of Gaussian 16 at Tue Apr  8 23:59:24 2025.
