 Gaussian 16, Revision C.01,

 ----------------------------------------------------------------------
 #t hf aug-cc-pvdz symm=none int=(grid=ultrafine) guess=(read,tcheck) s
 table=opt
 ----------------------------------------------------------------------
 -----
 title
 -----
 Symbolic Z-matrix:
 Charge =  0 Multiplicity = 2

 SCF Done:  E(UHF) =  -212.140213953     A.U. after   18 cycles
 Normal termination of Gaussian 16 at Tue Apr  8 22:44:25 2025.
 Gaussian 16:  ES64L-G16RevC.01  3-Jul-2019

 ----------------------------------------------------------------------
 #t hf aug-cc-pvdz iop(5/13=1,5/36=2,99/5=2) pseudo=read geom=check gue
 ss=(read,tcheck) scf=(maxcycle=1)
 ----------------------------------------------------------------------
 -----
 title
 -----
 Structure from the checkpoint file:  "BDE49_expt_1528_mol2.chk"
 Charge =  0 Multiplicity = 2

                         Standard orientation:
 ---------------------------------------------------------------------
 Center     Atomic      Atomic             Coordinates (Angstroms)
 Number     Number       Type             X           Y           Z
 ---------------------------------------------------------------------
      1          6           0        0.000000    0.425355    0.000000
      2          8           0        1.141667    0.181975    0.000000
      3          9           0       -1.014815   -0.445326   -0.000000
 ---------------------------------------------------------------------

 SCF Done:  E(UHF) =  -212.332442045     A.U. after    2 cycles

 The electronic state is 2-A'.
 Alpha  occ. eigenvalues --  -26.54940 -20.62945 -11.47655  -1.69413  -1.56916
 Alpha  occ. eigenvalues --   -0.91486  -0.77704  -0.76902  -0.74495  -0.62581
 Alpha  occ. eigenvalues --   -0.57688  -0.46937
 Alpha virt. eigenvalues --    0.07908   0.08278   0.09023   0.09235   0.12907
 Alpha virt. eigenvalues --    0.21679   0.22596   0.24336   0.27279   0.29587
 Alpha virt. eigenvalues --    0.32165   0.33685   0.35053   0.42696   0.46462

  Beta  occ. eigenvalues --  -26.53857 -20.62440 -11.44969  -1.66245  -1.55038
  Beta  occ. eigenvalues --   -0.85678  -0.73566  -0.72900  -0.70996  -0.59032
  Beta  occ. eigenvalues --   -0.55748
  Beta virt. eigenvalues --    0.02326   0.08371   0.09184   0.09362   0.12896
  Beta virt. eigenvalues --    0.17294   0.22000   0.23077   0.24265   0.28030
  Beta virt. eigenvalues --    0.29681   0.32491   0.34781   0.36970   0.44615

 Mulliken charges and spin densities:
               1          2
     1  C    1.060130   0.865154
     2  O   -0.582716   0.034434
     3  F   -0.477414   0.100411
 Sum of Mulliken charges =  -0.00000   1.00000

 Dipole moment (field-independent basis, Debye):
    X=             -0.9507    Y=              0.4896    Z=             -0.0000  Tot=              1.0693
                          Isotropic Fermi Contact Couplings
        Atom                 a.u.       MegaHertz       Gauss      10(-4) cm-1
     1  C(13)              0.63458     713.38539     254.55365     237.95975
     2  O(17)              0.07085     -42.94659     -15.32441     -14.32544
     3  F(19)              0.20363     856.75440     305.71128     285.78251
 --------------------------------------------------------
       Center         ----  Spin Dipole Couplings  ----
                      3XX-RR        3YY-RR        3ZZ-RR
 --------------------------------------------------------
     1   Atom       -0.206976      0.390279     -0.183303

 Normal termination of Gaussian 16 at Tue Apr  8 22:44:27 2025.
