 Gaussian 16, Revision C.01,

 ----------------------------------------------------------------------
 #t hf aug-cc-pvdz symm=none int=(grid=ultrafine) guess=(read,tcheck) s
 table=(opt,rrhf)
 ----------------------------------------------------------------------
 -----
 title
 -----
 Symbolic Z-matrix:
 Charge =  0 Multiplicity = 1

 SCF Done:  E(RHF) =  -977.079952083     A.U. after   10 cycles

 1\1\GINC-SE455\Stability\RHF\Aug-CC-pVDZ\F4H2Si2\OHZDE\09-Apr-2025\0\\
 #t hf aug-cc-pvdz symm=none int=(grid=ultrafine) guess=(read,tcheck) s
 table=(opt,rrhf)\\title\\0,1\Si,0,0.320995,1.137475,0.\Si,0,-0.320995,
 -1.137475,0.\F,0,0.320995,-1.835398,1.290677\F,0,-0.320995,1.835398,1.
 290677\F,0,0.320999,-1.835397,-1.290677\H,0,-1.767223,-1.412109,-0.000
 002\F,0,-0.320999,1.835397,-1.290677\H,0,1.767223,1.412109,-0.000002\\
 Version=ES64L-G16RevC.01\HF=-977.0799521\RMSD=3.747e-09\Dipole=0.,0.,0
 .0000035\Quadrupole=4.0154942,-2.1563039,-1.8591903,3.1458247,0.,0.\PG

 Normal termination of Gaussian 16 at Wed Apr  9 00:08:31 2025.
 Gaussian 16:  ES64L-G16RevC.01  3-Jul-2019

 ----------------------------------------------------------------------
 #t hf aug-cc-pvdz iop(5/13=1,5/36=2,99/5=2) pseudo=read geom=check gue
 ss=(read,tcheck) scf=(maxcycle=1)
 ----------------------------------------------------------------------
 -----
 title
 -----
 Structure from the checkpoint file:  "BDE49_nonexpt_2306_mol1.chk"
 Charge =  0 Multiplicity = 1

                         Standard orientation:
 ---------------------------------------------------------------------
 Center     Atomic      Atomic             Coordinates (Angstroms)
 Number     Number       Type             X           Y           Z
 ---------------------------------------------------------------------
      1         14           0        0.320995    1.137475    0.000000
      2         14           0       -0.320995   -1.137475    0.000000
      3          9           0        0.320995   -1.835398    1.290677
      4          9           0       -0.320995    1.835398    1.290677
      5          9           0        0.320999   -1.835397   -1.290677
      6          1           0       -1.767223   -1.412109   -0.000002
      7          9           0       -0.320999    1.835397   -1.290677
      8          1           0        1.767223    1.412109   -0.000002
 ---------------------------------------------------------------------

 SCF Done:  E(RHF) =  -977.504563545     A.U. after    2 cycles

 The electronic state is 1-A.
 Alpha  occ. eigenvalues --  -69.64808 -69.64808 -26.48070 -26.48070 -26.48069
 Alpha  occ. eigenvalues --  -26.48069  -6.31018  -6.31007  -4.06412  -4.06401
 Alpha  occ. eigenvalues --   -4.06253  -4.06237  -4.06087  -4.06026  -1.60568
 Alpha  occ. eigenvalues --   -1.60408  -1.58271  -1.58211  -0.83280  -0.79420
 Alpha  occ. eigenvalues --   -0.71627  -0.71087  -0.70410  -0.70013  -0.69178
 Alpha  occ. eigenvalues --   -0.67370  -0.65379  -0.65119  -0.63457  -0.63150
 Alpha  occ. eigenvalues --   -0.59596  -0.56908  -0.45418
 Alpha virt. eigenvalues --    0.04008   0.04584   0.04679   0.04877   0.07275
 Alpha virt. eigenvalues --    0.07761   0.07967   0.09026   0.11212   0.12051
 Alpha virt. eigenvalues --    0.12929   0.17144   0.17193   0.20247   0.20852

 Mulliken charges:
               1
     1  Si   1.745278
     2  Si   1.745278
     3  F   -0.788036
     4  F   -0.788036
     5  F   -0.788035
     6  H   -0.169207
     7  F   -0.788035
     8  H   -0.169207
 Sum of Mulliken charges =  -0.00000

 Dipole moment (field-independent basis, Debye):
    X=              0.0000    Y=              0.0000    Z=              0.0000  Tot=              0.0000

 Test job not archived.
 1\1\GINC-SE455\SP\RHF\Aug-CC-pVDZ\F4H2Si2\OHZDE\09-Apr-2025\0\\#t hf a
 ug-cc-pvdz iop(5/13=1,5/36=2,99/5=2) pseudo=read geom=check guess=(rea
 d,tcheck) scf=(maxcycle=1)\\title\\0,1\Si,0,0.320995,1.137475,0.\Si,0,
 -0.320995,-1.137475,0.\F,0,0.320995,-1.835398,1.290677\F,0,-0.320995,1
 .835398,1.290677\F,0,0.320999,-1.835397,-1.290677\H,0,-1.767223,-1.412
 109,-0.000002\F,0,-0.320999,1.835397,-1.290677\H,0,1.767223,1.412109,-
 0.000002\\Version=ES64L-G16RevC.01\State=1-A\HF=-977.5045635\RMSD=2.71
 7e-03\Dipole=0.,0.,0.0000034\Quadrupole=3.6565471,-1.9136404,-1.742906

 Normal termination of Gaussian 16 at Wed Apr  9 00:08:33 2025.
