 Gaussian 16, Revision C.01,

 ----------------------------------------------------------------------
 #t hf aug-cc-pvdz symm=none int=(grid=ultrafine) guess=(read,tcheck) s
 table=opt
 ----------------------------------------------------------------------
 -----
 title
 -----
 Symbolic Z-matrix:
 Charge =  0 Multiplicity = 2

 SCF Done:  E(UHF) =  -609.710528283     A.U. after   18 cycles
 Normal termination of Gaussian 16 at Tue Apr  8 23:21:51 2025.
 Gaussian 16:  ES64L-G16RevC.01  3-Jul-2019

 ----------------------------------------------------------------------
 #t hf aug-cc-pvdz iop(5/13=1,5/36=2,99/5=2) pseudo=read geom=check gue
 ss=(read,tcheck) scf=(maxcycle=1)
 ----------------------------------------------------------------------
 -----
 title
 -----
 Structure from the checkpoint file:  "BDE49_nonexpt_1202_mol3.chk"
 Charge =  0 Multiplicity = 2

                         Standard orientation:
 ---------------------------------------------------------------------
 Center     Atomic      Atomic             Coordinates (Angstroms)
 Number     Number       Type             X           Y           Z
 ---------------------------------------------------------------------
      1         16           0       -1.285345   -0.016221   -0.000001
      2          6           0        0.446497    0.124720    0.000008
      3          9           0        1.059811   -1.076017   -0.000002
      4          8           0        1.043530    1.149422   -0.000002
 ---------------------------------------------------------------------

 SCF Done:  E(UHF) =  -609.956863246     A.U. after    2 cycles

 The electronic state is 2-A.
 Alpha  occ. eigenvalues --  -94.03955 -26.52914 -20.59436 -11.48149  -8.32132
 Alpha  occ. eigenvalues --   -6.31304  -6.29504  -6.29174  -1.67174  -1.53661
 Alpha  occ. eigenvalues --   -1.12469  -0.86722  -0.74680  -0.74098  -0.73322
 Alpha  occ. eigenvalues --   -0.62205  -0.57657  -0.52900  -0.48885  -0.45137
 Alpha virt. eigenvalues --    0.05741   0.08655   0.09675   0.09805   0.10730
 Alpha virt. eigenvalues --    0.10816   0.12012   0.14374   0.19810   0.22420
 Alpha virt. eigenvalues --    0.23852   0.24179   0.26601   0.31068   0.32349

  Beta  occ. eigenvalues --  -94.03018 -26.52851 -20.59265 -11.48271  -8.31053
  Beta  occ. eigenvalues --   -6.29016  -6.28590  -6.27132  -1.67020  -1.53263
  Beta  occ. eigenvalues --   -1.05407  -0.85426  -0.73793  -0.73320  -0.71995
  Beta  occ. eigenvalues --   -0.60827  -0.57437  -0.49050  -0.42859
  Beta virt. eigenvalues --   -0.04332   0.06005   0.08698   0.09805   0.10756
  Beta virt. eigenvalues --    0.10881   0.11149   0.12776   0.14446   0.21989
  Beta virt. eigenvalues --    0.22710   0.24311   0.24583   0.27017   0.32195

 Mulliken charges and spin densities:
               1          2
     1  S    0.407938   1.086793
     2  C    0.939651  -0.100422
     3  F   -0.550552  -0.006663
     4  O   -0.797038   0.020293
 Sum of Mulliken charges =  -0.00000   1.00000

 Dipole moment (field-independent basis, Debye):
    X=             -1.9071    Y=             -0.9792    Z=              0.0000  Tot=              2.1438
                          Isotropic Fermi Contact Couplings
        Atom                 a.u.       MegaHertz       Gauss      10(-4) cm-1
     1  S(33)              0.21998      75.55699      26.96061      25.20310
     2  C(13)             -0.02302     -25.87587      -9.23315      -8.63126
     3  F(19)              0.00737      31.01840      11.06814      10.34662
     4  O(17)              0.01763     -10.68603      -3.81304      -3.56448
 --------------------------------------------------------
       Center         ----  Spin Dipole Couplings  ----
                      3XX-RR        3YY-RR        3ZZ-RR
 --------------------------------------------------------

 Normal termination of Gaussian 16 at Tue Apr  8 23:21:53 2025.
