 Gaussian 16, Revision C.01,

 ----------------------------------------------------------------------
 #t hf aug-cc-pvdz symm=none int=(grid=ultrafine) guess=(read,tcheck) s
 table=opt
 ----------------------------------------------------------------------
 -----
 title
 -----
 Symbolic Z-matrix:
 Charge =  0 Multiplicity = 2

 SCF Done:  E(UHF) =  -481.462979486     A.U. after   20 cycles
 Normal termination of Gaussian 16 at Tue Apr  8 23:50:33 2025.
 Gaussian 16:  ES64L-G16RevC.01  3-Jul-2019

 ----------------------------------------------------------------------
 #t hf aug-cc-pvdz iop(5/13=1,5/36=2,99/5=2) pseudo=read geom=check gue
 ss=(read,tcheck) scf=(maxcycle=1)
 ----------------------------------------------------------------------
 -----
 title
 -----
 Structure from the checkpoint file:  "BDE49_nonexpt_1871_mol2.chk"
 Charge =  0 Multiplicity = 2

                         Standard orientation:
 ---------------------------------------------------------------------
 Center     Atomic      Atomic             Coordinates (Angstroms)
 Number     Number       Type             X           Y           Z
 ---------------------------------------------------------------------
      1         14           0        1.856661    0.115940   -0.188063
      2          6           0        0.320728   -0.134253    0.908794
      3          1           0        2.002662   -0.990902   -1.164444
      4          1           0        1.791825    1.418391   -0.901971
      5          6           0       -0.957569   -0.221867    0.087193
      6          1           0        0.449066   -1.075840    1.447218
      7          1           0        0.278725    0.689956    1.626621
      8          8           0       -1.361812   -1.279577   -0.338989
      9          6           0       -1.693877    1.081935   -0.166245
     10          1           0       -2.157417    1.422768    0.765863
     11          1           0       -2.470135    0.924946   -0.913835
     12          1           0       -1.009176    1.869247   -0.493112
 ---------------------------------------------------------------------

 SCF Done:  E(UHF) =  -481.690563897     A.U. after    2 cycles

 The electronic state is 2-A.
 Alpha  occ. eigenvalues --  -69.55119 -20.53485 -11.34692 -11.24882 -11.24655
 Alpha  occ. eigenvalues --   -6.22208  -3.98166  -3.97261  -3.97241  -1.47256
 Alpha  occ. eigenvalues --   -1.05162  -0.97399  -0.76637  -0.72520  -0.65691
 Alpha  occ. eigenvalues --   -0.65003  -0.61042  -0.57875  -0.55193  -0.52589
 Alpha  occ. eigenvalues --   -0.49476  -0.46514  -0.41907  -0.34232
 Alpha virt. eigenvalues --    0.03021   0.03886   0.04078   0.04792   0.06010
 Alpha virt. eigenvalues --    0.07053   0.07239   0.08408   0.08788   0.10466
 Alpha virt. eigenvalues --    0.11335   0.12071   0.13223   0.14664   0.15075

  Beta  occ. eigenvalues --  -69.54551 -20.53302 -11.34680 -11.24871 -11.24639
  Beta  occ. eigenvalues --   -6.21344  -3.96871  -3.96851  -3.95993  -1.46854
  Beta  occ. eigenvalues --   -1.04887  -0.97124  -0.75383  -0.69369  -0.65495
  Beta  occ. eigenvalues --   -0.64759  -0.60673  -0.57668  -0.55048  -0.51911
  Beta  occ. eigenvalues --   -0.48636  -0.45666  -0.40975
  Beta virt. eigenvalues --    0.01705   0.03279   0.04011   0.04805   0.04878
  Beta virt. eigenvalues --    0.06153   0.07146   0.08205   0.08517   0.09052
  Beta virt. eigenvalues --    0.10740   0.11452   0.12841   0.13706   0.15100

 Mulliken charges and spin densities:
               1          2
     1  Si   0.732287   0.976646
     2  C   -0.630342  -0.028613
     3  H   -0.110232   0.019815
     4  H   -0.165072   0.012420
     5  C    1.171084  -0.036416
     6  H    0.129204  -0.000082
     7  H    0.112848   0.003956
     8  O   -1.334389   0.046130
     9  C   -0.497476   0.011149
    10  H    0.269860  -0.000304
    11  H    0.121165  -0.000353
    12  H    0.201062  -0.004349
 Sum of Mulliken charges =  -0.00000   1.00000

 Dipole moment (field-independent basis, Debye):
    X=              0.7851    Y=              2.6040    Z=              1.3388  Tot=              3.0314
                          Isotropic Fermi Contact Couplings
        Atom                 a.u.       MegaHertz       Gauss      10(-4) cm-1
     1  Si(29)             0.59955    -532.84088    -190.13088    -177.73659
     2  C(13)              0.00759       8.52862       3.04322       2.84484
     3  H(1)               0.00434      19.40269       6.92336       6.47204
     4  H(1)               0.00286      12.77485       4.55838       4.26123
     5  C(13)              0.01510      16.97230       6.05614       5.66135
     6  H(1)               0.00090       4.02995       1.43799       1.34425
     7  H(1)               0.00082       3.66284       1.30699       1.22179
     8  O(17)              0.01393      -8.44168      -3.01220      -2.81584

 Normal termination of Gaussian 16 at Tue Apr  8 23:50:36 2025.
