 Gaussian 16, Revision C.01,

 ----------------------------------------------------------------------
 #t hf aug-cc-pvdz symm=none int=(grid=ultrafine) guess=(read,tcheck) s
 table=(opt,rrhf)
 ----------------------------------------------------------------------
 -----
 title
 -----
 Symbolic Z-matrix:
 Charge =  0 Multiplicity = 1

 SCF Done:  E(RHF) =  -940.254698741     A.U. after   15 cycles
 Normal termination of Gaussian 16 at Tue Apr  8 23:46:02 2025.
 Gaussian 16:  ES64L-G16RevC.01  3-Jul-2019

 ----------------------------------------------------------------------
 #t hf aug-cc-pvdz iop(5/13=1,5/36=2,99/5=2) pseudo=read geom=check gue
 ss=(read,tcheck) scf=(maxcycle=1)
 ----------------------------------------------------------------------
 -----
 title
 -----
 Structure from the checkpoint file:  "BDE49_nonexpt_1698_mol1.chk"
 Charge =  0 Multiplicity = 1

                         Standard orientation:
 ---------------------------------------------------------------------
 Center     Atomic      Atomic             Coordinates (Angstroms)
 Number     Number       Type             X           Y           Z
 ---------------------------------------------------------------------
      1          6           0        0.654340    0.115282    0.081732
      2          6           0        1.269998   -1.085481    0.476310
      3          6           0        2.647554   -1.259930    0.377142
      4          6           0        3.446314   -0.232995   -0.123556
      5          6           0        2.859129    0.964410   -0.523602
      6          6           0        1.478970    1.133543   -0.421998
      7         15           0       -2.171188   -1.353832   -0.988327
      8          1           0        3.097973   -2.196330    0.687918
      9          1           0        4.519516   -0.367008   -0.202611
     10          1           0        3.474503    1.767130   -0.915315
     11          1           0        1.044439    2.075293   -0.740256
     12          1           0        0.666816   -1.901433    0.863047
     13         14           0       -1.213300    0.331490    0.236701
     14          6           0       -1.731494    2.043172   -0.352425
     15          1           0       -1.462649    2.212138   -1.398376
     16          1           0       -1.265094    2.828297    0.251755
     17          1           0       -2.815742    2.157331   -0.266430
     18          6           0       -1.753079    0.083200    2.025155
     19          1           0       -1.304131    0.846293    2.668376
     20          1           0       -1.447708   -0.895287    2.404967
     21          1           0       -2.840387    0.156361    2.123503
     22          1           0       -1.862184   -0.778481   -2.249000
     23          1           0       -3.481733   -0.804883   -0.949028
 ---------------------------------------------------------------------

 SCF Done:  E(RHF) =  -940.662478274     A.U. after    2 cycles

 The electronic state is 1-A.
 Alpha  occ. eigenvalues --  -84.25277 -69.53012 -11.24752 -11.24711 -11.24679
 Alpha  occ. eigenvalues --  -11.24396 -11.24376 -11.23047 -11.21960 -11.21625
 Alpha  occ. eigenvalues --   -6.72517  -6.19944  -4.25017  -4.24853  -4.24290
 Alpha  occ. eigenvalues --   -3.95272  -3.95241  -3.95225  -1.15246  -1.01955
 Alpha  occ. eigenvalues --   -1.01697  -0.96926  -0.93490  -0.85151  -0.83206
 Alpha  occ. eigenvalues --   -0.82702  -0.72340  -0.66095  -0.64061  -0.62632
 Alpha  occ. eigenvalues --   -0.60056  -0.58257  -0.57369  -0.55640  -0.55362
 Alpha  occ. eigenvalues --   -0.54449  -0.51486  -0.50509  -0.49755  -0.45849
 Alpha  occ. eigenvalues --   -0.44728  -0.41651  -0.34982  -0.34570  -0.32722
 Alpha virt. eigenvalues --    0.03101   0.03398   0.03673   0.04419   0.04764
 Alpha virt. eigenvalues --    0.05009   0.06172   0.06666   0.07278   0.07363
 Alpha virt. eigenvalues --    0.07917   0.09078   0.09289   0.09721   0.09775

 Mulliken charges:
               1
     1  C   -0.622937
     2  C    0.398177
     3  C    0.246413
     4  C    0.425545
     5  C    0.244944
     6  C    0.401604
     7  P   -1.488165
     8  H   -0.237289
     9  H   -0.214766
    10  H   -0.247158
    11  H   -0.383479
    12  H   -0.329609
    13  Si   2.285991
    14  C   -0.583598
    15  H   -0.042939
    16  H   -0.001702
    17  H   -0.114412
    18  C   -0.545672
    19  H   -0.058550
    20  H   -0.035887
    21  H    0.007671
    22  H    0.449122
    23  H    0.446698
 Sum of Mulliken charges =   0.00000

 Dipole moment (field-independent basis, Debye):
    X=              0.4002    Y=              0.9504    Z=              0.3701  Tot=              1.0956

 Test job not archived.
 1\1\GINC-SE227\SP\RHF\Aug-CC-pVDZ\C8H13P1Si1\OHZDE\08-Apr-2025\0\\#t h
 f aug-cc-pvdz iop(5/13=1,5/36=2,99/5=2) pseudo=read geom=check guess=(
 read,tcheck) scf=(maxcycle=1)\\title\\0,1\C,0,0.65434,0.115282,0.08173
 2\C,0,1.269998,-1.085481,0.47631\C,0,2.647554,-1.25993,0.377142\C,0,3.
 446314,-0.232995,-0.123556\C,0,2.859129,0.96441,-0.523602\C,0,1.47897,
 1.133543,-0.421998\P,0,-2.171188,-1.353832,-0.988327\H,0,3.097973,-2.1
 9633,0.687918\H,0,4.519516,-0.367008,-0.202611\H,0,3.474503,1.76713,-0
 .915315\H,0,1.044439,2.075293,-0.740256\H,0,0.666816,-1.901433,0.86304

 Normal termination of Gaussian 16 at Tue Apr  8 23:46:18 2025.
