 Gaussian 16, Revision C.01,

 ----------------------------------------------------------------------
 #t hf aug-cc-pvdz symm=none int=(grid=ultrafine) guess=(read,tcheck) s
 table=(opt,rrhf)
 ----------------------------------------------------------------------
 -----
 title
 -----
 Symbolic Z-matrix:
 Charge =  0 Multiplicity = 1

 SCF Done:  E(RHF) =  -1018.84814373     A.U. after   14 cycles
 Normal termination of Gaussian 16 at Tue Apr  8 23:45:27 2025.
 Gaussian 16:  ES64L-G16RevC.01  3-Jul-2019

 ----------------------------------------------------------------------
 #t hf aug-cc-pvdz iop(5/13=1,5/36=2,99/5=2) pseudo=read geom=check gue
 ss=(read,tcheck) scf=(maxcycle=1)
 ----------------------------------------------------------------------
 -----
 title
 -----
 Structure from the checkpoint file:  "BDE49_nonexpt_1741_mol1.chk"
 Charge =  0 Multiplicity = 1

                         Standard orientation:
 ---------------------------------------------------------------------
 Center     Atomic      Atomic             Coordinates (Angstroms)
 Number     Number       Type             X           Y           Z
 ---------------------------------------------------------------------
      1          6           0        2.907334   -1.203188   -0.152880
      2          6           0        1.579776   -1.202336    0.267056
      3          6           0        3.576769   -0.000000   -0.364991
      4          6           0        2.907334    1.203189   -0.152879
      5          6           0        1.579776    1.202336    0.267056
      6          6           0        0.895799   -0.000000    0.487618
      7          1           0        1.069657   -2.145549    0.434856
      8          1           0        3.419943   -2.145593   -0.310689
      9          1           0        4.610998   -0.000000   -0.689457
     10          1           0        3.419943    2.145594   -0.310688
     11          1           0        1.069657    2.145549    0.434856
     12          6           0       -0.553535   -0.000000    0.918287
     13         14           0       -1.691081   -0.000000   -0.582051
     14         17           0       -3.689313    0.000000    0.042415
     15          1           0       -0.784379    0.879689    1.525992
     16          1           0       -0.784379   -0.879690    1.525992
     17          1           0       -1.493759   -1.212651   -1.399405
     18          1           0       -1.493760    1.212653   -1.399403
 ---------------------------------------------------------------------

 SCF Done:  E(RHF) =  -1019.24095364     A.U. after    2 cycles

 The electronic state is 1-A.
 Alpha  occ. eigenvalues -- -105.55308 -69.57659 -11.26399 -11.25076 -11.25058
 Alpha  occ. eigenvalues --  -11.24756 -11.24751 -11.24612 -11.24403 -10.60293
 Alpha  occ. eigenvalues --   -7.77177  -7.76881  -7.76876  -6.24317  -3.99750
 Alpha  occ. eigenvalues --   -3.99581  -3.99577  -1.16564  -1.06313  -1.04372
 Alpha  occ. eigenvalues --   -1.02318  -0.94802  -0.84351  -0.81883  -0.72900
 Alpha  occ. eigenvalues --   -0.71163  -0.66272  -0.65034  -0.60609  -0.59737
 Alpha  occ. eigenvalues --   -0.57725  -0.55025  -0.52734  -0.52333  -0.50884
 Alpha  occ. eigenvalues --   -0.50502  -0.49774  -0.45164  -0.45151  -0.35354
 Alpha  occ. eigenvalues --   -0.33849
 Alpha virt. eigenvalues --    0.03144   0.03373   0.03612   0.04539   0.04997
 Alpha virt. eigenvalues --    0.05092   0.06506   0.07496   0.07840   0.08431
 Alpha virt. eigenvalues --    0.08469   0.09686   0.09901   0.11406   0.11484

 Mulliken charges:
               1
     1  C    0.113654
     2  C    0.235070
     3  C    0.122523
     4  C    0.113646
     5  C    0.235075
     6  C    1.320286
     7  H   -0.310475
     8  H   -0.234673
     9  H   -0.213205
    10  H   -0.234673
    11  H   -0.310475
    12  C   -1.223633
    13  Si   1.286814
    14  Cl  -0.617604
    15  H   -0.002209
    16  H   -0.002206
    17  H   -0.138958
    18  H   -0.138958
 Sum of Mulliken charges =  -0.00000

 Dipole moment (field-independent basis, Debye):
    X=              2.1993    Y=             -0.0000    Z=              0.0720  Tot=              2.2004

 Test job not archived.
 1\1\GINC-SE082\SP\RHF\Aug-CC-pVDZ\C7H9Cl1Si1\OHZDE\08-Apr-2025\0\\#t h
 f aug-cc-pvdz iop(5/13=1,5/36=2,99/5=2) pseudo=read geom=check guess=(
 read,tcheck) scf=(maxcycle=1)\\title\\0,1\C,0,2.907334,-1.203188,-0.15
 288\C,0,1.579776,-1.202336,0.267056\C,0,3.576769,0.,-0.364991\C,0,2.90
 7334,1.203189,-0.152879\C,0,1.579776,1.202336,0.267056\C,0,0.895799,0.
 ,0.487618\H,0,1.069657,-2.145549,0.434856\H,0,3.419943,-2.145593,-0.31
 0689\H,0,4.610998,0.,-0.689457\H,0,3.419943,2.145594,-0.310688\H,0,1.0
 69657,2.145549,0.434856\C,0,-0.553535,0.,0.918287\Si,0,-1.691081,0.,-0

 Normal termination of Gaussian 16 at Tue Apr  8 23:45:37 2025.
