 Gaussian 16, Revision C.01,

 ----------------------------------------------------------------------
 #t hf aug-cc-pvdz symm=none int=(grid=ultrafine) guess=(read,tcheck) s
 table=(opt,rrhf)
 ----------------------------------------------------------------------
 -----
 title
 -----
 Symbolic Z-matrix:
 Charge =  0 Multiplicity = 1

 SCF Done:  E(RHF) =  -616.245475777     A.U. after   12 cycles

 1\1\GINC-SE118\Stability\RHF\Aug-CC-pVDZ\C4H9Cl1\OHZDE\08-Apr-2025\0\\
 #t hf aug-cc-pvdz symm=none int=(grid=ultrafine) guess=(read,tcheck) s
 table=(opt,rrhf)\\title\\0,1\C,0,2.21208,-0.245317,0.120821\C,0,1.0852
 49,0.685832,-0.328807\C,0,-0.257978,0.452403,0.356872\C,0,-1.314989,1.
 483237,-0.007446\H,0,-0.126495,0.404383,1.439149\Cl,0,-0.900654,-1.224
 084,-0.069082\H,0,-2.262498,1.27047,0.4892\H,0,-1.486524,1.500442,-1.0
 86129\H,0,-0.977417,2.476977,0.304676\H,0,3.147004,0.01209,-0.382917\H
 ,0,1.980129,-1.286849,-0.108859\H,0,2.382441,-0.167736,1.199037\H,0,0.

 Normal termination of Gaussian 16 at Tue Apr  8 22:31:35 2025.
 Gaussian 16:  ES64L-G16RevC.01  3-Jul-2019

 ----------------------------------------------------------------------
 #t hf aug-cc-pvdz iop(5/13=1,5/36=2,99/5=2) pseudo=read geom=check gue
 ss=(read,tcheck) scf=(maxcycle=1)
 ----------------------------------------------------------------------
 -----
 title
 -----
 Structure from the checkpoint file:  "BDE49_expt_1035_mol1.chk"
 Charge =  0 Multiplicity = 1

                         Standard orientation:
 ---------------------------------------------------------------------
 Center     Atomic      Atomic             Coordinates (Angstroms)
 Number     Number       Type             X           Y           Z
 ---------------------------------------------------------------------
      1          6           0        2.212080   -0.245316    0.120821
      2          6           0        1.085249    0.685832   -0.328807
      3          6           0       -0.257978    0.452403    0.356872
      4          6           0       -1.314989    1.483237   -0.007446
      5          1           0       -0.126495    0.404383    1.439149
      6         17           0       -0.900654   -1.224084   -0.069082
      7          1           0       -2.262498    1.270470    0.489200
      8          1           0       -1.486524    1.500442   -1.086129
      9          1           0       -0.977417    2.476977    0.304676
     10          1           0        3.147004    0.012091   -0.382917
     11          1           0        1.980129   -1.286848   -0.108859
     12          1           0        2.382441   -0.167735    1.199037
     13          1           0        0.943174    0.617054   -1.412214
     14          1           0        1.365141    1.725653   -0.116193
 ---------------------------------------------------------------------

 SCF Done:  E(RHF) =  -616.498996388     A.U. after    2 cycles

 The electronic state is 1-A.
 Alpha  occ. eigenvalues -- -105.54266 -11.30848 -11.24592 -11.24204 -11.22926
 Alpha  occ. eigenvalues --  -10.59074  -7.75998  -7.75660  -7.75651  -1.12945
 Alpha  occ. eigenvalues --   -1.02033  -0.98179  -0.87852  -0.79362  -0.65669
 Alpha  occ. eigenvalues --   -0.62061  -0.61343  -0.59026  -0.54674  -0.52143
 Alpha  occ. eigenvalues --   -0.50938  -0.50182  -0.48482  -0.43541  -0.43384
 Alpha virt. eigenvalues --    0.03515   0.03816   0.04051   0.04938   0.06378
 Alpha virt. eigenvalues --    0.06449   0.06834   0.08037   0.09613   0.11127
 Alpha virt. eigenvalues --    0.11975   0.13114   0.14555   0.15868   0.16019

 Mulliken charges:
               1
     1  C   -0.357604
     2  C   -0.216035
     3  C   -0.648265
     4  C   -0.179069
     5  H    0.173995
     6  Cl  -0.150526
     7  H    0.134676
     8  H    0.224941
     9  H    0.197500
    10  H    0.129880
    11  H    0.205623
    12  H    0.163601
    13  H    0.146327
    14  H    0.174957
 Sum of Mulliken charges =  -0.00000

 Dipole moment (field-independent basis, Debye):
    X=              0.9792    Y=              2.3284    Z=              0.4266  Tot=              2.5617

 Test job not archived.
 1\1\GINC-SE118\SP\RHF\Aug-CC-pVDZ\C4H9Cl1\OHZDE\08-Apr-2025\0\\#t hf a
 ug-cc-pvdz iop(5/13=1,5/36=2,99/5=2) pseudo=read geom=check guess=(rea
 d,tcheck) scf=(maxcycle=1)\\title\\0,1\C,0,2.21208,-0.245317,0.120821\
 C,0,1.085249,0.685832,-0.328807\C,0,-0.257978,0.452403,0.356872\C,0,-1
 .314989,1.483237,-0.007446\H,0,-0.126495,0.404383,1.439149\Cl,0,-0.900
 654,-1.224084,-0.069082\H,0,-2.262498,1.27047,0.4892\H,0,-1.486524,1.5
 00442,-1.086129\H,0,-0.977417,2.476977,0.304676\H,0,3.147004,0.01209,-
 0.382917\H,0,1.980129,-1.286849,-0.108859\H,0,2.382441,-0.167736,1.199

 Normal termination of Gaussian 16 at Tue Apr  8 22:31:39 2025.
