 Gaussian 16, Revision C.01,

 ----------------------------------------------------------------------
 #t hf aug-cc-pvdz symm=none int=(grid=ultrafine) guess=(read,tcheck) s
 table=(opt,rrhf)
 ----------------------------------------------------------------------
 -----
 title
 -----
 Symbolic Z-matrix:
 Charge =  0 Multiplicity = 1

 SCF Done:  E(RHF) =  -971.594280101     A.U. after   14 cycles
 Normal termination of Gaussian 16 at Tue Apr  8 23:32:44 2025.
 Gaussian 16:  ES64L-G16RevC.01  3-Jul-2019

 ----------------------------------------------------------------------
 #t hf aug-cc-pvdz iop(5/13=1,5/36=2,99/5=2) pseudo=read geom=check gue
 ss=(read,tcheck) scf=(maxcycle=1)
 ----------------------------------------------------------------------
 -----
 title
 -----
 Structure from the checkpoint file:  "BDE49_nonexpt_1366_mol1.chk"
 Charge =  0 Multiplicity = 1

                         Standard orientation:
 ---------------------------------------------------------------------
 Center     Atomic      Atomic             Coordinates (Angstroms)
 Number     Number       Type             X           Y           Z
 ---------------------------------------------------------------------
      1          9           0        2.501129   -1.004493   -0.668470
      2         15           0        1.031441   -1.731675   -0.632363
      3          6           0        0.641695   -1.567692    1.147287
      4          6           0        0.052958   -0.432005    0.342252
      5          6           0        0.704246    0.919010    0.496577
      6          8           0        1.351912    1.250315    1.456964
      7          8           0        0.504829    1.686992   -0.583646
      8          6           0        1.074716    3.007663   -0.519545
      9          6           0       -1.409775   -0.554839    0.067798
     10          8           0       -1.947079   -1.628220   -0.098168
     11          8           0       -2.053573    0.618259    0.052864
     12          6           0       -3.468900    0.550701   -0.214934
     13          1           0        1.466352   -1.283872    1.791818
     14          1           0       -0.056735   -2.289664    1.553654
     15          1           0        2.157009    2.947064   -0.399027
     16          1           0        0.650309    3.564792    0.316912
     17          1           0        0.817563    3.479150   -1.465031
     18          1           0       -3.972068   -0.044624    0.547729
     19          1           0       -3.814586    1.581179   -0.190803
     20          1           0       -3.647980    0.105740   -1.194299
 ---------------------------------------------------------------------

 SCF Done:  E(RHF) =  -972.251763986     A.U. after    2 cycles

 The electronic state is 1-A.
 Alpha  occ. eigenvalues --  -84.36771 -26.46999 -20.60731 -20.59765 -20.54828
 Alpha  occ. eigenvalues --  -20.54615 -11.41376 -11.40659 -11.30870 -11.30137
 Alpha  occ. eigenvalues --  -11.29597 -11.27465  -6.82948  -4.35866  -4.35051
 Alpha  occ. eigenvalues --   -4.34652  -1.58009  -1.56262  -1.55227  -1.46725
 Alpha  occ. eigenvalues --   -1.46181  -1.15542  -1.01299  -0.99059  -0.90588
 Alpha  occ. eigenvalues --   -0.83596  -0.82067  -0.77916  -0.76284  -0.71041
 Alpha  occ. eigenvalues --   -0.69636  -0.68419  -0.68158  -0.66971  -0.65890
 Alpha  occ. eigenvalues --   -0.64713  -0.62841  -0.61458  -0.58818  -0.57688
 Alpha  occ. eigenvalues --   -0.55966  -0.55143  -0.53613  -0.53351  -0.48391
 Alpha  occ. eigenvalues --   -0.47172  -0.46099  -0.44947  -0.39513  -0.38932
 Alpha virt. eigenvalues --    0.03157   0.03929   0.04376   0.04730   0.05616
 Alpha virt. eigenvalues --    0.05989   0.06546   0.06664   0.07453   0.08025
 Alpha virt. eigenvalues --    0.09744   0.10271   0.11443   0.11969   0.12646

 Mulliken charges:
               1
     1  F   -0.826148
     2  P    1.316363
     3  C   -0.300551
     4  C   -0.172602
     5  C    2.575267
     6  O   -1.343815
     7  O   -1.450593
     8  C    0.230658
     9  C    1.966668
    10  O   -1.369270
    11  O   -1.325837
    12  C    0.204222
    13  H   -0.106280
    14  H   -0.144857
    15  H    0.168277
    16  H    0.187330
    17  H    0.022895
    18  H    0.172858
    19  H    0.003005
    20  H    0.192411
 Sum of Mulliken charges =  -0.00000

 Dipole moment (field-independent basis, Debye):
    X=             -1.6361    Y=              1.2584    Z=             -1.0974  Tot=              2.3377

 Test job not archived.
 1\1\GINC-SE229\SP\RHF\Aug-CC-pVDZ\C6H8F1O4P1\OHZDE\08-Apr-2025\0\\#t h
 f aug-cc-pvdz iop(5/13=1,5/36=2,99/5=2) pseudo=read geom=check guess=(
 read,tcheck) scf=(maxcycle=1)\\title\\0,1\F,0,2.501129,-1.004492,-0.66
 847\P,0,1.031442,-1.731674,-0.632363\C,0,0.641696,-1.567692,1.147287\C
 ,0,0.052958,-0.432005,0.342252\C,0,0.704246,0.91901,0.496577\O,0,1.351
 911,1.250316,1.456964\O,0,0.504828,1.686992,-0.583646\C,0,1.074715,3.0
 07664,-0.519545\C,0,-1.409775,-0.554839,0.067798\O,0,-1.947078,-1.6282
 21,-0.098168\O,0,-2.053573,0.618258,0.052864\C,0,-3.4689,0.5507,-0.214

 Normal termination of Gaussian 16 at Tue Apr  8 23:33:00 2025.
