 Gaussian 16, Revision C.01,

 ----------------------------------------------------------------------
 #t hf aug-cc-pvdz symm=none int=(grid=ultrafine) guess=(read,tcheck) s
 table=(opt,rrhf)
 ----------------------------------------------------------------------
 -----
 title
 -----
 Symbolic Z-matrix:
 Charge =  0 Multiplicity = 1

 SCF Done:  E(RHF) =  -624.190645429     A.U. after   15 cycles
 Normal termination of Gaussian 16 at Tue Apr  8 23:38:17 2025.
 Gaussian 16:  ES64L-G16RevC.01  3-Jul-2019

 ----------------------------------------------------------------------
 #t hf aug-cc-pvdz iop(5/13=1,5/36=2,99/5=2) pseudo=read geom=check gue
 ss=(read,tcheck) scf=(maxcycle=1)
 ----------------------------------------------------------------------
 -----
 title
 -----
 Structure from the checkpoint file:  "BDE49_nonexpt_1575_mol1.chk"
 Charge =  0 Multiplicity = 1

                         Standard orientation:
 ---------------------------------------------------------------------
 Center     Atomic      Atomic             Coordinates (Angstroms)
 Number     Number       Type             X           Y           Z
 ---------------------------------------------------------------------
      1          6           0        1.104838    0.248824   -0.096834
      2         15           0       -0.199056   -1.106990   -0.181289
      3          8           0        0.999166    1.340245   -0.596209
      4          8           0        2.236178   -0.180125    0.513974
      5          7           0       -1.660933   -0.272541   -0.284884
      6          6           0       -2.028800    0.881947    0.537843
      7          1           0       -3.088574    1.106162    0.394539
      8          1           0       -1.438661    1.774048    0.306154
      9          1           0       -1.881986    0.631340    1.591636
     10          1           0        2.887808    0.536757    0.442268
     11          1           0       -0.168567   -1.355803    1.212422
     12          1           0       -2.036617   -0.245457   -1.221678
 ---------------------------------------------------------------------

 SCF Done:  E(RHF) =  -624.518684537     A.U. after    2 cycles

 The electronic state is 1-A.
 Alpha  occ. eigenvalues --  -84.31295 -20.60633 -20.54658 -15.50756 -11.39300
 Alpha  occ. eigenvalues --  -11.26789  -6.78042  -4.30990  -4.30359  -4.29801
 Alpha  occ. eigenvalues --   -1.55058  -1.45766  -1.20439  -0.95800  -0.90344
 Alpha  occ. eigenvalues --   -0.80380  -0.71194  -0.69244  -0.66358  -0.63221
 Alpha  occ. eigenvalues --   -0.62034  -0.60404  -0.55456  -0.53665  -0.48492
 Alpha  occ. eigenvalues --   -0.46208  -0.41461  -0.35798
 Alpha virt. eigenvalues --    0.03580   0.04223   0.05234   0.05543   0.06648
 Alpha virt. eigenvalues --    0.07180   0.08805   0.09453   0.10506   0.11813
 Alpha virt. eigenvalues --    0.12927   0.13551   0.14289   0.14952   0.16282

 Mulliken charges:
               1
     1  C    1.421586
     2  P    0.181368
     3  O   -1.114681
     4  O   -1.138491
     5  N    0.032789
     6  C   -0.496664
     7  H    0.035201
     8  H    0.172612
     9  H    0.094026
    10  H    0.351725
    11  H    0.334860
    12  H    0.125667
 Sum of Mulliken charges =  -0.00000

 Dipole moment (field-independent basis, Debye):
    X=             -0.4434    Y=             -0.0987    Z=              0.7055  Tot=              0.8391

 Test job not archived.
 1\1\GINC-SE253\SP\RHF\Aug-CC-pVDZ\C2H6N1O2P1\OHZDE\08-Apr-2025\0\\#t h
 f aug-cc-pvdz iop(5/13=1,5/36=2,99/5=2) pseudo=read geom=check guess=(
 read,tcheck) scf=(maxcycle=1)\\title\\0,1\C,0,1.104838,0.248824,-0.096
 834\P,0,-0.199056,-1.10699,-0.181289\O,0,0.999166,1.340245,-0.596209\O
 ,0,2.236178,-0.180125,0.513974\N,0,-1.660933,-0.272541,-0.284884\C,0,-
 2.0288,0.881947,0.537843\H,0,-3.088574,1.106162,0.394539\H,0,-1.438661
 ,1.774048,0.306154\H,0,-1.881986,0.63134,1.591636\H,0,2.887808,0.53675
 7,0.442268\H,0,-0.168567,-1.355803,1.212422\H,0,-2.036617,-0.245457,-1

 Normal termination of Gaussian 16 at Tue Apr  8 23:38:21 2025.
