 Gaussian 16, Revision C.01,

 ----------------------------------------------------------------------
 #t hf aug-cc-pvdz symm=none int=(grid=ultrafine) guess=(read,tcheck) s
 table=(opt,rrhf)
 ----------------------------------------------------------------------
 -----
 title
 -----
 Symbolic Z-matrix:
 Charge =  0 Multiplicity = 1

 SCF Done:  E(RHF) =  -762.523290200     A.U. after   13 cycles
 Normal termination of Gaussian 16 at Wed Apr  9 00:15:32 2025.
 Gaussian 16:  ES64L-G16RevC.01  3-Jul-2019

 ----------------------------------------------------------------------
 #t hf aug-cc-pvdz iop(5/13=1,5/36=2,99/5=2) pseudo=read geom=check gue
 ss=(read,tcheck) scf=(maxcycle=1)
 ----------------------------------------------------------------------
 -----
 title
 -----
 Structure from the checkpoint file:  "BDE49_nonexpt_2503_mol1.chk"
 Charge =  0 Multiplicity = 1

                         Standard orientation:
 ---------------------------------------------------------------------
 Center     Atomic      Atomic             Coordinates (Angstroms)
 Number     Number       Type             X           Y           Z
 ---------------------------------------------------------------------
      1         16           0       -1.424101   -0.080689   -0.000000
      2         14           0        0.635977    0.394707   -0.000000
      3          1           0       -1.209581   -1.410789   -0.000000
      4          8           0        1.795240   -0.586375   -0.000000
      5          1           0        0.729600    1.866921    0.000001
 ---------------------------------------------------------------------

 SCF Done:  E(RHF) =  -762.686070726     A.U. after    2 cycles

 The electronic state is 1-A.
 Alpha  occ. eigenvalues --  -93.99253 -69.61384 -20.50652  -8.27576  -6.28156
 Alpha  occ. eigenvalues --   -6.25365  -6.25262  -6.25059  -4.03499  -4.03490
 Alpha  occ. eigenvalues --   -4.03270  -1.34435  -1.05158  -0.71275  -0.58379
 Alpha  occ. eigenvalues --   -0.54780  -0.51201  -0.47622  -0.43585  -0.42384
 Alpha virt. eigenvalues --    0.03450   0.03740   0.04685   0.05997   0.07526
 Alpha virt. eigenvalues --    0.08113   0.08600   0.11407   0.12220   0.13110
 Alpha virt. eigenvalues --    0.15994   0.16815   0.19595   0.21389   0.22051

 Mulliken charges:
               1
     1  S   -0.805465
     2  Si   2.034260
     3  H    0.361064
     4  O   -1.365272
     5  H   -0.224587
 Sum of Mulliken charges =  -0.00000

 Dipole moment (field-independent basis, Debye):
    X=             -2.8633    Y=              1.7325    Z=             -0.0000  Tot=              3.3466

 Test job not archived.
 1\1\GINC-SE102\SP\RHF\Aug-CC-pVDZ\H2O1S1Si1\OHZDE\09-Apr-2025\0\\#t hf
  aug-cc-pvdz iop(5/13=1,5/36=2,99/5=2) pseudo=read geom=check guess=(r
 ead,tcheck) scf=(maxcycle=1)\\title\\0,1\S,0,1.424101,-0.080689,0.\Si,
 0,-0.635978,0.394707,0.\H,0,1.209581,-1.410789,0.\O,0,-1.79524,-0.5863
 76,0.\H,0,-0.729601,1.866921,-0.000001\\Version=ES64L-G16RevC.01\State
 =1-A\HF=-762.6860707\RMSD=5.025e-03\Dipole=1.1265048,0.6816094,0.00000
 02\Quadrupole=-4.8450808,3.0569557,1.7881251,-4.342315,-0.0000004,0.00
 0001\PG=C01 [X(H2O1S1Si1)]\\@

 Normal termination of Gaussian 16 at Wed Apr  9 00:15:34 2025.
