 Gaussian 16, Revision C.01,

 ----------------------------------------------------------------------
 #t hf aug-cc-pvdz symm=none int=(grid=ultrafine) guess=(read,tcheck) s
 table=opt
 ----------------------------------------------------------------------
 -----
 title
 -----
 Symbolic Z-matrix:
 Charge =  0 Multiplicity = 2

 SCF Done:  E(UHF) =  -696.218394837     A.U. after   16 cycles

 1\1\GINC-SE118\Stability\UHF\Aug-CC-pVDZ\C1Cl1F2\OHZDE\08-Apr-2025\0\\
 #t hf aug-cc-pvdz symm=none int=(grid=ultrafine) guess=(read,tcheck) s
 table=opt\\title\\0,2\C,0,0.432369,-0.000002,0.332206\Cl,0,-1.278302,0
 .000032,-0.031587\F,0,1.063097,-1.088312,-0.080902\F,0,1.063226,1.0882
 53,-0.080904\\Version=ES64L-G16RevC.01\HF=-696.2183948\S2=0.757572\S2-
 1=0.\S2A=0.750042\RMSD=5.776e-09\Dipole=-0.1533899,-0.0000103,0.165238
 4\Quadrupole=0.3783721,-0.9105672,0.532195,-0.0000702,0.5329349,-0.000
 0123\PG=Unknown\\@

 Normal termination of Gaussian 16 at Tue Apr  8 22:28:37 2025.
 Gaussian 16:  ES64L-G16RevC.01  3-Jul-2019

 ----------------------------------------------------------------------
 #t hf aug-cc-pvdz iop(5/13=1,5/36=2,99/5=2) pseudo=read geom=check gue
 ss=(read,tcheck) scf=(maxcycle=1)
 ----------------------------------------------------------------------
 -----
 title
 -----
 Structure from the checkpoint file:  "BDE49_expt_1004_mol2.chk"
 Charge =  0 Multiplicity = 2

                         Standard orientation:
 ---------------------------------------------------------------------
 Center     Atomic      Atomic             Coordinates (Angstroms)
 Number     Number       Type             X           Y           Z
 ---------------------------------------------------------------------
      1          6           0       -0.432369    0.000002    0.332206
      2         17           0        1.278302   -0.000032   -0.031587
      3          9           0       -1.063097    1.088312   -0.080902
      4          9           0       -1.063226   -1.088253   -0.080904
 ---------------------------------------------------------------------

 SCF Done:  E(UHF) =  -696.506060477     A.U. after    2 cycles

 The electronic state is 2-A.
 Alpha  occ. eigenvalues -- -105.61455 -26.53550 -26.53549 -11.51231 -10.66326
 Alpha  occ. eigenvalues --   -7.83391  -7.82848  -7.82797  -1.71618  -1.64419
 Alpha  occ. eigenvalues --   -1.14767  -0.94225  -0.81300  -0.80423  -0.78080
 Alpha  occ. eigenvalues --   -0.69987  -0.65847  -0.63814  -0.53804  -0.51241
 Alpha  occ. eigenvalues --   -0.43882
 Alpha virt. eigenvalues --    0.07392   0.08512   0.09926   0.09935   0.11753
 Alpha virt. eigenvalues --    0.14993   0.15453   0.21014   0.24439   0.25712
 Alpha virt. eigenvalues --    0.28165   0.29889   0.30471   0.30915   0.33008

  Beta  occ. eigenvalues -- -105.61329 -26.53109 -26.53107 -11.48281 -10.66188
  Beta  occ. eigenvalues --   -7.83122  -7.82725  -7.82563  -1.70017  -1.63237
  Beta  occ. eigenvalues --   -1.12748  -0.90553  -0.79924  -0.76913  -0.73162
  Beta  occ. eigenvalues --   -0.67019  -0.65373  -0.61040  -0.51404  -0.51040
  Beta virt. eigenvalues --    0.05010   0.07923   0.09862   0.10043   0.11936
  Beta virt. eigenvalues --    0.12450   0.15079   0.16066   0.22973   0.24557
  Beta virt. eigenvalues --    0.26279   0.28469   0.30252   0.32032   0.32277

 Mulliken charges and spin densities:
               1          2
     1  C    1.081814   0.918383
     2  Cl  -0.043342   0.039177
     3  F   -0.519228   0.021220
     4  F   -0.519244   0.021220
 Sum of Mulliken charges =   0.00000   1.00000

 Dipole moment (field-independent basis, Debye):
    X=              0.2062    Y=              0.0000    Z=              0.3327  Tot=              0.3914
                          Isotropic Fermi Contact Couplings
        Atom                 a.u.       MegaHertz       Gauss      10(-4) cm-1
     1  C(13)              0.54994     618.23675     220.60224     206.22158
     2  Cl(35)             0.08141      35.69360      12.73637      11.90610
     3  F(19)              0.07490     315.11936     112.44242     105.11250
     4  F(19)              0.07490     315.13623     112.44844     105.11813
 --------------------------------------------------------
       Center         ----  Spin Dipole Couplings  ----
                      3XX-RR        3YY-RR        3ZZ-RR
 --------------------------------------------------------

 Normal termination of Gaussian 16 at Tue Apr  8 22:28:38 2025.
