 Gaussian 16, Revision C.01,

 ----------------------------------------------------------------------
 #t hf aug-cc-pvdz symm=none int=(grid=ultrafine) guess=(read,tcheck) s
 table=opt
 ----------------------------------------------------------------------
 -----
 title
 -----
 Symbolic Z-matrix:
 Charge =  0 Multiplicity = 2

 SCF Done:  E(UHF) =  -605.946023310     A.U. after   14 cycles

 1\1\GINC-SE162\Stability\UHF\Aug-CC-pVDZ\B1H6Si2\OHZDE\09-Apr-2025\0\\
 #t hf aug-cc-pvdz symm=none int=(grid=ultrafine) guess=(read,tcheck) s
 table=opt\\title\\0,2\B,0,0.,0.096711,0.000019\Si,0,1.964599,0.000706,
 -0.000002\Si,0,-1.964599,0.000706,-0.000002\H,0,-2.601461,0.604343,1.1
 9814\H,0,-2.24859,-1.460422,-0.000046\H,0,-2.60144,0.604412,-1.19812\H
 ,0,2.60146,0.604347,1.198139\H,0,2.60144,0.604409,-1.198122\H,0,2.2485
 9,-1.460422,-0.000041\\Version=ES64L-G16RevC.01\HF=-605.9460233\S2=0.7
 63225\S2-1=0.\S2A=0.750059\RMSD=6.241e-09\Dipole=0.0000006,0.1211966,-

 Normal termination of Gaussian 16 at Wed Apr  9 00:47:57 2025.
 Gaussian 16:  ES64L-G16RevC.01  3-Jul-2019

 ----------------------------------------------------------------------
 #t hf aug-cc-pvdz iop(5/13=1,5/36=2,99/5=2) pseudo=read geom=check gue
 ss=(read,tcheck) scf=(maxcycle=1)
 ----------------------------------------------------------------------
 -----
 title
 -----
 Structure from the checkpoint file:  "BDE49_nonexpt_855_mol2.chk"
 Charge =  0 Multiplicity = 2

                         Standard orientation:
 ---------------------------------------------------------------------
 Center     Atomic      Atomic             Coordinates (Angstroms)
 Number     Number       Type             X           Y           Z
 ---------------------------------------------------------------------
      1          5           0       -0.000000   -0.096711    0.000019
      2         14           0       -1.964599   -0.000706   -0.000002
      3         14           0        1.964599   -0.000706   -0.000002
      4          1           0        2.601461   -0.604343    1.198140
      5          1           0        2.248590    1.460422   -0.000046
      6          1           0        2.601440   -0.604412   -1.198120
      7          1           0       -2.601460   -0.604347    1.198139
      8          1           0       -2.601440   -0.604409   -1.198122
      9          1           0       -2.248590    1.460422   -0.000041
 ---------------------------------------------------------------------

 SCF Done:  E(UHF) =  -606.036324389     A.U. after    2 cycles

 The electronic state is 2-A.
 Alpha  occ. eigenvalues --  -69.52830 -69.52830  -7.62879  -6.20002  -6.19967
 Alpha  occ. eigenvalues --   -3.95401  -3.95396  -3.95344  -3.95338  -3.95338
 Alpha  occ. eigenvalues --   -3.95292  -0.79484  -0.75220  -0.59578  -0.50661
 Alpha  occ. eigenvalues --   -0.49770  -0.49182  -0.49057  -0.44184  -0.31405
 Alpha virt. eigenvalues --    0.01143   0.03413   0.04023   0.05362   0.05733
 Alpha virt. eigenvalues --    0.06053   0.07519   0.07937   0.08065   0.08134
 Alpha virt. eigenvalues --    0.09316   0.10303   0.10324   0.10593   0.10929

  Beta  occ. eigenvalues --  -69.52901 -69.52901  -7.61403  -6.20109  -6.20075
  Beta  occ. eigenvalues --   -3.95544  -3.95498  -3.95451  -3.95447  -3.95419
  Beta  occ. eigenvalues --   -3.95413  -0.77012  -0.75093  -0.54401  -0.49544
  Beta  occ. eigenvalues --   -0.48905  -0.48795  -0.48219  -0.43147
  Beta virt. eigenvalues --    0.02321   0.03563   0.04037   0.04086   0.05482
  Beta virt. eigenvalues --    0.06289   0.07200   0.07521   0.08033   0.08124
  Beta virt. eigenvalues --    0.08143   0.09313   0.10296   0.10442   0.11178

 Mulliken charges and spin densities:
               1          2
     1  B   -0.471196   1.274784
     2  Si   0.761791  -0.192351
     3  Si   0.761792  -0.192351
     4  H   -0.174593   0.033139
     5  H   -0.177007  -0.011322
     6  H   -0.174594   0.033141
     7  H   -0.174593   0.033139
     8  H   -0.174594   0.033141
     9  H   -0.177007  -0.011322
 Sum of Mulliken charges =  -0.00000   1.00000

 Dipole moment (field-independent basis, Debye):
    X=             -0.0000    Y=             -0.2829    Z=             -0.0000  Tot=              0.2829
                          Isotropic Fermi Contact Couplings
        Atom                 a.u.       MegaHertz       Gauss      10(-4) cm-1
     1  B(11)              0.10188     146.13927      52.14613      48.74681
     2  Si(29)            -0.08822      78.39916      27.97477      26.15115
     3  Si(29)            -0.08822      78.39917      27.97477      26.15115
     4  H(1)               0.00902      40.33062      14.39097      13.45285
     5  H(1)              -0.00060      -2.66946      -0.95253      -0.89043
     6  H(1)               0.00902      40.33195      14.39144      13.45329
     7  H(1)               0.00902      40.33050      14.39093      13.45281
     8  H(1)               0.00902      40.33209      14.39149      13.45334

 Normal termination of Gaussian 16 at Wed Apr  9 00:48:00 2025.
