 Gaussian 16, Revision C.01,

 ----------------------------------------------------------------------
 #t hf aug-cc-pvdz symm=none int=(grid=ultrafine) guess=(read,tcheck) s
 table=(opt,rrhf)
 ----------------------------------------------------------------------
 -----
 title
 -----
 Symbolic Z-matrix:
 Charge =  0 Multiplicity = 1

 SCF Done:  E(RHF) =  -292.234638715     A.U. after   13 cycles
 Normal termination of Gaussian 16 at Wed Apr  9 00:28:55 2025.
 Gaussian 16:  ES64L-G16RevC.01  3-Jul-2019

 ----------------------------------------------------------------------
 #t hf aug-cc-pvdz iop(5/13=1,5/36=2,99/5=2) pseudo=read geom=check gue
 ss=(read,tcheck) scf=(maxcycle=1)
 ----------------------------------------------------------------------
 -----
 title
 -----
 Structure from the checkpoint file:  "BDE49_nonexpt_308_mol1.chk"
 Charge =  0 Multiplicity = 1

                         Standard orientation:
 ---------------------------------------------------------------------
 Center     Atomic      Atomic             Coordinates (Angstroms)
 Number     Number       Type             X           Y           Z
 ---------------------------------------------------------------------
      1          6           0       -0.319092   -0.486421   -0.177480
      2          5           0        1.170049   -0.019679   -0.035611
      3          8           0        1.546062    1.295273   -0.040305
      4          8           0        2.194563   -0.914222    0.112823
      5          6           0       -1.382297    0.276257    0.104590
      6          1           0       -0.522243   -1.514274   -0.487398
      7          6           0       -2.820255   -0.138618    0.024078
      8          1           0       -1.221562    1.301622    0.444511
      9          1           0       -2.922898   -1.170587   -0.318145
     10          1           0       -3.376412    0.509893   -0.662376
     11          1           0       -3.309076   -0.048131    1.000650
     12          1           0        0.817726    1.887093   -0.240637
     13          1           0        1.889091   -1.822940    0.154178
 ---------------------------------------------------------------------

 SCF Done:  E(RHF) =  -292.536170715     A.U. after    2 cycles

 The electronic state is 1-A.
 Alpha  occ. eigenvalues --  -20.54755 -20.54620 -11.26687 -11.24648 -11.22112
 Alpha  occ. eigenvalues --   -7.63352  -1.46926  -1.43104  -1.08192  -0.95127
 Alpha  occ. eigenvalues --   -0.79112  -0.77272  -0.68330  -0.65877  -0.61688
 Alpha  occ. eigenvalues --   -0.58733  -0.57719  -0.56880  -0.55214  -0.52660
 Alpha  occ. eigenvalues --   -0.48161  -0.47032  -0.38153
 Alpha virt. eigenvalues --    0.03171   0.03441   0.04234   0.04479   0.06259
 Alpha virt. eigenvalues --    0.06646   0.06972   0.08187   0.08920   0.09828
 Alpha virt. eigenvalues --    0.10375   0.11134   0.12665   0.14264   0.14452

 Mulliken charges:
               1
     1  C    0.179379
     2  B    1.650680
     3  O   -1.235303
     4  O   -1.404588
     5  C    0.329317
     6  H   -0.158335
     7  C   -0.754712
     8  H   -0.265470
     9  H    0.115321
    10  H    0.231319
    11  H    0.237106
    12  H    0.549949
    13  H    0.525336
 Sum of Mulliken charges =   0.00000

 Dipole moment (field-independent basis, Debye):
    X=             -3.6204    Y=             -0.7005    Z=             -0.2305  Tot=              3.6947

 Test job not archived.
 1\1\GINC-SE253\SP\RHF\Aug-CC-pVDZ\C3H7B1O2\OHZDE\09-Apr-2025\0\\#t hf
 aug-cc-pvdz iop(5/13=1,5/36=2,99/5=2) pseudo=read geom=check guess=(re
 ad,tcheck) scf=(maxcycle=1)\\title\\0,1\C,0,-0.319092,-0.486421,-0.177
 48\B,0,1.170049,-0.019679,-0.035611\O,0,1.546062,1.295273,-0.040305\O,
 0,2.194563,-0.914222,0.112823\C,0,-1.382297,0.276257,0.10459\H,0,-0.52
 2243,-1.514274,-0.487398\C,0,-2.820255,-0.138618,0.024078\H,0,-1.22156
 2,1.301622,0.444511\H,0,-2.922898,-1.170587,-0.318145\H,0,-3.376412,0.
 509893,-0.662376\H,0,-3.309076,-0.048131,1.00065\H,0,0.817726,1.887093

 Normal termination of Gaussian 16 at Wed Apr  9 00:28:59 2025.
