 Gaussian 16, Revision C.01,

 ----------------------------------------------------------------------
 #t hf aug-cc-pvdz symm=none int=(grid=ultrafine) guess=(read,tcheck) s
 table=(opt,rrhf)
 ----------------------------------------------------------------------
 -----
 title
 -----
 Symbolic Z-matrix:
 Charge =  0 Multiplicity = 1

 SCF Done:  E(RHF) =  -575.543363142     A.U. after   12 cycles

 1\1\GINC-SE044\Stability\RHF\Aug-CC-pVDZ\C6H13P1\OHZDE\08-Apr-2025\0\\
 #t hf aug-cc-pvdz symm=none int=(grid=ultrafine) guess=(read,tcheck) s
 table=(opt,rrhf)\\title\\0,1\C,0,0.615812,0.000181,-0.364552\C,0,-0.09
 6129,-1.270091,0.144027\C,0,-1.593284,-1.261311,-0.203305\C,0,-2.28809
 6,0.006746,0.310994\C,0,-1.585215,1.273388,-0.195788\C,0,-0.087167,1.2
 67529,0.151553\P,0,2.454163,-0.103759,0.009106\H,0,0.018456,-1.332812,
 1.234531\H,0,0.381896,-2.16293,-0.271013\H,0,-2.074877,-2.153427,0.210
 023\H,0,-1.709095,-1.321068,-1.293132\H,0,-2.278524,0.003429,1.408719\

 Normal termination of Gaussian 16 at Tue Apr  8 23:27:54 2025.
 Gaussian 16:  ES64L-G16RevC.01  3-Jul-2019

 ----------------------------------------------------------------------
 #t hf aug-cc-pvdz iop(5/13=1,5/36=2,99/5=2) pseudo=read geom=check gue
 ss=(read,tcheck) scf=(maxcycle=1)
 ----------------------------------------------------------------------
 -----
 title
 -----
 Structure from the checkpoint file:  "BDE49_nonexpt_1298_mol1.chk"
 Charge =  0 Multiplicity = 1

                         Standard orientation:
 ---------------------------------------------------------------------
 Center     Atomic      Atomic             Coordinates (Angstroms)
 Number     Number       Type             X           Y           Z
 ---------------------------------------------------------------------
      1          6           0        0.615812    0.000181   -0.364552
      2          6           0       -0.096129   -1.270091    0.144027
      3          6           0       -1.593284   -1.261311   -0.203305
      4          6           0       -2.288096    0.006746    0.310994
      5          6           0       -1.585215    1.273388   -0.195788
      6          6           0       -0.087167    1.267529    0.151553
      7         15           0        2.454163   -0.103759    0.009106
      8          1           0        0.018456   -1.332812    1.234531
      9          1           0        0.381896   -2.162930   -0.271013
     10          1           0       -2.074877   -2.153427    0.210023
     11          1           0       -1.709095   -1.321068   -1.293132
     12          1           0       -2.278524    0.003429    1.408719
     13          1           0       -3.340332    0.010332    0.009105
     14          1           0       -2.060163    2.166166    0.224036
     15          1           0       -1.702833    1.341379   -1.285019
     16          1           0        0.397864    2.159038   -0.257517
     17          1           0        0.032455    1.320546    1.241288
     18          1           0        0.561239   -0.003421   -1.462328
     19          1           0        2.374210    0.201194    1.395335
     20          1           0        2.791740    1.229314   -0.348188
 ---------------------------------------------------------------------

 SCF Done:  E(RHF) =  -575.848172444     A.U. after    2 cycles

 The electronic state is 1-A.
 Alpha  occ. eigenvalues --  -84.26214 -11.24236 -11.23204 -11.23062 -11.22808
 Alpha  occ. eigenvalues --  -11.22766 -11.22678  -6.73284  -4.25999  -4.25687
 Alpha  occ. eigenvalues --   -4.25223  -1.12249  -1.01576  -1.00662  -0.87059
 Alpha  occ. eigenvalues --   -0.83931  -0.79038  -0.75833  -0.65318  -0.61494
 Alpha  occ. eigenvalues --   -0.60991  -0.59704  -0.54315  -0.53810  -0.51574
 Alpha  occ. eigenvalues --   -0.49775  -0.49406  -0.47535  -0.46030  -0.44477
 Alpha  occ. eigenvalues --   -0.41876  -0.33302
 Alpha virt. eigenvalues --    0.03504   0.03594   0.03626   0.04205   0.05714
 Alpha virt. eigenvalues --    0.06025   0.06172   0.06452   0.06673   0.08682
 Alpha virt. eigenvalues --    0.09188   0.09386   0.09995   0.11203   0.12742

 Mulliken charges:
               1
     1  C   -0.259763
     2  C   -0.339650
     3  C   -0.297138
     4  C   -0.259021
     5  C   -0.263889
     6  C   -0.296956
     7  P   -0.433575
     8  H    0.157482
     9  H    0.084632
    10  H    0.108954
    11  H    0.151167
    12  H    0.151040
    13  H    0.111768
    14  H    0.107232
    15  H    0.149399
    16  H    0.083204
    17  H    0.177527
    18  H    0.126780
    19  H    0.351147
    20  H    0.389659
 Sum of Mulliken charges =   0.00000

 Dipole moment (field-independent basis, Debye):
    X=             -1.1500    Y=              0.3656    Z=             -0.0371  Tot=              1.2073

 Test job not archived.
 1\1\GINC-SE044\SP\RHF\Aug-CC-pVDZ\C6H13P1\OHZDE\08-Apr-2025\0\\#t hf a
 ug-cc-pvdz iop(5/13=1,5/36=2,99/5=2) pseudo=read geom=check guess=(rea
 d,tcheck) scf=(maxcycle=1)\\title\\0,1\C,0,0.615812,0.000181,-0.364552
 \C,0,-0.096129,-1.270091,0.144027\C,0,-1.593284,-1.261311,-0.203305\C,
 0,-2.288096,0.006746,0.310994\C,0,-1.585215,1.273388,-0.195788\C,0,-0.
 087167,1.267529,0.151553\P,0,2.454163,-0.103759,0.009106\H,0,0.018456,
 -1.332812,1.234531\H,0,0.381896,-2.16293,-0.271013\H,0,-2.074877,-2.15
 3427,0.210023\H,0,-1.709095,-1.321068,-1.293132\H,0,-2.278524,0.003429

 Normal termination of Gaussian 16 at Tue Apr  8 23:28:04 2025.
