 Gaussian 16, Revision C.01,

 ----------------------------------------------------------------------
 #t hf aug-cc-pvdz symm=none int=(grid=ultrafine) guess=(read,tcheck) s
 table=(opt,rrhf)
 ----------------------------------------------------------------------
 -----
 title
 -----
 Symbolic Z-matrix:
 Charge =  0 Multiplicity = 1

 SCF Done:  E(RHF) =  -441.936209458     A.U. after   11 cycles
 Normal termination of Gaussian 16 at Wed Apr  9 00:37:24 2025.
 Gaussian 16:  ES64L-G16RevC.01  3-Jul-2019

 ----------------------------------------------------------------------
 #t hf aug-cc-pvdz iop(5/13=1,5/36=2,99/5=2) pseudo=read geom=check gue
 ss=(read,tcheck) scf=(maxcycle=1)
 ----------------------------------------------------------------------
 -----
 title
 -----
 Structure from the checkpoint file:  "BDE49_nonexpt_539_mol1.chk"
 Charge =  0 Multiplicity = 1

                         Standard orientation:
 ---------------------------------------------------------------------
 Center     Atomic      Atomic             Coordinates (Angstroms)
 Number     Number       Type             X           Y           Z
 ---------------------------------------------------------------------
      1          6           0       -0.003031   -1.600006    0.432514
      2          8           0        1.059328   -1.190534   -0.386825
      3          6           0        1.724087   -0.005806   -0.024718
      4          8           0        1.067711    1.183732   -0.386323
      5          6           0        0.007712    1.599778    0.432751
      6          8           0       -1.265419    1.235120   -0.058822
      7          5           0       -1.808015    0.006074   -0.287192
      8          1           0       -2.911097    0.009797   -0.733461
      9          8           0       -1.273970   -1.226595   -0.058174
     10          1           0        2.656731   -0.008964   -0.584006
     11          1           0        1.919671   -0.006739    1.059762
     12          1           0        0.018686    2.688659    0.427908
     13          1           0        0.144703    1.229999    1.458349
     14          1           0        0.136905   -1.231764    1.458265
     15          1           0        0.000669   -2.688935    0.427009
 ---------------------------------------------------------------------

 SCF Done:  E(RHF) =  -442.375593542     A.U. after    2 cycles

 The electronic state is 1-A.
 Alpha  occ. eigenvalues --  -20.57424 -20.57422 -20.55790 -20.55787 -11.36335
 Alpha  occ. eigenvalues --  -11.36333 -11.36057  -7.64706  -1.54265  -1.49865
 Alpha  occ. eigenvalues --   -1.47733  -1.43402  -1.01359  -0.94007  -0.89263
 Alpha  occ. eigenvalues --   -0.78556  -0.73611  -0.73016  -0.71590  -0.68413
 Alpha  occ. eigenvalues --   -0.66977  -0.64698  -0.59806  -0.55070  -0.54327
 Alpha  occ. eigenvalues --   -0.51537  -0.49655  -0.49249  -0.47587  -0.46248
 Alpha  occ. eigenvalues --   -0.44910
 Alpha virt. eigenvalues --    0.03006   0.03936   0.04048   0.04440   0.05870
 Alpha virt. eigenvalues --    0.06083   0.06868   0.07392   0.07985   0.10910
 Alpha virt. eigenvalues --    0.11717   0.12688   0.13695   0.14099   0.14356

 Mulliken charges:
               1
     1  C    1.320699
     2  O   -1.251824
     3  C    1.050428
     4  O   -1.251810
     5  C    1.320918
     6  O   -1.146361
     7  B    0.782893
     8  H    0.064181
     9  O   -1.146333
    10  H   -0.054554
    11  H    0.255741
    12  H   -0.081568
    13  H    0.109497
    14  H    0.109579
    15  H   -0.081487
 Sum of Mulliken charges =  -0.00000

 Dipole moment (field-independent basis, Debye):
    X=              1.9760    Y=             -0.0077    Z=              3.0135  Tot=              3.6036

 Test job not archived.
 1\1\GINC-SE229\SP\RHF\Aug-CC-pVDZ\C3H7B1O4\OHZDE\09-Apr-2025\0\\#t hf
 aug-cc-pvdz iop(5/13=1,5/36=2,99/5=2) pseudo=read geom=check guess=(re
 ad,tcheck) scf=(maxcycle=1)\\title\\0,1\C,0,-0.003027,-1.600006,0.4325
 14\O,0,1.059331,-1.190532,-0.386825\C,0,1.724087,-0.005802,-0.024718\O
 ,0,1.067708,1.183734,-0.386323\C,0,0.007708,1.599778,0.432751\O,0,-1.2
 65422,1.235117,-0.058822\B,0,-1.808015,0.00607,-0.287192\H,0,-2.911097
 ,0.00979,-0.733461\O,0,-1.273967,-1.226598,-0.058174\H,0,2.656731,-0.0
 08958,-0.584006\H,0,1.919671,-0.006735,1.059762\H,0,0.01868,2.688659,0

 Normal termination of Gaussian 16 at Wed Apr  9 00:37:31 2025.
