 Gaussian 16, Revision C.01,

 ----------------------------------------------------------------------
 #t hf aug-cc-pvdz symm=none int=(grid=ultrafine) guess=(read,tcheck) s
 table=(opt,rrhf)
 ----------------------------------------------------------------------
 -----
 title
 -----
 Symbolic Z-matrix:
 Charge =  0 Multiplicity = 1

 SCF Done:  E(RHF) =  -978.179299393     A.U. after   12 cycles
 Normal termination of Gaussian 16 at Tue Apr  8 23:49:21 2025.
 Gaussian 16:  ES64L-G16RevC.01  3-Jul-2019

 ----------------------------------------------------------------------
 #t hf aug-cc-pvdz iop(5/13=1,5/36=2,99/5=2) pseudo=read geom=check gue
 ss=(read,tcheck) scf=(maxcycle=1)
 ----------------------------------------------------------------------
 -----
 title
 -----
 Structure from the checkpoint file:  "BDE49_nonexpt_1820_mol1.chk"
 Charge =  0 Multiplicity = 1

                         Standard orientation:
 ---------------------------------------------------------------------
 Center     Atomic      Atomic             Coordinates (Angstroms)
 Number     Number       Type             X           Y           Z
 ---------------------------------------------------------------------
      1          6           0        2.464102    0.570166    0.086983
      2          6           0        1.511410   -0.387178   -0.649505
      3          1           0        2.552175    0.307514    1.144405
      4          1           0        2.115885    1.604364    0.027788
      5          1           0        3.466834    0.533996   -0.346309
      6         14           0       -0.218641   -0.437369    0.012279
      7          1           0        1.890437   -1.415099   -0.602848
      8          1           0        1.453120   -0.133208   -1.713085
      9         17           0       -1.115471    1.457878   -0.159502
     10          8           0       -0.305778   -0.824224    1.604383
     11          1           0       -0.538890   -0.136288    2.231511
     12          8           0       -1.046082   -1.524730   -0.877934
     13          1           0       -1.953764   -1.728328   -0.638299
 ---------------------------------------------------------------------

 SCF Done:  E(RHF) =  -978.527406603     A.U. after    2 cycles

 The electronic state is 1-A.
 Alpha  occ. eigenvalues -- -105.55323 -69.61629 -20.56123 -20.56060 -11.23707
 Alpha  occ. eigenvalues --  -11.23074 -10.60329  -7.77204  -7.76932  -7.76929
 Alpha  occ. eigenvalues --   -6.27653  -4.03116  -4.03089  -4.02887  -1.46418
 Alpha  occ. eigenvalues --   -1.44010  -1.05259  -1.02858  -0.86665  -0.77057
 Alpha  occ. eigenvalues --   -0.71496  -0.64401  -0.62029  -0.60833  -0.56951
 Alpha  occ. eigenvalues --   -0.55444  -0.53221  -0.52092  -0.51451  -0.50661
 Alpha  occ. eigenvalues --   -0.47428  -0.46707  -0.44847
 Alpha virt. eigenvalues --    0.03384   0.04154   0.04383   0.05147   0.06305
 Alpha virt. eigenvalues --    0.06999   0.07495   0.07796   0.09295   0.10010
 Alpha virt. eigenvalues --    0.12017   0.13444   0.14453   0.15342   0.16112

 Mulliken charges:
               1
     1  C   -0.415879
     2  C   -0.609655
     3  H    0.130525
     4  H    0.138894
     5  H    0.111241
     6  Si   3.194721
     7  H    0.106160
     8  H    0.108240
     9  Cl  -0.618450
    10  O   -1.464515
    11  H    0.387095
    12  O   -1.482813
    13  H    0.414434
 Sum of Mulliken charges =  -0.00000

 Dipole moment (field-independent basis, Debye):
    X=              0.2633    Y=             -0.2774    Z=              0.8489  Tot=              0.9311

 Test job not archived.
 1\1\GINC-SE226\SP\RHF\Aug-CC-pVDZ\C2H7Cl1O2Si1\OHZDE\08-Apr-2025\0\\#t
  hf aug-cc-pvdz iop(5/13=1,5/36=2,99/5=2) pseudo=read geom=check guess
 =(read,tcheck) scf=(maxcycle=1)\\title\\0,1\C,0,2.464102,0.570166,0.08
 6983\C,0,1.51141,-0.387178,-0.649505\H,0,2.552175,0.307514,1.144405\H,
 0,2.115885,1.604364,0.027788\H,0,3.466834,0.533996,-0.346309\Si,0,-0.2
 18641,-0.437369,0.012279\H,0,1.890437,-1.415099,-0.602848\H,0,1.45312,
 -0.133208,-1.713085\Cl,0,-1.115471,1.457878,-0.159502\O,0,-0.305778,-0
 .824224,1.604383\H,0,-0.53889,-0.136288,2.231511\O,0,-1.046082,-1.5247

 Normal termination of Gaussian 16 at Tue Apr  8 23:49:25 2025.
