 Gaussian 16, Revision C.01,

 ----------------------------------------------------------------------
 #t hf aug-cc-pvdz symm=none int=(grid=ultrafine) guess=(read,tcheck) s
 table=(opt,rrhf)
 ----------------------------------------------------------------------
 -----
 title
 -----
 Symbolic Z-matrix:
 Charge =  0 Multiplicity = 1

 SCF Done:  E(RHF) =  -711.002784905     A.U. after   13 cycles

 1\1\GINC-SE173\Stability\RHF\Aug-CC-pVDZ\C8H18S1\OHZDE\08-Apr-2025\0\\
 #t hf aug-cc-pvdz symm=none int=(grid=ultrafine) guess=(read,tcheck) s
 table=(opt,rrhf)\\title\\0,1\C,0,5.151486,0.447129,-0.158232\C,0,3.925
 015,-0.31686,0.34891\H,0,6.074958,0.055688,0.277223\H,0,5.088576,1.509
 679,0.096585\H,0,5.240702,0.374062,-1.246677\C,0,2.605087,0.198731,-0.
 235852\H,0,3.883028,-0.254533,1.443119\H,0,4.033819,-1.381782,0.109798
 \C,0,1.371933,-0.560865,0.265882\H,0,2.647736,0.137213,-1.331101\H,0,2
 .495774,1.264266,0.003503\C,0,0.054061,-0.039072,-0.318526\H,0,1.33089

 Normal termination of Gaussian 16 at Tue Apr  8 23:16:38 2025.
 Gaussian 16:  ES64L-G16RevC.01  3-Jul-2019

 ----------------------------------------------------------------------
 #t hf aug-cc-pvdz iop(5/13=1,5/36=2,99/5=2) pseudo=read geom=check gue
 ss=(read,tcheck) scf=(maxcycle=1)
 ----------------------------------------------------------------------
 -----
 title
 -----
 Structure from the checkpoint file:  "BDE49_expt_832_mol1.chk"
 Charge =  0 Multiplicity = 1

                         Standard orientation:
 ---------------------------------------------------------------------
 Center     Atomic      Atomic             Coordinates (Angstroms)
 Number     Number       Type             X           Y           Z
 ---------------------------------------------------------------------
      1          6           0        5.151486    0.447129   -0.158232
      2          6           0        3.925015   -0.316860    0.348910
      3          1           0        6.074958    0.055688    0.277223
      4          1           0        5.088576    1.509679    0.096585
      5          1           0        5.240702    0.374062   -1.246677
      6          6           0        2.605087    0.198731   -0.235852
      7          1           0        3.883028   -0.254533    1.443119
      8          1           0        4.033819   -1.381782    0.109798
      9          6           0        1.371933   -0.560865    0.265882
     10          1           0        2.647736    0.137213   -1.331101
     11          1           0        2.495774    1.264266    0.003503
     12          6           0        0.054061   -0.039072   -0.318526
     13          1           0        1.330895   -0.498534    1.361035
     14          1           0        1.482367   -1.626643    0.026585
     15          6           0       -1.171230   -0.810876    0.179318
     16          1           0        0.095322   -0.099514   -1.414047
     17          1           0       -0.062007    1.021230   -0.073319
     18          6           0       -2.520026   -0.341527   -0.386122
     19          1           0       -1.213382   -0.775337    1.275213
     20          1           0       -1.055988   -1.870603   -0.085716
     21          6           0       -3.657810   -1.308047   -0.052206
     22          1           0       -2.435848   -0.255747   -1.474941
     23         16           0       -2.949651    1.395126    0.103485
     24          1           0       -3.438200   -2.305196   -0.448374
     25          1           0       -4.603647   -0.967372   -0.475919
     26          1           0       -3.786138   -1.400991    1.030576
     27          1           0       -3.134641    1.140419    1.411666
 ---------------------------------------------------------------------

 SCF Done:  E(RHF) =  -711.414700646     A.U. after    2 cycles

 The electronic state is 1-A.
 Alpha  occ. eigenvalues --  -93.94059 -11.27583 -11.23512 -11.23435 -11.22499
 Alpha  occ. eigenvalues --  -11.22467 -11.22394 -11.22275 -11.22080  -8.22125
 Alpha  occ. eigenvalues --   -6.19976  -6.19826  -6.19612  -1.11587  -1.07981
 Alpha  occ. eigenvalues --   -1.02809  -0.96694  -0.95511  -0.88408  -0.81494
 Alpha  occ. eigenvalues --   -0.79117  -0.78458  -0.66224  -0.63526  -0.61921
 Alpha  occ. eigenvalues --   -0.59856  -0.59160  -0.58502  -0.56013  -0.55299
 Alpha  occ. eigenvalues --   -0.53454  -0.51891  -0.51287  -0.49951  -0.48317
 Alpha  occ. eigenvalues --   -0.47619  -0.46834  -0.46496  -0.45066  -0.43750
 Alpha  occ. eigenvalues --   -0.35985
 Alpha virt. eigenvalues --    0.03122   0.03212   0.03515   0.04182   0.04625
 Alpha virt. eigenvalues --    0.04878   0.05162   0.06326   0.06775   0.07360
 Alpha virt. eigenvalues --    0.07573   0.07912   0.09141   0.09393   0.10335

 Mulliken charges:
               1
     1  C   -0.399869
     2  C   -0.190404
     3  H    0.112667
     4  H    0.161469
     5  H    0.161268
     6  C   -0.287699
     7  H    0.116531
     8  H    0.117490
     9  C   -0.230534
    10  H    0.108270
    11  H    0.110912
    12  C   -0.200385
    13  H    0.113142
    14  H    0.111189
    15  C   -0.317510
    16  H    0.110075
    17  H    0.177670
    18  C   -0.713511
    19  H    0.090356
    20  H    0.146089
    21  C   -0.302026
    22  H    0.193267
    23  S   -0.023102
    24  H    0.167795
    25  H    0.153862
    26  H    0.170341
    27  H    0.342646
 Sum of Mulliken charges =   0.00000

 Dipole moment (field-independent basis, Debye):
    X=              0.4218    Y=             -1.7581    Z=              0.3177  Tot=              1.8357

 Test job not archived.
 1\1\GINC-SE173\SP\RHF\Aug-CC-pVDZ\C8H18S1\OHZDE\08-Apr-2025\0\\#t hf a
 ug-cc-pvdz iop(5/13=1,5/36=2,99/5=2) pseudo=read geom=check guess=(rea
 d,tcheck) scf=(maxcycle=1)\\title\\0,1\C,0,5.151486,0.447129,-0.158232
 \C,0,3.925015,-0.31686,0.34891\H,0,6.074958,0.055688,0.277223\H,0,5.08
 8576,1.509679,0.096585\H,0,5.240702,0.374062,-1.246677\C,0,2.605087,0.
 198731,-0.235852\H,0,3.883028,-0.254533,1.443119\H,0,4.033819,-1.38178
 2,0.109798\C,0,1.371933,-0.560865,0.265882\H,0,2.647736,0.137213,-1.33
 1101\H,0,2.495774,1.264266,0.003503\C,0,0.054061,-0.039072,-0.318526\H

 Normal termination of Gaussian 16 at Tue Apr  8 23:16:55 2025.
