 Gaussian 16, Revision C.01,

 ----------------------------------------------------------------------
 #t hf aug-cc-pvdz symm=none int=(grid=ultrafine) guess=(read,tcheck) s
 table=(opt,rrhf)
 ----------------------------------------------------------------------
 -----
 title
 -----
 Symbolic Z-matrix:
 Charge =  0 Multiplicity = 1

 SCF Done:  E(RHF) =  -1735.25312335     A.U. after   14 cycles
 Normal termination of Gaussian 16 at Tue Apr  8 23:43:38 2025.
 Gaussian 16:  ES64L-G16RevC.01  3-Jul-2019

 ----------------------------------------------------------------------
 #t hf aug-cc-pvdz iop(5/13=1,5/36=2,99/5=2) pseudo=read geom=check gue
 ss=(read,tcheck) scf=(maxcycle=1)
 ----------------------------------------------------------------------
 -----
 title
 -----
 Structure from the checkpoint file:  "BDE49_nonexpt_1701_mol1.chk"
 Charge =  0 Multiplicity = 1

                         Standard orientation:
 ---------------------------------------------------------------------
 Center     Atomic      Atomic             Coordinates (Angstroms)
 Number     Number       Type             X           Y           Z
 ---------------------------------------------------------------------
      1         16           0       -0.599672    1.335880   -0.345676
      2         15           0       -1.907332   -0.345391   -0.091083
      3          8           0       -1.675589   -1.414015   -1.058181
      4          8           0       -3.295542    0.441784   -0.119108
      5          8           0        0.850422    0.501790   -0.808365
      6          6           0        1.685042    0.144078    0.200506
      7         17           0        3.086823   -0.664107   -0.523979
      8          9           0        1.080970   -0.718303    1.073591
      9          9           0        2.092862    1.190125    0.936343
     10          1           0       -3.678374    0.466529   -1.005416
     11          8           0       -1.905617   -0.706295    1.456993
     12          1           0       -1.057020   -1.066897    1.746972
 ---------------------------------------------------------------------

 SCF Done:  E(RHF) =  -1735.93755038     A.U. after    2 cycles

 The electronic state is 1-A.
 Alpha  occ. eigenvalues -- -105.60816 -94.05215 -84.47762 -26.53561 -26.53071
 Alpha  occ. eigenvalues --  -20.65216 -20.62957 -20.62088 -20.53710 -11.57023
 Alpha  occ. eigenvalues --  -10.65712  -8.32801  -7.82667  -7.82213  -7.82210
 Alpha  occ. eigenvalues --   -6.92880  -6.30575  -6.30328  -6.30074  -4.47017
 Alpha  occ. eigenvalues --   -4.46257  -4.45096  -1.72138  -1.63682  -1.57063
 Alpha  occ. eigenvalues --   -1.55033  -1.50531  -1.42150  -1.14432  -1.04829
 Alpha  occ. eigenvalues --   -0.93372  -0.88365  -0.82628  -0.81249  -0.78781
 Alpha  occ. eigenvalues --   -0.73562  -0.72641  -0.70131  -0.69010  -0.66409
 Alpha  occ. eigenvalues --   -0.65187  -0.64465  -0.62102  -0.60418  -0.59075
 Alpha  occ. eigenvalues --   -0.57505  -0.56613  -0.51437  -0.50500  -0.50293
 Alpha  occ. eigenvalues --   -0.49029  -0.45897  -0.43039
 Alpha virt. eigenvalues --    0.03143   0.04666   0.05423   0.06907   0.08121
 Alpha virt. eigenvalues --    0.09395   0.09743   0.10512   0.11214   0.11887
 Alpha virt. eigenvalues --    0.13168   0.13397   0.14935   0.15277   0.15720

 Mulliken charges:
               1
     1  S    0.086420
     2  P    3.700105
     3  O   -1.424805
     4  O   -1.250284
     5  O   -1.228522
     6  C    2.078441
     7  Cl  -0.085924
     8  F   -0.695634
     9  F   -0.639700
    10  H    0.360686
    11  O   -1.377807
    12  H    0.477024
 Sum of Mulliken charges =   0.00000

 Dipole moment (field-independent basis, Debye):
    X=             -1.1002    Y=              1.5444    Z=              0.7510  Tot=              2.0395

 Test job not archived.
 1\1\GINC-SE334\SP\RHF\Aug-CC-pVDZ\C1H2Cl1F2O4P1S1\OHZDE\08-Apr-2025\0\
 \#t hf aug-cc-pvdz iop(5/13=1,5/36=2,99/5=2) pseudo=read geom=check gu
 ess=(read,tcheck) scf=(maxcycle=1)\\title\\0,1\S,0,-0.599672,1.33588,-
 0.345676\P,0,-1.907332,-0.345391,-0.091083\O,0,-1.675589,-1.414015,-1.
 058181\O,0,-3.295542,0.441784,-0.119108\O,0,0.850422,0.50179,-0.808365
 \C,0,1.685042,0.144078,0.200506\Cl,0,3.086823,-0.664107,-0.523979\F,0,
 1.08097,-0.718303,1.073591\F,0,2.092862,1.190125,0.936343\H,0,-3.67837
 4,0.466529,-1.005416\O,0,-1.905617,-0.706295,1.456993\H,0,-1.05702,-1.

 Normal termination of Gaussian 16 at Tue Apr  8 23:43:45 2025.
