 Gaussian 16, Revision C.01,

 ----------------------------------------------------------------------
 #t hf aug-cc-pvdz symm=none int=(grid=ultrafine) guess=(read,tcheck) s
 table=(opt,rrhf)
 ----------------------------------------------------------------------
 -----
 title
 -----
 Symbolic Z-matrix:
 Charge =  0 Multiplicity = 1

 SCF Done:  E(RHF) =  -666.116689072     A.U. after   15 cycles
 Normal termination of Gaussian 16 at Tue Apr  8 23:37:26 2025.
 Gaussian 16:  ES64L-G16RevC.01  3-Jul-2019

 ----------------------------------------------------------------------
 #t hf aug-cc-pvdz iop(5/13=1,5/36=2,99/5=2) pseudo=read geom=check gue
 ss=(read,tcheck) scf=(maxcycle=1)
 ----------------------------------------------------------------------
 -----
 title
 -----
 Structure from the checkpoint file:  "BDE49_nonexpt_1525_mol1.chk"
 Charge =  0 Multiplicity = 1

                         Standard orientation:
 ---------------------------------------------------------------------
 Center     Atomic      Atomic             Coordinates (Angstroms)
 Number     Number       Type             X           Y           Z
 ---------------------------------------------------------------------
      1          6           0       -0.213589   -0.150387   -0.433459
      2          7           0        2.523276   -0.218109    0.367179
      3          6           0        2.342530    0.824779    1.372583
      4          1           0        1.419762    0.717152    1.957664
      5          1           0        2.313935    1.800603    0.880037
      6          1           0        3.193175    0.824019    2.059344
      7          6           0       -0.893488   -1.218865    0.169322
      8          6           0       -2.211319   -1.080403    0.595090
      9          6           0       -2.882297    0.127332    0.406008
     10          6           0       -2.226380    1.193617   -0.204539
     11          6           0       -0.900986    1.056706   -0.614224
     12          1           0       -0.396700    1.897650   -1.078764
     13          1           0       -0.387806   -2.171244    0.298605
     14          1           0       -2.719693   -1.916690    1.062496
     15          1           0       -3.911865    0.234206    0.728873
     16          1           0       -2.743650    2.134914   -0.355638
     17         15           0        1.528746   -0.420156   -1.003656
     18          1           0        1.678444    0.881925   -1.548874
     19          1           0        2.873447   -1.090100    0.736147
 ---------------------------------------------------------------------

 SCF Done:  E(RHF) =  -666.501299180     A.U. after    2 cycles

 The electronic state is 1-A.
 Alpha  occ. eigenvalues --  -84.28812 -15.49138 -11.26062 -11.24812 -11.24788
 Alpha  occ. eigenvalues --  -11.24751 -11.24610 -11.24593 -11.24319  -6.75476
 Alpha  occ. eigenvalues --   -4.28535  -4.28123  -4.27549  -1.18944  -1.15500
 Alpha  occ. eigenvalues --   -1.02466  -1.01945  -0.93169  -0.85783  -0.83704
 Alpha  occ. eigenvalues --   -0.79407  -0.71158  -0.66578  -0.64578  -0.64028
 Alpha  occ. eigenvalues --   -0.61240  -0.60351  -0.60179  -0.55559  -0.52251
 Alpha  occ. eigenvalues --   -0.51206  -0.50749  -0.48761  -0.40877  -0.36645
 Alpha  occ. eigenvalues --   -0.34911  -0.32035
 Alpha virt. eigenvalues --    0.03454   0.03588   0.03759   0.04690   0.05284
 Alpha virt. eigenvalues --    0.05814   0.06708   0.06852   0.07311   0.08091
 Alpha virt. eigenvalues --    0.09143   0.09619   0.10236   0.11391   0.12765

 Mulliken charges:
               1
     1  C    0.712948
     2  N    0.075938
     3  C   -0.502921
     4  H    0.155261
     5  H    0.091344
     6  H    0.021988
     7  C   -0.330043
     8  C    0.286371
     9  C    0.210326
    10  C    0.268449
    11  C   -0.053117
    12  H   -0.326236
    13  H   -0.305279
    14  H   -0.213715
    15  H   -0.211128
    16  H   -0.218839
    17  P    0.114042
    18  H    0.156500
    19  H    0.068111
 Sum of Mulliken charges =   0.00000

 Dipole moment (field-independent basis, Debye):
    X=             -0.7598    Y=              0.3845    Z=              1.4640  Tot=              1.6936

 Test job not archived.
 1\1\GINC-SE069\SP\RHF\Aug-CC-pVDZ\C7H10N1P1\OHZDE\08-Apr-2025\0\\#t hf
  aug-cc-pvdz iop(5/13=1,5/36=2,99/5=2) pseudo=read geom=check guess=(r
 ead,tcheck) scf=(maxcycle=1)\\title\\0,1\C,0,-0.213589,-0.150387,-0.43
 3459\N,0,2.523276,-0.218109,0.367179\C,0,2.34253,0.824779,1.372583\H,0
 ,1.419762,0.717152,1.957664\H,0,2.313935,1.800603,0.880037\H,0,3.19317
 5,0.824019,2.059344\C,0,-0.893488,-1.218865,0.169322\C,0,-2.211319,-1.
 080403,0.59509\C,0,-2.882297,0.127332,0.406008\C,0,-2.22638,1.193617,-
 0.204539\C,0,-0.900986,1.056706,-0.614224\H,0,-0.3967,1.89765,-1.07876

 Normal termination of Gaussian 16 at Tue Apr  8 23:37:36 2025.
