 Gaussian 16, Revision C.01,

 ----------------------------------------------------------------------
 #t hf aug-cc-pvdz symm=none int=(grid=ultrafine) guess=(read,tcheck) s
 table=(opt,rrhf)
 ----------------------------------------------------------------------
 -----
 title
 -----
 Symbolic Z-matrix:
 Charge =  0 Multiplicity = 1

 SCF Done:  E(RHF) =  -1750.69023019     A.U. after   16 cycles
 Normal termination of Gaussian 16 at Wed Apr  9 00:52:47 2025.
 Gaussian 16:  ES64L-G16RevC.01  3-Jul-2019

 ----------------------------------------------------------------------
 #t hf aug-cc-pvdz iop(5/13=1,5/36=2,99/5=2) pseudo=read geom=check gue
 ss=(read,tcheck) scf=(maxcycle=1)
 ----------------------------------------------------------------------
 -----
 title
 -----
 Structure from the checkpoint file:  "BDE49_nonexpt_931_mol1.chk"
 Charge =  0 Multiplicity = 1

                         Standard orientation:
 ---------------------------------------------------------------------
 Center     Atomic      Atomic             Coordinates (Angstroms)
 Number     Number       Type             X           Y           Z
 ---------------------------------------------------------------------
      1         17           0       -1.701458    1.446484   -1.164929
      2         17           0       -1.701458   -1.446484   -1.164929
      3         16           0       -0.618044    0.000000    1.167358
      4          8           0       -0.854076   -1.263782    1.805675
      5          8           0       -0.854076    1.263782    1.805675
      6          7           0       -1.844945    0.000000   -0.159273
      7          6           0        1.610358   -1.220105    0.144458
      8          6           0        2.878266   -1.210613   -0.427547
      9          6           0        3.507296   -0.000000   -0.715532
     10          6           0        2.878266    1.210613   -0.427547
     11          6           0        1.610359    1.220105    0.144458
     12          6           0        0.989107   -0.000000    0.416447
     13          1           0        1.113222   -2.147509    0.393910
     14          1           0        3.376698   -2.148352   -0.641674
     15          1           0        4.496365   -0.000000   -1.158922
     16          1           0        3.376699    2.148352   -0.641674
     17          1           0        1.113223    2.147509    0.393910
 ---------------------------------------------------------------------

 SCF Done:  E(RHF) =  -1751.33098449     A.U. after    2 cycles

 The electronic state is 1-A.
 Alpha  occ. eigenvalues -- -105.62518-105.62518 -94.24114 -20.56804 -20.56799
 Alpha  occ. eigenvalues --  -15.66289 -11.30612 -11.29180 -11.29174 -11.28691
 Alpha  occ. eigenvalues --  -11.27730 -11.27715 -10.67012 -10.66972  -8.49086
 Alpha  occ. eigenvalues --   -7.83955  -7.83949  -7.83459  -7.83454  -7.83427
 Alpha  occ. eigenvalues --   -7.83424  -6.47200  -6.46974  -6.46874  -1.59496
 Alpha  occ. eigenvalues --   -1.47504  -1.28549  -1.20253  -1.08679  -1.08191
 Alpha  occ. eigenvalues --   -1.05957  -1.01014  -0.92640  -0.87923  -0.83496
 Alpha  occ. eigenvalues --   -0.76995  -0.73985  -0.70854  -0.69999  -0.67489
 Alpha  occ. eigenvalues --   -0.66547  -0.64659  -0.64256  -0.63543  -0.57293
 Alpha  occ. eigenvalues --   -0.55710  -0.54793  -0.54678  -0.52350  -0.51737
 Alpha  occ. eigenvalues --   -0.51473  -0.49425  -0.48602  -0.47111  -0.44296
 Alpha  occ. eigenvalues --   -0.39584  -0.38234
 Alpha virt. eigenvalues --    0.02398   0.02787   0.03025   0.04233   0.04929
 Alpha virt. eigenvalues --    0.05999   0.06535   0.07638   0.07833   0.08496
 Alpha virt. eigenvalues --    0.09945   0.10128   0.10969   0.12008   0.12797

 Mulliken charges:
               1
     1  Cl   0.037555
     2  Cl   0.037555
     3  S    3.983026
     4  O   -1.607935
     5  O   -1.607935
     6  N   -0.490551
     7  C   -0.611799
     8  C    0.585293
     9  C   -0.096886
    10  C    0.585294
    11  C   -0.611790
    12  C    0.972188
    13  H   -0.271818
    14  H   -0.215277
    15  H   -0.199827
    16  H   -0.215276
    17  H   -0.271818
 Sum of Mulliken charges =  -0.00000

 Dipole moment (field-independent basis, Debye):
    X=              5.1457    Y=             -0.0000    Z=             -3.3165  Tot=              6.1219

 Test job not archived.
 1\1\GINC-SE362\SP\RHF\Aug-CC-pVDZ\C6H5Cl2N1O2S1\OHZDE\09-Apr-2025\0\\#
 t hf aug-cc-pvdz iop(5/13=1,5/36=2,99/5=2) pseudo=read geom=check gues
 s=(read,tcheck) scf=(maxcycle=1)\\title\\0,1\Cl,0,-1.701458,1.446484,-
 1.164929\Cl,0,-1.701458,-1.446484,-1.164929\S,0,-0.618044,0.,1.167358\
 O,0,-0.854076,-1.263782,1.805675\O,0,-0.854076,1.263782,1.805675\N,0,-
 1.844945,0.,-0.159273\C,0,1.610358,-1.220105,0.144458\C,0,2.878266,-1.
 210613,-0.427547\C,0,3.507296,0.,-0.715532\C,0,2.878266,1.210613,-0.42
 7547\C,0,1.610359,1.220105,0.144458\C,0,0.989107,0.,0.416447\H,0,1.113

 Normal termination of Gaussian 16 at Wed Apr  9 00:52:58 2025.
