 Gaussian 16, Revision C.01,

 ----------------------------------------------------------------------
 #t hf aug-cc-pvdz symm=none int=(grid=ultrafine) guess=(read,tcheck) s
 table=(opt,rrhf)
 ----------------------------------------------------------------------
 -----
 title
 -----
 Symbolic Z-matrix:
 Charge =  0 Multiplicity = 1

 SCF Done:  E(RHF) =  -489.771599352     A.U. after   12 cycles
 Normal termination of Gaussian 16 at Tue Apr  8 22:31:29 2025.
 Gaussian 16:  ES64L-G16RevC.01  3-Jul-2019

 ----------------------------------------------------------------------
 #t hf aug-cc-pvdz iop(5/13=1,5/36=2,99/5=2) pseudo=read geom=check gue
 ss=(read,tcheck) scf=(maxcycle=1)
 ----------------------------------------------------------------------
 -----
 title
 -----
 Structure from the checkpoint file:  "BDE49_expt_1051_mol1.chk"
 Charge =  0 Multiplicity = 1

                         Standard orientation:
 ---------------------------------------------------------------------
 Center     Atomic      Atomic             Coordinates (Angstroms)
 Number     Number       Type             X           Y           Z
 ---------------------------------------------------------------------
      1          6           0        0.908531    0.043087    0.000001
      2          6           0       -1.582031   -0.409195    0.000003
      3          9           0        1.859504    1.000579   -0.000017
      4          9           0        1.126685   -0.735586   -1.086964
      5          9           0        1.126681   -0.735541    1.086999
      6          8           0       -2.809981    0.308956   -0.000009
      7          1           0       -3.529774   -0.328341   -0.000011
      8          6           0       -0.475379    0.638692   -0.000014
      9          1           0       -1.487440   -1.045712   -0.888729
     10          1           0       -1.487440   -1.045682    0.888757
     11          1           0       -0.569031    1.273770    0.883340
     12          1           0       -0.569027    1.273736   -0.883393
 ---------------------------------------------------------------------

 SCF Done:  E(RHF) =  -490.240742939     A.U. after    2 cycles

 The electronic state is 1-A.
 Alpha  occ. eigenvalues --  -26.50210 -26.50208 -26.50203 -20.56858 -11.51688
 Alpha  occ. eigenvalues --  -11.31045 -11.26969  -1.70746  -1.60780  -1.60681
 Alpha  occ. eigenvalues --   -1.46783  -1.09523  -0.94960  -0.87656  -0.80673
 Alpha  occ. eigenvalues --   -0.80470  -0.77400  -0.69968  -0.69899  -0.68430
 Alpha  occ. eigenvalues --   -0.66497  -0.63488  -0.62989  -0.61612  -0.59601
 Alpha  occ. eigenvalues --   -0.56411  -0.55549  -0.52063  -0.46277
 Alpha virt. eigenvalues --    0.03153   0.04713   0.04751   0.05497   0.07256
 Alpha virt. eigenvalues --    0.08974   0.11484   0.11728   0.11945   0.13335
 Alpha virt. eigenvalues --    0.15285   0.16108   0.17154   0.17383   0.18230

 Mulliken charges:
               1
     1  C    2.645080
     2  C    0.774206
     3  F   -0.769196
     4  F   -0.778379
     5  F   -0.778378
     6  O   -1.191080
     7  H    0.323568
     8  C   -0.918530
     9  H    0.125027
    10  H    0.125029
    11  H    0.221327
    12  H    0.221326
 Sum of Mulliken charges =  -0.00000

 Dipole moment (field-independent basis, Debye):
    X=             -2.2220    Y=             -0.8022    Z=             -0.0000  Tot=              2.3624

 Test job not archived.
 1\1\GINC-SE073\SP\RHF\Aug-CC-pVDZ\C3H5F3O1\OHZDE\08-Apr-2025\0\\#t hf
 aug-cc-pvdz iop(5/13=1,5/36=2,99/5=2) pseudo=read geom=check guess=(re
 ad,tcheck) scf=(maxcycle=1)\\title\\0,1\C,0,0.908531,0.043087,0.000001
 \C,0,-1.582031,-0.409195,0.000003\F,0,1.859504,1.000579,-0.000017\F,0,
 1.126685,-0.735586,-1.086964\F,0,1.126681,-0.735541,1.086999\O,0,-2.80
 9981,0.308956,-0.000009\H,0,-3.529774,-0.328341,-0.000011\C,0,-0.47537
 9,0.638692,-0.000014\H,0,-1.48744,-1.045712,-0.888729\H,0,-1.48744,-1.
 045682,0.888757\H,0,-0.569031,1.27377,0.88334\H,0,-0.569027,1.273736,-

 Normal termination of Gaussian 16 at Tue Apr  8 22:31:33 2025.
