 Gaussian 16, Revision C.01,

 ----------------------------------------------------------------------
 #t hf aug-cc-pvdz symm=none int=(grid=ultrafine) guess=(read,tcheck) s
 table=(opt,rrhf)
 ----------------------------------------------------------------------
 -----
 title
 -----
 Symbolic Z-matrix:
 Charge =  0 Multiplicity = 1

 SCF Done:  E(RHF) =  -176.908003419     A.U. after   12 cycles
 Normal termination of Gaussian 16 at Tue Apr  8 22:44:26 2025.
 Gaussian 16:  ES64L-G16RevC.01  3-Jul-2019

 ----------------------------------------------------------------------
 #t hf aug-cc-pvdz iop(5/13=1,5/36=2,99/5=2) pseudo=read geom=check gue
 ss=(read,tcheck) scf=(maxcycle=1)
 ----------------------------------------------------------------------
 -----
 title
 -----
 Structure from the checkpoint file:  "BDE49_expt_1517_mol1.chk"
 Charge =  0 Multiplicity = 1

                         Standard orientation:
 ---------------------------------------------------------------------
 Center     Atomic      Atomic             Coordinates (Angstroms)
 Number     Number       Type             X           Y           Z
 ---------------------------------------------------------------------
      1          6           0        0.020455    0.432872   -0.000000
      2          6           0        1.180071   -0.198304   -0.000000
      3          9           0       -1.157594   -0.223060   -0.000000
      4          1           0       -0.116387    1.508146    0.000001
      5          1           0        2.098991    0.371389    0.000002
      6          1           0        1.232587   -1.279403   -0.000000
 ---------------------------------------------------------------------

 SCF Done:  E(RHF) =  -177.081473603     A.U. after    2 cycles

 The electronic state is 1-A.
 Alpha  occ. eigenvalues --  -26.47503 -11.33926 -11.24787  -1.60390  -1.05306
 Alpha  occ. eigenvalues --   -0.83194  -0.73101  -0.68273  -0.66683  -0.58697
 Alpha  occ. eigenvalues --   -0.55870  -0.39167
 Alpha virt. eigenvalues --    0.03778   0.04481   0.05413   0.10333   0.10640
 Alpha virt. eigenvalues --    0.11189   0.12318   0.15250   0.16725   0.18282
 Alpha virt. eigenvalues --    0.19567   0.21876   0.25124   0.28338   0.29691

 Mulliken charges:
               1
     1  C    0.941521
     2  C   -0.180847
     3  F   -0.722000
     4  H    0.027420
     5  H   -0.037275
     6  H   -0.028820
 Sum of Mulliken charges =  -0.00000

 Dipole moment (field-independent basis, Debye):
    X=              1.2673    Y=              0.7678    Z=              0.0000  Tot=              1.4818

 Test job not archived.
 1\1\GINC-SE273\SP\RHF\Aug-CC-pVDZ\C2H3F1\OHZDE\08-Apr-2025\0\\#t hf au
 g-cc-pvdz iop(5/13=1,5/36=2,99/5=2) pseudo=read geom=check guess=(read
 ,tcheck) scf=(maxcycle=1)\\title\\0,1\C,0,0.020455,0.432872,0.\C,0,1.1
 80071,-0.198304,0.\F,0,-1.157594,-0.22306,0.\H,0,-0.116387,1.508146,0.
 000001\H,0,2.098991,0.371389,0.000002\H,0,1.232587,-1.279403,0.\\Versi
 on=ES64L-G16RevC.01\State=1-A\HF=-177.0814736\RMSD=1.070e-02\Dipole=0.
 4985939,0.3020827,0.000001\Quadrupole=-0.1072011,1.5779961,-1.470795,-
 0.6894716,0.0000034,0.000002\PG=C01 [X(C2H3F1)]\\@

 Normal termination of Gaussian 16 at Tue Apr  8 22:44:28 2025.
