 Gaussian 16, Revision C.01,

 ----------------------------------------------------------------------
 #t hf aug-cc-pvdz symm=none int=(grid=ultrafine) guess=(read,tcheck) s
 table=(opt,rrhf)
 ----------------------------------------------------------------------
 -----
 title
 -----
 Symbolic Z-matrix:
 Charge =  0 Multiplicity = 1

 SCF Done:  E(RHF) =  -1904.06925935     A.U. after   16 cycles
 Normal termination of Gaussian 16 at Tue Apr  8 23:26:13 2025.
 Gaussian 16:  ES64L-G16RevC.01  3-Jul-2019

 ----------------------------------------------------------------------
 #t hf aug-cc-pvdz iop(5/13=1,5/36=2,99/5=2) pseudo=read geom=check gue
 ss=(read,tcheck) scf=(maxcycle=1)
 ----------------------------------------------------------------------
 -----
 title
 -----
 Structure from the checkpoint file:  "BDE49_nonexpt_1262_mol1.chk"
 Charge =  0 Multiplicity = 1

                         Standard orientation:
 ---------------------------------------------------------------------
 Center     Atomic      Atomic             Coordinates (Angstroms)
 Number     Number       Type             X           Y           Z
 ---------------------------------------------------------------------
      1         17           0        2.102927   -0.896305    1.213878
      2         17           0       -3.001039    0.235047   -0.109937
      3          8           0       -0.935880   -2.249015   -1.002604
      4          8           0       -0.270431    2.386466    0.694616
      5         15           0        1.424780   -0.821014   -0.794648
      6         15           0       -1.191212   -0.184184    0.850472
      7          6           0       -0.404419   -1.343546   -0.436022
      8          6           0       -0.141572    1.295879    0.216574
      9          6           0        0.888965    0.969348   -0.876757
     10          1           0        0.305892    0.974215   -1.813968
     11          6           0        2.023268    1.992824   -0.965941
     12          1           0        2.646839    1.958931   -0.070440
     13          1           0        1.610980    2.999085   -1.047228
     14          1           0        2.653726    1.800481   -1.835926
 ---------------------------------------------------------------------

 SCF Done:  E(RHF) =  -1904.60484738     A.U. after    2 cycles

 The electronic state is 1-A.
 Alpha  occ. eigenvalues -- -105.59567-105.59005 -84.37204 -84.36639 -20.60650
 Alpha  occ. eigenvalues --  -20.58828 -11.39443 -11.38945 -11.30742 -11.26566
 Alpha  occ. eigenvalues --  -10.64404 -10.63830  -7.81306  -7.80950  -7.80946
 Alpha  occ. eigenvalues --   -7.80749  -7.80357  -7.80347  -6.83812  -6.83347
 Alpha  occ. eigenvalues --   -4.35999  -4.35917  -4.35589  -4.35437  -4.35328
 Alpha  occ. eigenvalues --   -4.34867  -1.53771  -1.52398  -1.14222  -1.09486
 Alpha  occ. eigenvalues --   -1.07616  -0.98417  -0.89792  -0.88277  -0.76544
 Alpha  occ. eigenvalues --   -0.75409  -0.70015  -0.67448  -0.65800  -0.62703
 Alpha  occ. eigenvalues --   -0.61181  -0.60130  -0.58080  -0.57303  -0.55634
 Alpha  occ. eigenvalues --   -0.52456  -0.51657  -0.50729  -0.50478  -0.49804
 Alpha  occ. eigenvalues --   -0.46948  -0.42486  -0.38133  -0.34795
 Alpha virt. eigenvalues --    0.02755   0.03181   0.04317   0.04970   0.05637
 Alpha virt. eigenvalues --    0.06455   0.06844   0.07204   0.07525   0.08760
 Alpha virt. eigenvalues --    0.09216   0.09712   0.10825   0.11315   0.12417

 Mulliken charges:
               1
     1  Cl  -0.526429
     2  Cl  -0.471978
     3  O   -1.197532
     4  O   -1.308271
     5  P    1.219852
     6  P    1.213159
     7  C    0.521288
     8  C    0.846867
     9  C   -0.686336
    10  H    0.354477
    11  C   -0.517872
    12  H    0.206231
    13  H    0.176379
    14  H    0.170165
 Sum of Mulliken charges =  -0.00000

 Dipole moment (field-independent basis, Debye):
    X=              2.4184    Y=              0.4514    Z=             -1.5376  Tot=              2.9011

 Test job not archived.
 1\1\GINC-SE331\SP\RHF\Aug-CC-pVDZ\C4H4Cl2O2P2\OHZDE\08-Apr-2025\0\\#t
 hf aug-cc-pvdz iop(5/13=1,5/36=2,99/5=2) pseudo=read geom=check guess=
 (read,tcheck) scf=(maxcycle=1)\\title\\0,1\Cl,0,2.102927,-0.896305,1.2
 13878\Cl,0,-3.001039,0.235047,-0.109937\O,0,-0.93588,-2.249015,-1.0026
 04\O,0,-0.270431,2.386466,0.694616\P,0,1.42478,-0.821014,-0.794648\P,0
 ,-1.191212,-0.184184,0.850472\C,0,-0.404419,-1.343546,-0.436022\C,0,-0
 .141572,1.295879,0.216574\C,0,0.888965,0.969348,-0.876757\H,0,0.305892
 ,0.974215,-1.813968\C,0,2.023268,1.992824,-0.965941\H,0,2.646839,1.958

 Normal termination of Gaussian 16 at Tue Apr  8 23:26:21 2025.
