 Gaussian 16, Revision C.01,

 ----------------------------------------------------------------------
 #t hf aug-cc-pvdz symm=none int=(grid=ultrafine) guess=(read,tcheck) s
 table=opt
 ----------------------------------------------------------------------
 -----
 title
 -----
 Symbolic Z-matrix:
 Charge =  0 Multiplicity = 2

 SCF Done:  E(UHF) =  -194.560140857     A.U. after   15 cycles
 Normal termination of Gaussian 16 at Tue Apr  8 22:37:00 2025.
 Gaussian 16:  ES64L-G16RevC.01  3-Jul-2019

 ----------------------------------------------------------------------
 #t hf aug-cc-pvdz iop(5/13=1,5/36=2,99/5=2) pseudo=read geom=check gue
 ss=(read,tcheck) scf=(maxcycle=1)
 ----------------------------------------------------------------------
 -----
 title
 -----
 Structure from the checkpoint file:  "BDE49_expt_1159_mol2.chk"
 Charge =  0 Multiplicity = 2

                         Standard orientation:
 ---------------------------------------------------------------------
 Center     Atomic      Atomic             Coordinates (Angstroms)
 Number     Number       Type             X           Y           Z
 ---------------------------------------------------------------------
      1          6           0       -0.000000    1.276809    0.000000
      2          6           0       -0.738114   -0.989337    0.220888
      3          6           0        0.738114   -0.989337   -0.220888
      4          6           0        1.233720    0.435618    0.119935
      5          1           0        0.799209   -1.148095   -1.302846
      6          1           0        1.326978   -1.774334    0.259281
      7          1           0        1.639208    0.465643    1.145474
      8          1           0        2.050739    0.768869   -0.531534
      9          6           0       -1.233721    0.435618   -0.119935
     10          1           0       -0.000000    2.359605   -0.000002
     11          1           0       -1.639209    0.465643   -1.145473
     12          1           0       -2.050738    0.768868    0.531535
     13          1           0       -0.799208   -1.148096    1.302845
     14          1           0       -1.326978   -1.774334   -0.259281
 ---------------------------------------------------------------------

 SCF Done:  E(UHF) =  -194.774812464     A.U. after    2 cycles

 The electronic state is 2-A.
 Alpha  occ. eigenvalues --  -11.22649 -11.22428 -11.22426 -11.22415 -11.22393
 Alpha  occ. eigenvalues --   -1.12569  -0.96257  -0.95922  -0.78405  -0.76421
 Alpha  occ. eigenvalues --   -0.66779  -0.65272  -0.57804  -0.54927  -0.50596
 Alpha  occ. eigenvalues --   -0.50577  -0.48338  -0.47613  -0.46571  -0.32437
 Alpha virt. eigenvalues --    0.03923   0.04010   0.04076   0.04247   0.06373
 Alpha virt. eigenvalues --    0.06654   0.06744   0.07075   0.07302   0.13143
 Alpha virt. eigenvalues --    0.13862   0.15078   0.15233   0.15698   0.15732

  Beta  occ. eigenvalues --  -11.22773 -11.22769 -11.22386 -11.22367 -11.20149
  Beta  occ. eigenvalues --   -1.10932  -0.96249  -0.92665  -0.78205  -0.72529
  Beta  occ. eigenvalues --   -0.65965  -0.63971  -0.56946  -0.52093  -0.49763
  Beta  occ. eigenvalues --   -0.49410  -0.48144  -0.47532  -0.46152
  Beta virt. eigenvalues --    0.03977   0.04029   0.04084   0.04246   0.06409
  Beta virt. eigenvalues --    0.06666   0.06734   0.07085   0.07251   0.11430
  Beta virt. eigenvalues --    0.13203   0.13900   0.15131   0.15348   0.15835

 Mulliken charges and spin densities:
               1          2
     1  C    0.275652   1.576101
     2  C   -0.201847   0.008888
     3  C   -0.201849   0.008888
     4  C   -0.432290  -0.307438
     5  H    0.099066   0.002003
     6  H    0.139022   0.001009
     7  H    0.171153   0.035109
     8  H    0.126373   0.017675
     9  C   -0.432284  -0.307437
    10  H   -0.078604  -0.090593
    11  H    0.171151   0.035108
    12  H    0.126372   0.017675
    13  H    0.099063   0.002003
    14  H    0.139022   0.001009
 Sum of Mulliken charges =  -0.00000   1.00000

 Dipole moment (field-independent basis, Debye):
    X=             -0.0000    Y=             -0.1324    Z=             -0.0000  Tot=              0.1324
                          Isotropic Fermi Contact Couplings
        Atom                 a.u.       MegaHertz       Gauss      10(-4) cm-1
     1  C(13)              0.21950     246.76291      88.05114      82.31125
     2  C(13)              0.00482       5.41990       1.93395       1.80788
     3  C(13)              0.00482       5.41998       1.93398       1.80791
     4  C(13)             -0.06310     -70.93566     -25.31161     -23.66159
     5  H(1)              -0.00067      -3.00755      -1.07317      -1.00321
     6  H(1)              -0.00055      -2.47912      -0.88461      -0.82694
     7  H(1)               0.02389     106.76538      38.09654      35.61310
     8  H(1)               0.01388      62.03524      22.13572      20.69273

 Normal termination of Gaussian 16 at Tue Apr  8 22:37:04 2025.
