 Gaussian 16, Revision C.01,

 ----------------------------------------------------------------------
 #t hf aug-cc-pvdz symm=none int=(grid=ultrafine) guess=(read,tcheck) s
 table=(opt,rrhf)
 ----------------------------------------------------------------------
 -----
 title
 -----
 Symbolic Z-matrix:
 Charge =  0 Multiplicity = 1

 SCF Done:  E(RHF) =  -663.531361231     A.U. after   12 cycles

 1\1\GINC-SE015\Stability\RHF\Aug-CC-pVDZ\Cl1N1O2\OHZDE\08-Apr-2025\0\\
 #t hf aug-cc-pvdz symm=none int=(grid=ultrafine) guess=(read,tcheck) s
 table=(opt,rrhf)\\title\\0,1\N,0,0.,0.,-0.637278\O,0,0.,1.088307,-1.10
 367\Cl,0,0.,0.,1.301156\O,0,0.,-1.088307,-1.10367\\Version=ES64L-G16Re
 vC.01\HF=-663.5313612\RMSD=9.723e-09\Dipole=0.,0.,0.3082068\Quadrupole
 =0.9752014,-1.4791928,0.5039914,0.,0.,0.\PG=Unknown\\@
 The archive entry for this job was punched.

 Normal termination of Gaussian 16 at Tue Apr  8 22:54:34 2025.
 Gaussian 16:  ES64L-G16RevC.01  3-Jul-2019

 ----------------------------------------------------------------------
 #t hf aug-cc-pvdz iop(5/13=1,5/36=2,99/5=2) pseudo=read geom=check gue
 ss=(read,tcheck) scf=(maxcycle=1)
 ----------------------------------------------------------------------
 -----
 title
 -----
 Structure from the checkpoint file:  "BDE49_expt_1836_mol1.chk"
 Charge =  0 Multiplicity = 1

                         Standard orientation:
 ---------------------------------------------------------------------
 Center     Atomic      Atomic             Coordinates (Angstroms)
 Number     Number       Type             X           Y           Z
 ---------------------------------------------------------------------
      1          7           0        0.000000    0.000000   -0.637278
      2          8           0        0.000000    1.088307   -1.103670
      3         17           0        0.000000   -0.000000    1.301156
      4          8           0       -0.000000   -1.088307   -1.103670
 ---------------------------------------------------------------------

 SCF Done:  E(RHF) =  -663.790783881     A.U. after    2 cycles

 The electronic state is 1-A1.
 Alpha  occ. eigenvalues -- -105.63688 -20.66901 -20.66892 -15.88841 -10.68169
 Alpha  occ. eigenvalues --   -7.85081  -7.84582  -7.84577  -1.76431  -1.61498
 Alpha  occ. eigenvalues --   -1.12314  -0.95434  -0.83579  -0.82334  -0.81821
 Alpha  occ. eigenvalues --   -0.57861  -0.52379  -0.52012  -0.50763  -0.50541
 Alpha virt. eigenvalues --   -0.02272   0.03268   0.08791   0.10671   0.13174
 Alpha virt. eigenvalues --    0.13506   0.13782   0.17439   0.20076   0.20729
 Alpha virt. eigenvalues --    0.21635   0.26452   0.26544   0.28527   0.29148

 Mulliken charges:
               1
     1  N    1.719663
     2  O   -0.947773
     3  Cl   0.175884
     4  O   -0.947773
 Sum of Mulliken charges =   0.00000

 Dipole moment (field-independent basis, Debye):
    X=              0.0000    Y=              0.0000    Z=              0.6105  Tot=              0.6105

 Test job not archived.
 1\1\GINC-SE015\SP\RHF\Aug-CC-pVDZ\Cl1N1O2\OHZDE\08-Apr-2025\0\\#t hf a
 ug-cc-pvdz iop(5/13=1,5/36=2,99/5=2) pseudo=read geom=check guess=(rea
 d,tcheck) scf=(maxcycle=1)\\title\\0,1\N,0,0.,0.,-0.637278\O,0,0.,1.08
 8307,-1.10367\Cl,0,0.,0.,1.301156\O,0,0.,-1.088307,-1.10367\\Version=E
 S64L-G16RevC.01\State=1-A1\HF=-663.7907839\RMSD=1.751e-02\Dipole=0.,0.
 ,0.2401893\Quadrupole=0.4584863,-1.1883676,0.7298813,0.,0.,0.\PG=C02V
 [C2(N1Cl1),SGV(O2)]\\@

 Normal termination of Gaussian 16 at Tue Apr  8 22:54:35 2025.
