 Gaussian 16, Revision C.01,

 ----------------------------------------------------------------------
 #t hf aug-cc-pvdz symm=none int=(grid=ultrafine) guess=(read,tcheck) s
 table=(opt,rrhf)
 ----------------------------------------------------------------------
 -----
 title
 -----
 Symbolic Z-matrix:
 Charge =  0 Multiplicity = 1

 SCF Done:  E(RHF) =  -519.029450900     A.U. after   14 cycles
 Normal termination of Gaussian 16 at Wed Apr  9 00:07:42 2025.
 Gaussian 16:  ES64L-G16RevC.01  3-Jul-2019

 ----------------------------------------------------------------------
 #t hf aug-cc-pvdz iop(5/13=1,5/36=2,99/5=2) pseudo=read geom=check gue
 ss=(read,tcheck) scf=(maxcycle=1)
 ----------------------------------------------------------------------
 -----
 title
 -----
 Structure from the checkpoint file:  "BDE49_nonexpt_2257_mol1.chk"
 Charge =  0 Multiplicity = 1

                         Standard orientation:
 ---------------------------------------------------------------------
 Center     Atomic      Atomic             Coordinates (Angstroms)
 Number     Number       Type             X           Y           Z
 ---------------------------------------------------------------------
      1         14           0       -0.370839    0.023437    0.359209
      2          8           0        0.899585   -0.827838   -0.371109
      3          8           0        2.141243   -0.125306   -0.027762
      4          1           0        2.619229   -0.844901    0.405640
      5          6           0       -0.411752    1.800593   -0.208259
      6          1           0        0.534489    2.297547    0.017985
      7          1           0       -1.212453    2.348330    0.299309
      8          1           0       -0.582859    1.867430   -1.286312
      9          6           0       -1.875407   -0.949904   -0.170555
     10          1           0       -1.993248   -0.931308   -1.257225
     11          1           0       -2.777654   -0.519958    0.275734
     12          1           0       -1.806159   -1.992907    0.148041
     13          1           0       -0.193272   -0.031332    1.831744
 ---------------------------------------------------------------------

 SCF Done:  E(RHF) =  -519.299202783     A.U. after    2 cycles

 The electronic state is 1-A.
 Alpha  occ. eigenvalues --  -69.54851 -20.61824 -20.59044 -11.21777 -11.21479
 Alpha  occ. eigenvalues --   -6.21538  -3.96993  -3.96851  -3.96810  -1.56131
 Alpha  occ. eigenvalues --   -1.26636  -0.96806  -0.93694  -0.71286  -0.70349
 Alpha  occ. eigenvalues --   -0.61267  -0.60093  -0.57547  -0.55548  -0.55508
 Alpha  occ. eigenvalues --   -0.55138  -0.50417  -0.46623  -0.45670  -0.43512
 Alpha virt. eigenvalues --    0.03540   0.04090   0.04535   0.04848   0.06677
 Alpha virt. eigenvalues --    0.07010   0.07577   0.07817   0.09333   0.09877
 Alpha virt. eigenvalues --    0.10796   0.14067   0.15409   0.16118   0.16223

 Mulliken charges:
               1
     1  Si   2.602977
     2  O   -0.922085
     3  O   -0.694675
     4  H    0.493799
     5  C   -0.668112
     6  H   -0.023024
     7  H    0.005050
     8  H    0.072768
     9  C   -0.601608
    10  H    0.101473
    11  H    0.001375
    12  H   -0.035137
    13  H   -0.332802
 Sum of Mulliken charges =   0.00000

 Dipole moment (field-independent basis, Debye):
    X=             -0.6502    Y=             -0.1150    Z=              0.9258  Tot=              1.1371

 Test job not archived.
 1\1\GINC-SE128\SP\RHF\Aug-CC-pVDZ\C2H8O2Si1\OHZDE\09-Apr-2025\0\\#t hf
  aug-cc-pvdz iop(5/13=1,5/36=2,99/5=2) pseudo=read geom=check guess=(r
 ead,tcheck) scf=(maxcycle=1)\\title\\0,1\Si,0,-0.370839,0.023437,0.359
 209\O,0,0.899585,-0.827838,-0.371109\O,0,2.141243,-0.125307,-0.027762\
 H,0,2.619229,-0.844902,0.40564\C,0,-0.411751,1.800593,-0.208259\H,0,0.
 53449,2.297547,0.017985\H,0,-1.212452,2.34833,0.299309\H,0,-0.582858,1
 .86743,-1.286312\C,0,-1.875407,-0.949904,-0.170555\H,0,-1.993248,-0.93
 1308,-1.257225\H,0,-2.777654,-0.519957,0.275734\H,0,-1.806159,-1.99290

 Normal termination of Gaussian 16 at Wed Apr  9 00:07:46 2025.
