 Gaussian 16, Revision C.01,

 ----------------------------------------------------------------------
 #t hf aug-cc-pvdz symm=none int=(grid=ultrafine) guess=(read,tcheck) s
 table=(opt,rrhf)
 ----------------------------------------------------------------------
 -----
 title
 -----
 Symbolic Z-matrix:
 Charge =  0 Multiplicity = 1

 SCF Done:  E(RHF) =  -744.693177773     A.U. after   17 cycles
 Normal termination of Gaussian 16 at Tue Apr  8 23:07:25 2025.
 Gaussian 16:  ES64L-G16RevC.01  3-Jul-2019

 ----------------------------------------------------------------------
 #t hf aug-cc-pvdz iop(5/13=1,5/36=2,99/5=2) pseudo=read geom=check gue
 ss=(read,tcheck) scf=(maxcycle=1)
 ----------------------------------------------------------------------
 -----
 title
 -----
 Structure from the checkpoint file:  "BDE49_expt_458_mol1.chk"
 Charge =  0 Multiplicity = 1

                         Standard orientation:
 ---------------------------------------------------------------------
 Center     Atomic      Atomic             Coordinates (Angstroms)
 Number     Number       Type             X           Y           Z
 ---------------------------------------------------------------------
      1          6           0        2.357449   -0.001159    0.004773
      2          6           0        1.514001    1.100841   -0.001080
      3          6           0        0.115554    0.952903   -0.007174
      4          6           0        1.836454   -1.294472    0.004311
      5          6           0        0.456033   -1.468503    0.000593
      6          6           0       -0.382299   -0.361679   -0.004374
      7          1           0        3.430517    0.152658    0.009334
      8          1           0        1.929084    2.103568   -0.008039
      9          1           0        0.019390   -2.459195    0.003830
     10          7           0       -0.720741    2.053983   -0.071771
     11          1           0       -1.676679    1.901427    0.212477
     12          1           0       -0.330734    2.921355    0.262606
     13         17           0       -2.129454   -0.612254    0.001869
     14          1           0        2.491180   -2.156965    0.008112
 ---------------------------------------------------------------------

 SCF Done:  E(RHF) =  -745.063534513     A.U. after    2 cycles

 The electronic state is 1-A.
 Alpha  occ. eigenvalues -- -105.57214 -15.51781 -11.30309 -11.29997 -11.25860
 Alpha  occ. eigenvalues --  -11.25401 -11.24546 -11.24091 -10.62005  -7.78962
 Alpha  occ. eigenvalues --   -7.78593  -7.78555  -1.24311  -1.15442  -1.09446
 Alpha  occ. eigenvalues --   -1.01373  -0.98174  -0.85735  -0.83245  -0.73920
 Alpha  occ. eigenvalues --   -0.73465  -0.67656  -0.63759  -0.62662  -0.59855
 Alpha  occ. eigenvalues --   -0.58250  -0.54333  -0.51669  -0.50357  -0.47210
 Alpha  occ. eigenvalues --   -0.46793  -0.35121  -0.31985
 Alpha virt. eigenvalues --    0.03121   0.03701   0.04047   0.05474   0.06018
 Alpha virt. eigenvalues --    0.08150   0.09229   0.10418   0.10885   0.11312
 Alpha virt. eigenvalues --    0.11974   0.13104   0.13708   0.13789   0.14267

 Mulliken charges:
               1
     1  C   -0.157760
     2  C    1.154345
     3  C   -1.828244
     4  C    0.443695
     5  C    0.100262
     6  C    0.745419
     7  H   -0.217514
     8  H   -0.303066
     9  H   -0.165930
    10  N    0.815712
    11  H    0.060920
    12  H    0.013540
    13  Cl  -0.446117
    14  H   -0.215264
 Sum of Mulliken charges =   0.00000

 Dipole moment (field-independent basis, Debye):
    X=              1.3930    Y=              1.0960    Z=              0.8996  Tot=              1.9878

 Test job not archived.
 1\1\GINC-SE071\SP\RHF\Aug-CC-pVDZ\C6H6Cl1N1\OHZDE\08-Apr-2025\0\\#t hf
  aug-cc-pvdz iop(5/13=1,5/36=2,99/5=2) pseudo=read geom=check guess=(r
 ead,tcheck) scf=(maxcycle=1)\\title\\0,1\C,0,2.357449,-0.001159,0.0047
 73\C,0,1.514001,1.100841,-0.00108\C,0,0.115554,0.952903,-0.007174\C,0,
 1.836454,-1.294472,0.004311\C,0,0.456033,-1.468503,0.000593\C,0,-0.382
 299,-0.361679,-0.004374\H,0,3.430517,0.152658,0.009334\H,0,1.929084,2.
 103568,-0.008039\H,0,0.01939,-2.459195,0.00383\N,0,-0.720741,2.053983,
 -0.071771\H,0,-1.676679,1.901427,0.212477\H,0,-0.330734,2.921355,0.262

 Normal termination of Gaussian 16 at Tue Apr  8 23:07:31 2025.
