 Gaussian 16, Revision C.01,

 ----------------------------------------------------------------------
 #t hf aug-cc-pvdz symm=none int=(grid=ultrafine) guess=(read,tcheck) s
 table=(opt,rrhf)
 ----------------------------------------------------------------------
 -----
 title
 -----
 Symbolic Z-matrix:
 Charge =  0 Multiplicity = 1

 SCF Done:  E(RHF) =  -610.205229138     A.U. after   15 cycles
 Normal termination of Gaussian 16 at Tue Apr  8 23:31:35 2025.
 Gaussian 16:  ES64L-G16RevC.01  3-Jul-2019

 ----------------------------------------------------------------------
 #t hf aug-cc-pvdz iop(5/13=1,5/36=2,99/5=2) pseudo=read geom=check gue
 ss=(read,tcheck) scf=(maxcycle=1)
 ----------------------------------------------------------------------
 -----
 title
 -----
 Structure from the checkpoint file:  "BDE49_nonexpt_1387_mol1.chk"
 Charge =  0 Multiplicity = 1

                         Standard orientation:
 ---------------------------------------------------------------------
 Center     Atomic      Atomic             Coordinates (Angstroms)
 Number     Number       Type             X           Y           Z
 ---------------------------------------------------------------------
      1          6           0        1.258838   -1.131520   -0.220230
      2          6           0        1.701912    0.083397    0.607258
      3         15           0       -0.595209   -1.411931   -0.196218
      4          1           0        1.727831   -2.049034    0.145981
      5          1           0        1.566561   -1.029147   -1.266313
      6          6           0       -1.129559    0.388494   -0.012899
      7          6           0       -0.177493    1.381827   -0.654179
      8          6           0        1.209003    1.434432    0.043384
      9          1           0       -0.650898    2.365756   -0.663143
     10          1           0       -0.043518    1.065040   -1.695872
     11          1           0        1.170270    2.162679    0.857376
     12          1           0        1.932983    1.819825   -0.680374
     13          1           0        2.794520    0.109356    0.679181
     14          1           0        1.331355   -0.044001    1.629636
     15          8           0       -2.167979    0.693004    0.521877
     16          1           0       -0.733338   -1.705314    1.181771
 ---------------------------------------------------------------------

 SCF Done:  E(RHF) =  -610.530423716     A.U. after    2 cycles

 The electronic state is 1-A.
 Alpha  occ. eigenvalues --  -84.27799 -20.54330 -11.34251 -11.25600 -11.25342
 Alpha  occ. eigenvalues --  -11.25266 -11.25115  -6.74971  -4.27524  -4.27420
 Alpha  occ. eigenvalues --   -4.26817  -1.47567  -1.11398  -1.01807  -0.96176
 Alpha  occ. eigenvalues --   -0.84121  -0.82369  -0.71165  -0.67635  -0.65866
 Alpha  occ. eigenvalues --   -0.61819  -0.59082  -0.58250  -0.57049  -0.53979
 Alpha  occ. eigenvalues --   -0.51304  -0.49211  -0.48853  -0.46497  -0.38866
 Alpha  occ. eigenvalues --   -0.33414
 Alpha virt. eigenvalues --    0.03002   0.03508   0.03831   0.04554   0.05862
 Alpha virt. eigenvalues --    0.06275   0.06519   0.07443   0.07991   0.09792
 Alpha virt. eigenvalues --    0.10784   0.11739   0.11939   0.13087   0.13895

 Mulliken charges:
               1
     1  C   -0.450229
     2  C   -0.375987
     3  P    0.248329
     4  H    0.130437
     5  H    0.189239
     6  C    1.102051
     7  C   -0.558114
     8  C   -0.358076
     9  H    0.062068
    10  H    0.302073
    11  H    0.174167
    12  H    0.170133
    13  H    0.105465
    14  H    0.145032
    15  O   -1.343190
    16  H    0.456602
 Sum of Mulliken charges =  -0.00000

 Dipole moment (field-independent basis, Debye):
    X=              3.7746    Y=             -0.1916    Z=             -0.8271  Tot=              3.8689

 Test job not archived.
 1\1\GINC-SE039\SP\RHF\Aug-CC-pVDZ\C5H9O1P1\OHZDE\08-Apr-2025\0\\#t hf
 aug-cc-pvdz iop(5/13=1,5/36=2,99/5=2) pseudo=read geom=check guess=(re
 ad,tcheck) scf=(maxcycle=1)\\title\\0,1\C,0,1.258836,-1.131522,-0.2202
 3\C,0,1.701912,0.083395,0.607258\P,0,-0.595211,-1.41193,-0.196218\H,0,
 1.727828,-2.049036,0.145981\H,0,1.56656,-1.029149,-1.266313\C,0,-1.129
 558,0.388496,-0.012899\C,0,-0.177491,1.381827,-0.654179\C,0,1.209005,1
 .43443,0.043384\H,0,-0.650894,2.365757,-0.663143\H,0,-0.043516,1.06504
 ,-1.695872\H,0,1.170273,2.162677,0.857376\H,0,1.932986,1.819822,-0.680

 Normal termination of Gaussian 16 at Tue Apr  8 23:31:44 2025.
