 Gaussian 16, Revision C.01,

 ----------------------------------------------------------------------
 #t hf aug-cc-pvdz symm=none int=(grid=ultrafine) guess=(read,tcheck) s
 table=(opt,rrhf)
 ----------------------------------------------------------------------
 -----
 title
 -----
 Symbolic Z-matrix:
 Charge =  0 Multiplicity = 1

 SCF Done:  E(RHF) =  -746.427812713     A.U. after   15 cycles
 Normal termination of Gaussian 16 at Tue Apr  8 23:19:50 2025.
 Gaussian 16:  ES64L-G16RevC.01  3-Jul-2019

 ----------------------------------------------------------------------
 #t hf aug-cc-pvdz iop(5/13=1,5/36=2,99/5=2) pseudo=read geom=check gue
 ss=(read,tcheck) scf=(maxcycle=1)
 ----------------------------------------------------------------------
 -----
 title
 -----
 Structure from the checkpoint file:  "BDE49_nonexpt_1133_mol1.chk"
 Charge =  0 Multiplicity = 1

                         Standard orientation:
 ---------------------------------------------------------------------
 Center     Atomic      Atomic             Coordinates (Angstroms)
 Number     Number       Type             X           Y           Z
 ---------------------------------------------------------------------
      1          9           0        2.142765   -0.361106   -0.000000
      2          8           0        0.766027   -0.764280   -0.000000
      3          6           0       -0.000366    0.363007   -0.000000
      4          8           0        0.323769    1.489481    0.000001
      5         17           0       -1.647121   -0.278217   -0.000000
 ---------------------------------------------------------------------

 SCF Done:  E(RHF) =  -746.768213112     A.U. after    2 cycles

 The electronic state is 1-A.
 Alpha  occ. eigenvalues -- -105.63142 -26.56594 -20.75214 -20.61737 -11.50544
 Alpha  occ. eigenvalues --  -10.67965  -7.84914  -7.84470  -7.84461  -1.73316
 Alpha  occ. eigenvalues --   -1.57555  -1.44563  -1.13743  -0.88460  -0.77575
 Alpha  occ. eigenvalues --   -0.77351  -0.76106  -0.67475  -0.66215  -0.64039
 Alpha  occ. eigenvalues --   -0.55383  -0.53765  -0.51875  -0.50784
 Alpha virt. eigenvalues --    0.05991   0.08256   0.09603   0.09989   0.11230
 Alpha virt. eigenvalues --    0.11555   0.11794   0.14731   0.15416   0.19057
 Alpha virt. eigenvalues --    0.20662   0.21458   0.23974   0.25619   0.27586

 Mulliken charges:
               1
     1  F   -0.358946
     2  O   -0.279022
     3  C    1.346468
     4  O   -0.723937
     5  Cl   0.015438
 Sum of Mulliken charges =  -0.00000

 Dipole moment (field-independent basis, Debye):
    X=             -0.8671    Y=             -0.9994    Z=             -0.0000  Tot=              1.3231

 Test job not archived.
 1\1\GINC-SE458\SP\RHF\Aug-CC-pVDZ\C1Cl1F1O2\OHZDE\08-Apr-2025\0\\#t hf
  aug-cc-pvdz iop(5/13=1,5/36=2,99/5=2) pseudo=read geom=check guess=(r
 ead,tcheck) scf=(maxcycle=1)\\title\\0,1\F,0,-2.142765,-0.361106,0.\O,
 0,-0.766027,-0.76428,0.\C,0,0.000366,0.363007,0.\O,0,-0.323769,1.48948
 1,-0.000001\Cl,0,1.647121,-0.278217,0.\\Version=ES64L-G16RevC.01\State
 =1-A\HF=-746.7682131\RMSD=6.409e-03\Dipole=0.3411238,-0.3931865,0.0000
 006\Quadrupole=0.9241178,-2.0140257,1.0899079,-0.1374605,-0.0000006,0.
 000002\PG=C01 [X(C1Cl1F1O2)]\\@

 Normal termination of Gaussian 16 at Tue Apr  8 23:19:52 2025.
