 Gaussian 16, Revision C.01,

 ----------------------------------------------------------------------
 #t hf aug-cc-pvdz symm=none int=(grid=ultrafine) guess=(read,tcheck) s
 table=(opt,rrhf)
 ----------------------------------------------------------------------
 -----
 title
 -----
 Symbolic Z-matrix:
 Charge =  0 Multiplicity = 1

 SCF Done:  E(RHF) =  -291.877219941     A.U. after   14 cycles
 Normal termination of Gaussian 16 at Tue Apr  8 23:19:55 2025.
 Gaussian 16:  ES64L-G16RevC.01  3-Jul-2019

 ----------------------------------------------------------------------
 #t hf aug-cc-pvdz iop(5/13=1,5/36=2,99/5=2) pseudo=read geom=check gue
 ss=(read,tcheck) scf=(maxcycle=1)
 ----------------------------------------------------------------------
 -----
 title
 -----
 Structure from the checkpoint file:  "BDE49_nonexpt_1125_mol1.chk"
 Charge =  0 Multiplicity = 1

                         Standard orientation:
 ---------------------------------------------------------------------
 Center     Atomic      Atomic             Coordinates (Angstroms)
 Number     Number       Type             X           Y           Z
 ---------------------------------------------------------------------
      1          9           0        1.701242   -0.663683    0.392214
      2          8           0        1.068594    0.054378   -0.701641
      3          6           0        0.168250    0.968175   -0.084849
      4          6           0       -1.004699    0.302914    0.625017
      5          1           0        0.729876    1.635592    0.576666
      6          6           0       -1.836508   -0.600290   -0.287889
      7          1           0       -1.627039    1.100353    1.047116
      8          1           0       -0.614607   -0.269038    1.471027
      9          1           0       -2.277395   -0.033655   -1.114248
     10          1           0       -2.652030   -1.070794    0.266270
     11          1           0       -0.162306    1.542577   -0.960472
     12          1           0       -1.218691   -1.391706   -0.716830
 ---------------------------------------------------------------------

 SCF Done:  E(RHF) =  -292.172472834     A.U. after    2 cycles

 The electronic state is 1-A.
 Alpha  occ. eigenvalues --  -26.48981 -20.66891 -11.31110 -11.24524 -11.23207
 Alpha  occ. eigenvalues --   -1.64076  -1.36086  -1.06585  -0.93832  -0.82665
 Alpha  occ. eigenvalues --   -0.71293  -0.70775  -0.66968  -0.62450  -0.61593
 Alpha  occ. eigenvalues --   -0.56467  -0.56311  -0.53880  -0.50704  -0.50051
 Alpha  occ. eigenvalues --   -0.46889
 Alpha virt. eigenvalues --    0.03427   0.04043   0.04120   0.05376   0.06890
 Alpha virt. eigenvalues --    0.07115   0.07704   0.10640   0.12137   0.14073
 Alpha virt. eigenvalues --    0.14917   0.15081   0.15966   0.16388   0.17046

 Mulliken charges:
               1
     1  F   -0.451454
     2  O   -0.465195
     3  C    0.638191
     4  C   -0.493084
     5  H    0.142890
     6  C   -0.319066
     7  H    0.179439
     8  H    0.186379
     9  H    0.156820
    10  H    0.131339
    11  H    0.111106
    12  H    0.182635
 Sum of Mulliken charges =  -0.00000

 Dipole moment (field-independent basis, Debye):
    X=             -2.0206    Y=              1.6680    Z=              0.3053  Tot=              2.6379

 Test job not archived.
 1\1\GINC-SE364\SP\RHF\Aug-CC-pVDZ\C3H7F1O1\OHZDE\08-Apr-2025\0\\#t hf
 aug-cc-pvdz iop(5/13=1,5/36=2,99/5=2) pseudo=read geom=check guess=(re
 ad,tcheck) scf=(maxcycle=1)\\title\\0,1\F,0,1.701242,-0.663683,0.39221
 4\O,0,1.068594,0.054378,-0.701641\C,0,0.16825,0.968175,-0.084849\C,0,-
 1.004699,0.302914,0.625017\H,0,0.729876,1.635592,0.576666\C,0,-1.83650
 8,-0.60029,-0.287889\H,0,-1.627039,1.100353,1.047116\H,0,-0.614607,-0.
 269038,1.471027\H,0,-2.277395,-0.033655,-1.114248\H,0,-2.65203,-1.0707
 94,0.26627\H,0,-0.162306,1.542577,-0.960472\H,0,-1.218691,-1.391706,-0

 Normal termination of Gaussian 16 at Tue Apr  8 23:19:58 2025.
