 Gaussian 16, Revision C.01,

 ----------------------------------------------------------------------
 #t hf aug-cc-pvdz symm=none int=(grid=ultrafine) guess=(read,tcheck) s
 table=opt
 ----------------------------------------------------------------------
 -----
 title
 -----
 Symbolic Z-matrix:
 Charge =  0 Multiplicity = 2

 SCF Done:  E(UHF) =  -549.879377865     A.U. after   19 cycles
 Normal termination of Gaussian 16 at Tue Apr  8 23:20:53 2025.
 Gaussian 16:  ES64L-G16RevC.01  3-Jul-2019

 ----------------------------------------------------------------------
 #t hf aug-cc-pvdz iop(5/13=1,5/36=2,99/5=2) pseudo=read geom=check gue
 ss=(read,tcheck) scf=(maxcycle=1)
 ----------------------------------------------------------------------
 -----
 title
 -----
 Structure from the checkpoint file:  "BDE49_nonexpt_1146_mol2.chk"
 Charge =  0 Multiplicity = 2

                         Standard orientation:
 ---------------------------------------------------------------------
 Center     Atomic      Atomic             Coordinates (Angstroms)
 Number     Number       Type             X           Y           Z
 ---------------------------------------------------------------------
      1          8           0        0.587636    1.401470   -0.000029
      2          6           0        0.394182    0.205639    0.000084
      3         16           0       -1.313962   -0.252126   -0.000027
      4          6           0        1.465156   -0.846602    0.000020
      5          1           0        2.445859   -0.369135   -0.000157
      6          1           0        1.360087   -1.481500   -0.883392
      7          1           0        1.360332   -1.481322    0.883590
 ---------------------------------------------------------------------

 SCF Done:  E(UHF) =  -550.084754261     A.U. after    2 cycles

 The electronic state is 2-A.
 Alpha  occ. eigenvalues --  -93.99697 -20.55824 -11.38683 -11.27183  -8.27920
 Alpha  occ. eigenvalues --   -6.27093  -6.25292  -6.24999  -1.49870  -1.09365
 Alpha  occ. eigenvalues --   -1.01594  -0.76265  -0.66509  -0.65583  -0.63602
 Alpha  occ. eigenvalues --   -0.57259  -0.53817  -0.47942  -0.42650  -0.41291
 Alpha virt. eigenvalues --    0.03234   0.04995   0.05537   0.07041   0.08990
 Alpha virt. eigenvalues --    0.11325   0.11708   0.12719   0.13264   0.14444
 Alpha virt. eigenvalues --    0.14553   0.15890   0.16110   0.17158   0.20153

  Beta  occ. eigenvalues --  -93.98775 -20.55611 -11.38797 -11.27179  -8.26859
  Beta  occ. eigenvalues --   -6.24783  -6.24420  -6.23004  -1.49308  -1.06312
  Beta  occ. eigenvalues --   -0.96835  -0.74810  -0.64902  -0.64481  -0.63561
  Beta  occ. eigenvalues --   -0.56433  -0.53577  -0.41927  -0.39052
  Beta virt. eigenvalues --   -0.01351   0.03391   0.05000   0.05624   0.07208
  Beta virt. eigenvalues --    0.09111   0.11217   0.12756   0.13195   0.13404
  Beta virt. eigenvalues --    0.14444   0.15241   0.16168   0.16452   0.17245

 Mulliken charges and spin densities:
               1          2
     1  O   -1.115655   0.015099
     2  C    0.534270  -0.110754
     3  S    0.303791   1.096715
     4  C   -0.378267  -0.004566
     5  H    0.155651   0.001257
     6  H    0.250092   0.001123
     7  H    0.250118   0.001125
 Sum of Mulliken charges =  -0.00000   1.00000

 Dipole moment (field-independent basis, Debye):
    X=              0.9176    Y=             -2.8735    Z=              0.0001  Tot=              3.0165
                          Isotropic Fermi Contact Couplings
        Atom                 a.u.       MegaHertz       Gauss      10(-4) cm-1
     1  O(17)              0.02751     -16.67642      -5.95056      -5.56266
     2  C(13)             -0.01861     -20.91650      -7.46353      -6.97699
     3  S(33)              0.20501      70.41559      25.12603      23.48811
     4  C(13)              0.00040       0.45000       0.16057       0.15010
     5  H(1)               0.00165       7.38913       2.63663       2.46475
     6  H(1)               0.00012       0.55794       0.19909       0.18611
     7  H(1)               0.00012       0.55586       0.19834       0.18541
 --------------------------------------------------------

 Normal termination of Gaussian 16 at Tue Apr  8 23:20:55 2025.
