 Gaussian 16, Revision C.01,

 ----------------------------------------------------------------------
 #t hf aug-cc-pvdz symm=none int=(grid=ultrafine) guess=(read,tcheck) s
 table=opt
 ----------------------------------------------------------------------
 -----
 title
 -----
 Symbolic Z-matrix:
 Charge =  0 Multiplicity = 2

 SCF Done:  E(UHF) =  -80.8657937962     A.U. after   14 cycles
 Normal termination of Gaussian 16 at Wed Apr  9 00:28:39 2025.
 Gaussian 16:  ES64L-G16RevC.01  3-Jul-2019

 ----------------------------------------------------------------------
 #t hf aug-cc-pvdz iop(5/13=1,5/36=2,99/5=2) pseudo=read geom=check gue
 ss=(read,tcheck) scf=(maxcycle=1)
 ----------------------------------------------------------------------
 -----
 title
 -----
 Structure from the checkpoint file:  "BDE49_nonexpt_311_mol2.chk"
 Charge =  0 Multiplicity = 2

                         Standard orientation:
 ---------------------------------------------------------------------
 Center     Atomic      Atomic             Coordinates (Angstroms)
 Number     Number       Type             X           Y           Z
 ---------------------------------------------------------------------
      1          5           0        0.828972   -0.215946   -0.000003
      2          7           0       -0.525362    0.029395    0.000002
      3          1           0       -1.220083   -0.702970    0.000002
      4          1           0       -0.928555    0.960138    0.000005
      5          1           0        1.681314    0.616795   -0.000003
 ---------------------------------------------------------------------

 SCF Done:  E(UHF) =  -80.9472325924     A.U. after    2 cycles

 The electronic state is 2-A.
 Alpha  occ. eigenvalues --  -15.50620  -7.60582  -1.17562  -0.76221  -0.72549
 Alpha  occ. eigenvalues --   -0.57024  -0.48194  -0.33227
 Alpha virt. eigenvalues --    0.03278   0.05259   0.05413   0.05891   0.07538
 Alpha virt. eigenvalues --    0.09563   0.12185   0.13628   0.17505   0.18729
 Alpha virt. eigenvalues --    0.20218   0.21392   0.25460   0.26999   0.29683

  Beta  occ. eigenvalues --  -15.50874  -7.58706  -1.17571  -0.74013  -0.71430
  Beta  occ. eigenvalues --   -0.54102  -0.49439
  Beta virt. eigenvalues --    0.03086   0.05058   0.05677   0.05804   0.06917
  Beta virt. eigenvalues --    0.09663   0.10082   0.16411   0.16528   0.17845
  Beta virt. eigenvalues --    0.18779   0.20576   0.21778   0.26779   0.27626

 Mulliken charges and spin densities:
               1          2
     1  B   -0.481699   1.026800
     2  N    0.190370  -0.103592
     3  H    0.036282   0.000236
     4  H    0.024751   0.035998
     5  H    0.230296   0.040558
 Sum of Mulliken charges =  -0.00000   1.00000

 Dipole moment (field-independent basis, Debye):
    X=             -1.7472    Y=              0.7446    Z=              0.0000  Tot=              1.8992
                          Isotropic Fermi Contact Couplings
        Atom                 a.u.       MegaHertz       Gauss      10(-4) cm-1
     1  B(11)              0.29905     428.93997     153.05645     143.07897
     2  N(14)             -0.01047      -3.38180      -1.20671      -1.12805
     3  H(1)               0.00769      34.36489      12.26225      11.46289
     4  H(1)               0.01590      71.07070      25.35979      23.70663
     5  H(1)               0.01288      57.59124      20.54999      19.21037
 --------------------------------------------------------
       Center         ----  Spin Dipole Couplings  ----
                      3XX-RR        3YY-RR        3ZZ-RR

 Normal termination of Gaussian 16 at Wed Apr  9 00:28:41 2025.
