 Gaussian 16, Revision C.01,

 ----------------------------------------------------------------------
 #t hf aug-cc-pvdz symm=none int=(grid=ultrafine) guess=(read,tcheck) s
 table=opt
 ----------------------------------------------------------------------
 -----
 title
 -----
 Symbolic Z-matrix:
 Charge =  0 Multiplicity = 2

 SCF Done:  E(UHF) =  -588.876525448     A.U. after   18 cycles
 Normal termination of Gaussian 16 at Tue Apr  8 23:04:54 2025.
 Gaussian 16:  ES64L-G16RevC.01  3-Jul-2019

 ----------------------------------------------------------------------
 #t hf aug-cc-pvdz iop(5/13=1,5/36=2,99/5=2) pseudo=read geom=check gue
 ss=(read,tcheck) scf=(maxcycle=1)
 ----------------------------------------------------------------------
 -----
 title
 -----
 Structure from the checkpoint file:  "BDE49_expt_384_mol2.chk"
 Charge =  0 Multiplicity = 2

                         Standard orientation:
 ---------------------------------------------------------------------
 Center     Atomic      Atomic             Coordinates (Angstroms)
 Number     Number       Type             X           Y           Z
 ---------------------------------------------------------------------
      1          8           0        1.188414    0.830657   -0.177166
      2          6           0        1.315089   -0.532551    0.237722
      3          6           0        0.054913   -1.264797   -0.222701
      4          1           0        1.408877   -0.575279    1.328624
      5          1           0        2.221863   -0.921459   -0.225995
      6         16           0       -1.282055   -0.036406    0.068618
      7          1           0       -0.137246   -2.163988    0.361288
      8          1           0        0.094022   -1.512088   -1.284408
      9          6           0       -0.081239    1.278629    0.075599
     10          1           0       -0.314524    2.222380   -0.403785
 ---------------------------------------------------------------------

 SCF Done:  E(UHF) =  -589.130896068     A.U. after    2 cycles

 The electronic state is 2-A.
 Alpha  occ. eigenvalues --  -93.95501 -20.58010 -11.31631 -11.30932 -11.28263
 Alpha  occ. eigenvalues --   -8.23661  -6.21441  -6.21323  -6.21160  -1.50861
 Alpha  occ. eigenvalues --   -1.09837  -1.02905  -0.84950  -0.82919  -0.71048
 Alpha  occ. eigenvalues --   -0.69054  -0.62011  -0.59815  -0.56298  -0.52838
 Alpha  occ. eigenvalues --   -0.50275  -0.46821  -0.41176  -0.30536
 Alpha virt. eigenvalues --    0.03450   0.04412   0.04521   0.04905   0.06807
 Alpha virt. eigenvalues --    0.08367   0.10403   0.11220   0.11973   0.13183
 Alpha virt. eigenvalues --    0.14307   0.15352   0.15931   0.16270   0.16635

  Beta  occ. eigenvalues --  -93.95443 -20.57507 -11.30953 -11.29068 -11.28260
  Beta  occ. eigenvalues --   -8.23589  -6.21459  -6.21318  -6.20858  -1.49326
  Beta  occ. eigenvalues --   -1.09254  -1.00585  -0.84679  -0.78768  -0.69845
  Beta  occ. eigenvalues --   -0.68132  -0.59659  -0.58393  -0.54714  -0.49771
  Beta  occ. eigenvalues --   -0.48135  -0.46075  -0.36761
  Beta virt. eigenvalues --    0.03454   0.04421   0.04548   0.04902   0.06781
  Beta virt. eigenvalues --    0.08399   0.09816   0.10518   0.11953   0.12814
  Beta virt. eigenvalues --    0.14114   0.14435   0.15481   0.16020   0.16768

 Mulliken charges and spin densities:
               1          2
     1  O   -1.137249   0.032168
     2  C    0.599645  -0.011822
     3  C   -0.775942   0.003913
     4  H    0.150129  -0.008061
     5  H    0.053385   0.002018
     6  S    0.463657  -0.025720
     7  H    0.213219   0.001624
     8  H    0.158851  -0.003001
     9  C    0.274126   1.075561
    10  H    0.000179  -0.066679
 Sum of Mulliken charges =  -0.00000   1.00000

 Dipole moment (field-independent basis, Debye):
    X=              1.0403    Y=             -1.6702    Z=             -0.2031  Tot=              1.9781
                          Isotropic Fermi Contact Couplings
        Atom                 a.u.       MegaHertz       Gauss      10(-4) cm-1
     1  O(17)              0.04749     -28.78560     -10.27142      -9.60184
     2  C(13)             -0.00272      -3.05585      -1.09040      -1.01932
     3  C(13)             -0.00078      -0.88036      -0.31413      -0.29366
     4  H(1)               0.00039       1.73488       0.61905       0.57869
     5  H(1)              -0.00058      -2.59198      -0.92488      -0.86459
     6  S(33)              0.05671      19.47723       6.94996       6.49690
     7  H(1)              -0.00073      -3.27626      -1.16905      -1.09284
     8  H(1)               0.00118       5.27032       1.88058       1.75799

 Normal termination of Gaussian 16 at Tue Apr  8 23:04:58 2025.
