 Gaussian 16, Revision C.01,

 ----------------------------------------------------------------------
 #t hf aug-cc-pvdz symm=none int=(grid=ultrafine) guess=(read,tcheck) s
 table=(opt,rrhf)
 ----------------------------------------------------------------------
 -----
 title
 -----
 Symbolic Z-matrix:
 Charge =  0 Multiplicity = 1

 SCF Done:  E(RHF) =  -829.285503550     A.U. after   12 cycles
 Normal termination of Gaussian 16 at Wed Apr  9 00:17:13 2025.
 Gaussian 16:  ES64L-G16RevC.01  3-Jul-2019

 ----------------------------------------------------------------------
 #t hf aug-cc-pvdz iop(5/13=1,5/36=2,99/5=2) pseudo=read geom=check gue
 ss=(read,tcheck) scf=(maxcycle=1)
 ----------------------------------------------------------------------
 -----
 title
 -----
 Structure from the checkpoint file:  "BDE49_nonexpt_252_mol1.chk"
 Charge =  0 Multiplicity = 1

                         Standard orientation:
 ---------------------------------------------------------------------
 Center     Atomic      Atomic             Coordinates (Angstroms)
 Number     Number       Type             X           Y           Z
 ---------------------------------------------------------------------
      1          5           0       -0.228933    0.979876    0.000000
      2         17           0       -0.228213    2.765136    0.000000
      3          8           0       -0.227099    0.355922    1.200853
      4          8           0       -0.227099    0.355922   -1.200853
      5          6           0        0.413453   -1.667636   -0.000000
      6          6           0       -0.227099   -1.090837   -1.261605
      7          6           0       -0.227099   -1.090837    1.261605
      8          6           0        0.478078   -1.495075    2.545339
      9          1           0        1.523906   -1.178654    2.522211
     10          1           0        0.442460   -2.579734    2.678230
     11          1           0       -0.003549   -1.022853    3.403405
     12          1           0       -1.277481   -1.403065    1.309571
     13          1           0        1.486119   -1.439376   -0.000000
     14          1           0        0.308607   -2.756685   -0.000000
     15          6           0        0.478078   -1.495075   -2.545339
     16          1           0       -1.277481   -1.403065   -1.309571
     17          1           0        1.523906   -1.178654   -2.522211
     18          1           0       -0.003549   -1.022853   -3.403405
     19          1           0        0.442460   -2.579734   -2.678230
 ---------------------------------------------------------------------

 SCF Done:  E(RHF) =  -829.744374873     A.U. after    2 cycles

 The electronic state is 1-A'.
 Alpha  occ. eigenvalues -- -105.54031 -20.55949 -20.55947 -11.31367 -11.31357
 Alpha  occ. eigenvalues --  -11.25404 -11.23987 -11.23980 -10.59014  -7.75922
 Alpha  occ. eigenvalues --   -7.75641  -7.75618  -7.69039  -1.50061  -1.45772
 Alpha  occ. eigenvalues --   -1.10761  -1.03756  -1.03635  -0.96114  -0.85217
 Alpha  occ. eigenvalues --   -0.83526  -0.74045  -0.70151  -0.69004  -0.66404
 Alpha  occ. eigenvalues --   -0.62366  -0.57814  -0.57779  -0.57266  -0.56959
 Alpha  occ. eigenvalues --   -0.55364  -0.54835  -0.53781  -0.50616  -0.49314
 Alpha  occ. eigenvalues --   -0.46385  -0.45515  -0.45049  -0.44673
 Alpha virt. eigenvalues --    0.02785   0.03181   0.03475   0.04195   0.05484
 Alpha virt. eigenvalues --    0.05664   0.05929   0.06690   0.07322   0.08667
 Alpha virt. eigenvalues --    0.08671   0.09374   0.09409   0.11148   0.13261

 Mulliken charges:
               1
     1  B    1.168159
     2  Cl  -0.494799
     3  O   -1.350911
     4  O   -1.350911
     5  C   -0.612378
     6  C    0.873293
     7  C    0.873293
     8  C   -0.354040
     9  H    0.211275
    10  H    0.194512
    11  H    0.168775
    12  H    0.097045
    13  H    0.164763
    14  H    0.094356
    15  C   -0.354040
    16  H    0.097045
    17  H    0.211275
    18  H    0.168775
    19  H    0.194512
 Sum of Mulliken charges =  -0.00000

 Dipole moment (field-independent basis, Debye):
    X=              0.1712    Y=             -4.8864    Z=             -0.0000  Tot=              4.8894

 Test job not archived.
 1\1\GINC-SE090\SP\RHF\Aug-CC-pVDZ\C5H10B1Cl1O2\OHZDE\09-Apr-2025\0\\#t
  hf aug-cc-pvdz iop(5/13=1,5/36=2,99/5=2) pseudo=read geom=check guess
 =(read,tcheck) scf=(maxcycle=1)\\title\\0,1\B,0,1.001418,0.,-0.098631\
 Cl,0,2.771207,0.,0.135891\O,0,0.382598,1.200853,-0.178529\O,0,0.382598
 ,-1.200853,-0.178529\C,0,-1.707421,0.,0.191489\C,0,-1.051699,-1.261605
 ,-0.368005\C,0,-1.051699,1.261605,-0.368005\C,0,-1.54481,2.545339,0.27
 8157\H,0,-1.368082,2.522211,1.356417\H,0,-2.615462,2.67823,0.100792\H,
 0,-1.013578,3.403405,-0.137477\H,0,-1.223674,1.309571,-1.450231\H,0,-1

 Normal termination of Gaussian 16 at Wed Apr  9 00:17:20 2025.
