 Gaussian 16, Revision C.01,

 ----------------------------------------------------------------------
 #t hf aug-cc-pvdz symm=none int=(grid=ultrafine) guess=(read,tcheck) s
 table=(opt,rrhf)
 ----------------------------------------------------------------------
 -----
 title
 -----
 Symbolic Z-matrix:
 Charge =  0 Multiplicity = 1

 SCF Done:  E(RHF) =  -381.605513106     A.U. after   15 cycles
 Normal termination of Gaussian 16 at Tue Apr  8 23:20:56 2025.
 Gaussian 16:  ES64L-G16RevC.01  3-Jul-2019

 ----------------------------------------------------------------------
 #t hf aug-cc-pvdz iop(5/13=1,5/36=2,99/5=2) pseudo=read geom=check gue
 ss=(read,tcheck) scf=(maxcycle=1)
 ----------------------------------------------------------------------
 -----
 title
 -----
 Structure from the checkpoint file:  "BDE49_nonexpt_1140_mol1.chk"
 Charge =  0 Multiplicity = 1

                         Standard orientation:
 ---------------------------------------------------------------------
 Center     Atomic      Atomic             Coordinates (Angstroms)
 Number     Number       Type             X           Y           Z
 ---------------------------------------------------------------------
      1          9           0        1.846428   -0.958050   -0.000020
      2          8           0        1.411843    0.439886   -0.000005
      3          6           0        0.017732    0.537202    0.000021
      4          8           0       -0.377345    1.673436   -0.000007
      5          7           0       -0.665160   -0.614988    0.000014
      6          6           0       -2.121303   -0.638053    0.000005
      7          1           0       -0.139846   -1.474577    0.000018
      8          1           0       -2.477619    0.390253   -0.000013
      9          1           0       -2.499417   -1.144872    0.890920
     10          1           0       -2.499406   -1.144900   -0.890898
 ---------------------------------------------------------------------

 SCF Done:  E(RHF) =  -381.976695641     A.U. after    2 cycles

 The electronic state is 1-A.
 Alpha  occ. eigenvalues --  -26.53579 -20.71712 -20.54697 -15.56320 -11.44626
 Alpha  occ. eigenvalues --  -11.29706  -1.68532  -1.52009  -1.39075  -1.28053
 Alpha  occ. eigenvalues --   -1.00519  -0.86328  -0.81884  -0.74089  -0.73077
 Alpha  occ. eigenvalues --   -0.67064  -0.67062  -0.65489  -0.61586  -0.60982
 Alpha  occ. eigenvalues --   -0.58350  -0.52166  -0.48237  -0.45426
 Alpha virt. eigenvalues --    0.02810   0.04807   0.04845   0.06414   0.08835
 Alpha virt. eigenvalues --    0.10433   0.10546   0.10847   0.13642   0.14147
 Alpha virt. eigenvalues --    0.15074   0.15849   0.17907   0.18260   0.19223

 Mulliken charges:
               1
     1  F   -0.397466
     2  O   -0.456456
     3  C    1.277454
     4  O   -1.044586
     5  N    0.433813
     6  C   -0.342904
     7  H    0.173903
     8  H    0.060468
     9  H    0.147892
    10  H    0.147883
 Sum of Mulliken charges =  -0.00000

 Dipole moment (field-independent basis, Debye):
    X=             -2.2262    Y=             -3.3930    Z=              0.0001  Tot=              4.0581

 Test job not archived.
 1\1\GINC-SE150\SP\RHF\Aug-CC-pVDZ\C2H4F1N1O2\OHZDE\08-Apr-2025\0\\#t h
 f aug-cc-pvdz iop(5/13=1,5/36=2,99/5=2) pseudo=read geom=check guess=(
 read,tcheck) scf=(maxcycle=1)\\title\\0,1\F,0,1.846428,-0.95805,-0.000
 02\O,0,1.411843,0.439886,-0.000005\C,0,0.017732,0.537202,0.000021\O,0,
 -0.377345,1.673436,-0.000007\N,0,-0.66516,-0.614988,0.000014\C,0,-2.12
 1303,-0.638053,0.000005\H,0,-0.139846,-1.474577,0.000018\H,0,-2.477619
 ,0.390253,-0.000013\H,0,-2.499417,-1.144872,0.89092\H,0,-2.499406,-1.1
 449,-0.890898\\Version=ES64L-G16RevC.01\State=1-A\HF=-381.9766956\RMSD

 Normal termination of Gaussian 16 at Tue Apr  8 23:20:59 2025.
