 Gaussian 16, Revision C.01,

 ----------------------------------------------------------------------
 #t hf aug-cc-pvdz symm=none int=(grid=ultrafine) guess=(read,tcheck) s
 table=(opt,rrhf)
 ----------------------------------------------------------------------
 -----
 title
 -----
 Symbolic Z-matrix:
 Charge =  0 Multiplicity = 1

 SCF Done:  E(RHF) =  -520.208424294     A.U. after   13 cycles
 Normal termination of Gaussian 16 at Tue Apr  8 22:51:07 2025.
 Gaussian 16:  ES64L-G16RevC.01  3-Jul-2019

 ----------------------------------------------------------------------
 #t hf aug-cc-pvdz iop(5/13=1,5/36=2,99/5=2) pseudo=read geom=check gue
 ss=(read,tcheck) scf=(maxcycle=1)
 ----------------------------------------------------------------------
 -----
 title
 -----
 Structure from the checkpoint file:  "BDE49_expt_1439_mol1.chk"
 Charge =  0 Multiplicity = 1

                         Standard orientation:
 ---------------------------------------------------------------------
 Center     Atomic      Atomic             Coordinates (Angstroms)
 Number     Number       Type             X           Y           Z
 ---------------------------------------------------------------------
      1          7           0        0.000082    0.482989   -0.271120
      2          6           0        1.292469   -0.214858    0.022919
      3          6           0        1.247214   -1.582755   -0.692340
      4          6           0       -0.000412   -2.401069   -0.363061
      5          1           0        2.157625   -2.133223   -0.434278
      6          1           0        1.276839   -1.406086   -1.773525
      7          6           0       -1.247757   -1.582328   -0.692342
      8          1           0       -0.000464   -2.699570    0.690125
      9          1           0       -0.000570   -3.329844   -0.942446
     10          6           0       -1.292545   -0.214416    0.022918
     11          1           0       -2.158356   -2.132485   -0.434282
     12          1           0       -1.277320   -1.405649   -1.773527
     13          6           0       -1.619833   -0.377822    1.524807
     14          1           0       -2.670456   -0.659481    1.639682
     15          1           0       -1.462253    0.566453    2.046989
     16          1           0       -1.021296   -1.145772    2.013001
     17          6           0       -2.418764    0.619809   -0.615175
     18          1           0       -2.195283    0.827102   -1.663917
     19          1           0       -2.556777    1.566206   -0.089399
     20          1           0       -3.362062    0.068857   -0.563914
     21          6           0        2.418971    0.618982   -0.615174
     22          1           0        3.362083    0.067713   -0.563905
     23          1           0        2.557302    1.565336   -0.089403
     24          1           0        2.195565    0.826345   -1.663918
     25          6           0        1.619698   -0.378374    1.524809
     26          1           0        1.020900   -1.146119    2.013003
     27          1           0        1.462442    0.565956    2.046989
     28          1           0        2.670226   -0.660392    1.639685
     29          8           0        0.000296    1.731375    0.454160
     30          6           0        0.000500    2.844332   -0.434774
     31          1           0       -0.889399    2.859105   -1.069368
     32          1           0        0.890387    2.858758   -1.069393
     33          1           0        0.000680    3.725863    0.210824
 ---------------------------------------------------------------------

 SCF Done:  E(RHF) =  -520.766236819     A.U. after    2 cycles

 The electronic state is 1-A.
 Alpha  occ. eigenvalues --  -20.55723 -15.53238 -11.27140 -11.26465 -11.26462
 Alpha  occ. eigenvalues --  -11.22497 -11.22385 -11.22367 -11.21429 -11.21427
 Alpha  occ. eigenvalues --  -11.21154 -11.21145  -1.46684  -1.17979  -1.08163
 Alpha  occ. eigenvalues --   -1.05448  -0.99117  -0.93715  -0.92358  -0.91911
 Alpha  occ. eigenvalues --   -0.90274  -0.82333  -0.79619  -0.71926  -0.67029
 Alpha  occ. eigenvalues --   -0.66581  -0.64763  -0.63166  -0.61150  -0.60111
 Alpha  occ. eigenvalues --   -0.58571  -0.57760  -0.57327  -0.56515  -0.55238
 Alpha  occ. eigenvalues --   -0.53370  -0.53198  -0.52146  -0.51887  -0.51492
 Alpha  occ. eigenvalues --   -0.50145  -0.48938  -0.46929  -0.46591  -0.45372
 Alpha  occ. eigenvalues --   -0.43442  -0.41959  -0.39024
 Alpha virt. eigenvalues --    0.03414   0.03576   0.03664   0.04128   0.04675
 Alpha virt. eigenvalues --    0.04785   0.04900   0.04954   0.05269   0.08045
 Alpha virt. eigenvalues --    0.08270   0.08518   0.08746   0.09009   0.09082

 Mulliken charges:
               1
     1  N    3.654614
     2  C   -3.203023
     3  C    0.291744
     4  C   -0.237066
     5  H    0.115513
     6  H    0.190518
     7  C    0.291741
     8  H    0.179176
     9  H    0.118282
    10  C   -3.203028
    11  H    0.115510
    12  H    0.190520
    13  C    0.191947
    14  H    0.191143
    15  H    0.254936
    16  H    0.221339
    17  C    0.131781
    18  H    0.213310
    19  H    0.289038
    20  H    0.120249
    21  C    0.131776
    22  H    0.120242
    23  H    0.289040
    24  H    0.213310
    25  C    0.191936
    26  H    0.221335
    27  H    0.254940
    28  H    0.191145
    29  O   -2.255997
    30  C    0.327087
    31  H    0.068958
    32  H    0.068957
    33  H    0.059029
 Sum of Mulliken charges =  -0.00000

 Dipole moment (field-independent basis, Debye):
    X=             -0.0001    Y=             -0.4129    Z=             -0.3409  Tot=              0.5354

 Test job not archived.
 1\1\GINC-SE166\SP\RHF\Aug-CC-pVDZ\C10H21N1O1\OHZDE\08-Apr-2025\0\\#t h
 f aug-cc-pvdz iop(5/13=1,5/36=2,99/5=2) pseudo=read geom=check guess=(
 read,tcheck) scf=(maxcycle=1)\\title\\0,1\N,0,0.000086,0.482989,-0.271
 12\C,0,1.292467,-0.21487,0.022919\C,0,1.247199,-1.582766,-0.69234\C,0,
 -0.000434,-2.401069,-0.363061\H,0,2.157605,-2.133243,-0.434278\H,0,1.2
 76826,-1.406098,-1.773525\C,0,-1.247772,-1.582316,-0.692342\H,0,-0.000
 489,-2.69957,0.690125\H,0,-0.000601,-3.329844,-0.942446\C,0,-1.292547,
 -0.214404,0.022918\H,0,-2.158376,-2.132465,-0.434282\H,0,-1.277333,-1.

 Normal termination of Gaussian 16 at Tue Apr  8 22:51:46 2025.
