 Gaussian 16, Revision C.01,

 ----------------------------------------------------------------------
 #t hf aug-cc-pvdz symm=none int=(grid=ultrafine) guess=(read,tcheck) s
 table=(opt,rrhf)
 ----------------------------------------------------------------------
 -----
 title
 -----
 Symbolic Z-matrix:
 Charge =  0 Multiplicity = 1

 SCF Done:  E(RHF) =  -994.646901447     A.U. after   13 cycles
 Normal termination of Gaussian 16 at Wed Apr  9 00:16:53 2025.
 Gaussian 16:  ES64L-G16RevC.01  3-Jul-2019

 ----------------------------------------------------------------------
 #t hf aug-cc-pvdz iop(5/13=1,5/36=2,99/5=2) pseudo=read geom=check gue
 ss=(read,tcheck) scf=(maxcycle=1)
 ----------------------------------------------------------------------
 -----
 title
 -----
 Structure from the checkpoint file:  "BDE49_nonexpt_2514_mol1.chk"
 Charge =  0 Multiplicity = 1

                         Standard orientation:
 ---------------------------------------------------------------------
 Center     Atomic      Atomic             Coordinates (Angstroms)
 Number     Number       Type             X           Y           Z
 ---------------------------------------------------------------------
      1         16           0       -1.136732    0.207667    0.000002
      2          6           0       -1.923462   -1.421352   -0.000003
      3          8           0       -1.502579    0.845485   -1.267188
      4          8           0       -1.502576    0.845476    1.267198
      5          1           0       -1.639101   -1.961929   -0.902584
      6          1           0       -2.997285   -1.225114   -0.000002
      7          1           0       -1.639100   -1.961936    0.902573
      8         14           0        1.108501   -0.059480   -0.000001
      9          6           0        1.703199    1.711420   -0.000005
     10          1           0        1.341753    2.240902    0.884425
     11          1           0        1.341751    2.240899   -0.884436
     12          6           0        1.566845   -0.983902   -1.563223
     13          1           0        2.655844   -1.018970   -1.671874
     14          1           0        1.154238   -0.481315   -2.441184
     15          1           0        1.201944   -2.014379   -1.553591
     16          6           0        1.566849   -0.983898    1.563222
     17          1           0        1.154244   -0.481308    2.441182
     18          1           0        2.655849   -1.018966    1.671870
     19          1           0        1.201948   -2.014375    1.553593
     20          1           0        2.797265    1.745234   -0.000006
 ---------------------------------------------------------------------

 SCF Done:  E(RHF) =  -995.070011358     A.U. after    2 cycles

 The electronic state is 1-A.
 Alpha  occ. eigenvalues --  -94.15088 -69.56083 -20.51439 -20.51435 -11.27752
 Alpha  occ. eigenvalues --  -11.23927 -11.23922 -11.23058  -8.40759  -6.38838
 Alpha  occ. eigenvalues --   -6.38620  -6.38517  -6.23064  -3.98432  -3.98310
 Alpha  occ. eigenvalues --   -3.98307  -1.52078  -1.40614  -1.04567  -1.00603
 Alpha  occ. eigenvalues --   -0.95772  -0.95217  -0.86226  -0.71228  -0.65022
 Alpha  occ. eigenvalues --   -0.64275  -0.63674  -0.60071  -0.59601  -0.59402
 Alpha  occ. eigenvalues --   -0.58838  -0.57653  -0.57410  -0.56412  -0.56152
 Alpha  occ. eigenvalues --   -0.48159  -0.47286  -0.46812  -0.45988  -0.43878
 Alpha  occ. eigenvalues --   -0.38392
 Alpha virt. eigenvalues --    0.02191   0.03066   0.03701   0.04376   0.05692
 Alpha virt. eigenvalues --    0.05712   0.06098   0.06862   0.07115   0.08829
 Alpha virt. eigenvalues --    0.08902   0.09328   0.10329   0.11018   0.11515

 Mulliken charges:
               1
     1  S    2.479143
     2  C   -0.694931
     3  O   -1.505753
     4  O   -1.505752
     5  H    0.186719
     6  H    0.208319
     7  H    0.186717
     8  Si   2.506967
     9  C   -0.573191
    10  H    0.001346
    11  H    0.001347
    12  C   -0.609619
    13  H   -0.024548
    14  H    0.045706
    15  H   -0.042572
    16  C   -0.609620
    17  H    0.045706
    18  H   -0.024546
    19  H   -0.042572
    20  H   -0.028868
 Sum of Mulliken charges =  -0.00000

 Dipole moment (field-independent basis, Debye):
    X=              4.0032    Y=             -4.1850    Z=             -0.0000  Tot=              5.7914

 Test job not archived.
 1\1\GINC-SE328\SP\RHF\Aug-CC-pVDZ\C4H12O2S1Si1\OHZDE\09-Apr-2025\0\\#t
  hf aug-cc-pvdz iop(5/13=1,5/36=2,99/5=2) pseudo=read geom=check guess
 =(read,tcheck) scf=(maxcycle=1)\\title\\0,1\S,0,1.136732,0.207667,-0.0
 00002\C,0,1.923462,-1.421352,0.000003\O,0,1.502579,0.845485,1.267188\O
 ,0,1.502576,0.845476,-1.267198\H,0,1.639101,-1.961929,0.902584\H,0,2.9
 97285,-1.225114,0.000002\H,0,1.6391,-1.961936,-0.902573\Si,0,-1.108501
 ,-0.05948,0.000001\C,0,-1.703199,1.71142,0.000005\H,0,-1.341753,2.2409
 02,-0.884425\H,0,-1.341751,2.240899,0.884436\C,0,-1.566845,-0.983902,1

 Normal termination of Gaussian 16 at Wed Apr  9 00:17:04 2025.
