 Gaussian 16, Revision C.01,

 ----------------------------------------------------------------------
 #t hf aug-cc-pvdz symm=none int=(grid=ultrafine) guess=(read,tcheck) s
 table=(opt,rrhf)
 ----------------------------------------------------------------------
 -----
 title
 -----
 Symbolic Z-matrix:
 Charge =  0 Multiplicity = 1

 SCF Done:  E(RHF) =  -473.536690368     A.U. after   13 cycles
 Normal termination of Gaussian 16 at Tue Apr  8 22:57:34 2025.
 Gaussian 16:  ES64L-G16RevC.01  3-Jul-2019

 ----------------------------------------------------------------------
 #t hf aug-cc-pvdz iop(5/13=1,5/36=2,99/5=2) pseudo=read geom=check gue
 ss=(read,tcheck) scf=(maxcycle=1)
 ----------------------------------------------------------------------
 -----
 title
 -----
 Structure from the checkpoint file:  "BDE49_expt_1912_mol1.chk"
 Charge =  0 Multiplicity = 1

                         Standard orientation:
 ---------------------------------------------------------------------
 Center     Atomic      Atomic             Coordinates (Angstroms)
 Number     Number       Type             X           Y           Z
 ---------------------------------------------------------------------
      1          8           0       -1.100518    0.022487   -0.117710
      2         16           0        0.585231   -0.089872    0.009200
      3          1           0       -1.439897    0.029319    0.785218
      4          1           0        0.880356    1.228735    0.009263
 ---------------------------------------------------------------------

 SCF Done:  E(RHF) =  -473.671135353     A.U. after    2 cycles

 The electronic state is 1-A.
 Alpha  occ. eigenvalues --  -94.01109 -20.59560  -8.28545  -6.26418  -6.26194
 Alpha  occ. eigenvalues --   -6.25939  -1.47106  -0.98520  -0.69704  -0.62015
 Alpha  occ. eigenvalues --   -0.56253  -0.46837  -0.38647
 Alpha virt. eigenvalues --    0.03590   0.04625   0.08217   0.10944   0.12176
 Alpha virt. eigenvalues --    0.17890   0.18516   0.19948   0.21440   0.22693
 Alpha virt. eigenvalues --    0.23697   0.29239   0.32704   0.36837   0.39402

 Mulliken charges:
               1
     1  O   -1.024193
     2  S    0.307541
     3  H    0.407090
     4  H    0.309562
 Sum of Mulliken charges =   0.00000

 Dipole moment (field-independent basis, Debye):
    X=              0.0552    Y=              0.9418    Z=              1.4702  Tot=              1.7469

 Test job not archived.
 1\1\GINC-SE051\SP\RHF\Aug-CC-pVDZ\H2O1S1\OHZDE\08-Apr-2025\0\\#t hf au
 g-cc-pvdz iop(5/13=1,5/36=2,99/5=2) pseudo=read geom=check guess=(read
 ,tcheck) scf=(maxcycle=1)\\title\\0,1\O,0,-1.100518,0.022487,-0.11771\
 S,0,0.585231,-0.089872,0.0092\H,0,-1.439897,0.029319,0.785218\H,0,0.88
 0357,1.228735,0.009263\\Version=ES64L-G16RevC.01\State=1-A\HF=-473.671
 1354\RMSD=5.492e-03\Dipole=0.0217249,0.3705468,0.578431\Quadrupole=0.5
 944635,0.3465505,-0.941014,0.9280965,-1.9567737,0.0454338\PG=C01 [X(H2
 O1S1)]\\@

 Normal termination of Gaussian 16 at Tue Apr  8 22:57:35 2025.
