 Gaussian 16, Revision C.01,

 ----------------------------------------------------------------------
 #t hf aug-cc-pvdz symm=none int=(grid=ultrafine) guess=(read,tcheck) s
 table=(opt,rrhf)
 ----------------------------------------------------------------------
 -----
 title
 -----
 Symbolic Z-matrix:
 Charge =  0 Multiplicity = 1

 SCF Done:  E(RHF) =  -303.495832918     A.U. after   15 cycles
 Normal termination of Gaussian 16 at Tue Apr  8 23:01:44 2025.
 Gaussian 16:  ES64L-G16RevC.01  3-Jul-2019

 ----------------------------------------------------------------------
 #t hf aug-cc-pvdz iop(5/13=1,5/36=2,99/5=2) pseudo=read geom=check gue
 ss=(read,tcheck) scf=(maxcycle=1)
 ----------------------------------------------------------------------
 -----
 title
 -----
 Structure from the checkpoint file:  "BDE49_expt_23_mol1.chk"
 Charge =  0 Multiplicity = 1

                         Standard orientation:
 ---------------------------------------------------------------------
 Center     Atomic      Atomic             Coordinates (Angstroms)
 Number     Number       Type             X           Y           Z
 ---------------------------------------------------------------------
      1          6           0        1.462124   -0.122895   -0.000002
      2          6           0        2.628104   -0.409988   -0.000009
      3          1           0        3.658882   -0.670575   -0.000022
      4          6           0        0.077728    0.306498    0.000002
      5          8           0       -0.272413    1.459657    0.000007
      6          8           0       -0.753642   -0.749739   -0.000001
      7          6           0       -2.158738   -0.427426    0.000003
      8          1           0       -2.416801    0.149893   -0.888885
      9          1           0       -2.416797    0.149886    0.888897
     10          1           0       -2.672147   -1.385684   -0.000000
 ---------------------------------------------------------------------

 SCF Done:  E(RHF) =  -303.797008894     A.U. after    2 cycles

 The electronic state is 1-A.
 Alpha  occ. eigenvalues --  -20.60637 -20.55331 -11.42397 -11.30666 -11.27997
 Alpha  occ. eigenvalues --  -11.27010  -1.55946  -1.46811  -1.07797  -0.99765
 Alpha  occ. eigenvalues --   -0.87881  -0.77442  -0.73949  -0.69655  -0.68632
 Alpha  occ. eigenvalues --   -0.61552  -0.57584  -0.54679  -0.47986  -0.46988
 Alpha  occ. eigenvalues --   -0.43480  -0.43359
 Alpha virt. eigenvalues --    0.03291   0.03708   0.05603   0.05845   0.07750
 Alpha virt. eigenvalues --    0.08085   0.09861   0.11217   0.11447   0.12370
 Alpha virt. eigenvalues --    0.13777   0.13893   0.15538   0.15625   0.16968

 Mulliken charges:
               1
     1  C    0.125111
     2  C    0.262010
     3  H   -0.357713
     4  C    1.754581
     5  O   -1.149118
     6  O   -1.233800
     7  C    0.201632
     8  H    0.187685
     9  H    0.187686
    10  H    0.021926
 Sum of Mulliken charges =  -0.00000

 Dipole moment (field-independent basis, Debye):
    X=             -0.0677    Y=             -1.9394    Z=             -0.0000  Tot=              1.9406

 Test job not archived.
 1\1\GINC-SE086\SP\RHF\Aug-CC-pVDZ\C4H4O2\OHZDE\08-Apr-2025\0\\#t hf au
 g-cc-pvdz iop(5/13=1,5/36=2,99/5=2) pseudo=read geom=check guess=(read
 ,tcheck) scf=(maxcycle=1)\\title\\0,1\C,0,1.462124,-0.122895,-0.000002
 \C,0,2.628104,-0.409988,-0.000009\H,0,3.658882,-0.670575,-0.000022\C,0
 ,0.077728,0.306498,0.000002\O,0,-0.272413,1.459657,0.000007\O,0,-0.753
 642,-0.749739,-0.000001\C,0,-2.158738,-0.427426,0.000003\H,0,-2.416801
 ,0.149893,-0.888885\H,0,-2.416797,0.149886,0.888897\H,0,-2.672147,-1.3
 85684,0.\\Version=ES64L-G16RevC.01\State=1-A\HF=-303.7970089\RMSD=1.92

 Normal termination of Gaussian 16 at Tue Apr  8 23:01:48 2025.
