 Gaussian 16, Revision C.01,

 ----------------------------------------------------------------------
 #t hf aug-cc-pvdz symm=none int=(grid=ultrafine) guess=(read,tcheck) s
 table=(opt,rrhf)
 ----------------------------------------------------------------------
 -----
 title
 -----
 Symbolic Z-matrix:
 Charge =  0 Multiplicity = 1

 SCF Done:  E(RHF) =  -837.541289866     A.U. after   17 cycles
 Normal termination of Gaussian 16 at Wed Apr  9 00:52:29 2025.
 Gaussian 16:  ES64L-G16RevC.01  3-Jul-2019

 ----------------------------------------------------------------------
 #t hf aug-cc-pvdz iop(5/13=1,5/36=2,99/5=2) pseudo=read geom=check gue
 ss=(read,tcheck) scf=(maxcycle=1)
 ----------------------------------------------------------------------
 -----
 title
 -----
 Structure from the checkpoint file:  "BDE49_nonexpt_932_mol1.chk"
 Charge =  0 Multiplicity = 1

                         Standard orientation:
 ---------------------------------------------------------------------
 Center     Atomic      Atomic             Coordinates (Angstroms)
 Number     Number       Type             X           Y           Z
 ---------------------------------------------------------------------
      1         17           0       -2.447712   -0.956165   -0.267066
      2          7           0       -1.233865    0.103382    0.511194
      3          6           0       -1.398291    1.515083    0.062168
      4          7           0       -0.023310    2.039806    0.102374
      5          1           0        0.156494    2.796717   -0.543971
      6          6           0        0.113619   -0.243426    0.229576
      7          6           0        0.732608   -1.481543    0.257393
      8          1           0        0.155863   -2.383326    0.420342
      9          6           0        2.838552   -0.360028   -0.185723
     10          1           0        3.907727   -0.415710   -0.354375
     11          6           0        0.836639    0.934202    0.003200
     12          6           0        2.113856   -1.529178    0.040985
     13          1           0        2.621148   -2.486340    0.045392
     14          6           0        2.209106    0.889354   -0.201128
     15          1           0        2.775687    1.797006   -0.375442
     16          1           0       -1.831662    1.557175   -0.947394
     17          1           0       -2.050469    2.040181    0.761774
 ---------------------------------------------------------------------

 SCF Done:  E(RHF) =  -838.002088614     A.U. after    2 cycles

 The electronic state is 1-A.
 Alpha  occ. eigenvalues -- -105.59191 -15.58103 -15.52528 -11.32125 -11.28561
 Alpha  occ. eigenvalues --  -11.27813 -11.25001 -11.24732 -11.24615 -11.24096
 Alpha  occ. eigenvalues --  -10.63673  -7.80620  -7.80181  -7.80146  -1.31953
 Alpha  occ. eigenvalues --   -1.20319  -1.14668  -1.04147  -1.01847  -1.00594
 Alpha  occ. eigenvalues --   -0.89819  -0.85589  -0.82644  -0.74466  -0.70649
 Alpha  occ. eigenvalues --   -0.69746  -0.68131  -0.63486  -0.62406  -0.60433
 Alpha  occ. eigenvalues --   -0.60280  -0.56015  -0.54665  -0.53849  -0.51842
 Alpha  occ. eigenvalues --   -0.47353  -0.46336  -0.43894  -0.34614  -0.31070
 Alpha virt. eigenvalues --    0.03063   0.03777   0.03984   0.05101   0.05412
 Alpha virt. eigenvalues --    0.05542   0.07099   0.07529   0.09068   0.09806
 Alpha virt. eigenvalues --    0.11129   0.11292   0.11982   0.13119   0.13351

 Mulliken charges:
               1
     1  Cl   0.007699
     2  N    0.528623
     3  C   -0.075579
     4  N    0.684862
     5  H    0.107626
     6  C   -1.032048
     7  C    0.727110
     8  H   -0.256331
     9  C    0.161185
    10  H   -0.231930
    11  C   -1.416667
    12  C    0.244347
    13  H   -0.232472
    14  C    1.071047
    15  H   -0.264515
    16  H   -0.069443
    17  H    0.046484
 Sum of Mulliken charges =   0.00000

 Dipole moment (field-independent basis, Debye):
    X=              0.7601    Y=              1.5278    Z=             -1.6254  Tot=              2.3567

 Test job not archived.
 1\1\GINC-SE424\SP\RHF\Aug-CC-pVDZ\C7H7Cl1N2\OHZDE\09-Apr-2025\0\\#t hf
  aug-cc-pvdz iop(5/13=1,5/36=2,99/5=2) pseudo=read geom=check guess=(r
 ead,tcheck) scf=(maxcycle=1)\\title\\0,1\Cl,0,2.447712,-0.956165,0.267
 066\N,0,1.233865,0.103382,-0.511194\C,0,1.398291,1.515083,-0.062168\N,
 0,0.02331,2.039806,-0.102374\H,0,-0.156494,2.796717,0.543971\C,0,-0.11
 3619,-0.243426,-0.229576\C,0,-0.732608,-1.481543,-0.257393\H,0,-0.1558
 63,-2.383326,-0.420342\C,0,-2.838552,-0.360028,0.185723\H,0,-3.907727,
 -0.41571,0.354375\C,0,-0.836639,0.934202,-0.0032\C,0,-2.113856,-1.5291

 Normal termination of Gaussian 16 at Wed Apr  9 00:52:38 2025.
