 Gaussian 16, Revision C.01,

 ----------------------------------------------------------------------
 #t hf aug-cc-pvdz symm=none int=(grid=ultrafine) guess=(read,tcheck) s
 table=(opt,rrhf)
 ----------------------------------------------------------------------
 -----
 title
 -----
 Symbolic Z-matrix:
 Charge =  0 Multiplicity = 1

 SCF Done:  E(RHF) =  -350.090932817     A.U. after   15 cycles
 Normal termination of Gaussian 16 at Wed Apr  9 00:40:38 2025.
 Gaussian 16:  ES64L-G16RevC.01  3-Jul-2019

 ----------------------------------------------------------------------
 #t hf aug-cc-pvdz iop(5/13=1,5/36=2,99/5=2) pseudo=read geom=check gue
 ss=(read,tcheck) scf=(maxcycle=1)
 ----------------------------------------------------------------------
 -----
 title
 -----
 Structure from the checkpoint file:  "BDE49_nonexpt_620_mol1.chk"
 Charge =  0 Multiplicity = 1

                         Standard orientation:
 ---------------------------------------------------------------------
 Center     Atomic      Atomic             Coordinates (Angstroms)
 Number     Number       Type             X           Y           Z
 ---------------------------------------------------------------------
      1          6           0        0.230895    0.061266   -0.019712
      2          6           0       -0.431683   -1.148599   -0.258307
      3          6           0       -1.823517   -1.206272   -0.249278
      4          6           0       -2.577607   -0.064155    0.000790
      5          6           0       -1.922381    1.140244    0.250769
      6          6           0       -0.533614    1.203324    0.250118
      7          5           0        2.364182    1.241161   -0.534149
      8          1           0       -2.316529   -2.152323   -0.443415
      9          1           0       -3.660209   -0.112121    0.009309
     10          1           0       -2.494406    2.036652    0.462781
     11          1           0       -0.032296    2.136957    0.469189
     12          1           0        0.132591   -2.047813   -0.468712
     13          7           0        1.659958    0.138154   -0.034628
     14          6           0        2.374715   -1.047723    0.459973
     15          1           0        2.314819   -1.882734   -0.244343
     16          1           0        1.960085   -1.374213    1.417388
     17          1           0        3.423597   -0.791062    0.591950
     18          1           0        1.776348    2.161007   -1.003511
     19          1           0        3.554532    1.224259   -0.483619
 ---------------------------------------------------------------------

 SCF Done:  E(RHF) =  -350.456308129     A.U. after    2 cycles

 The electronic state is 1-A.
 Alpha  occ. eigenvalues --  -15.51342 -11.28375 -11.26888 -11.24611 -11.24527
 Alpha  occ. eigenvalues --  -11.24039 -11.23844 -11.23800  -7.58146  -1.23889
 Alpha  occ. eigenvalues --   -1.14176  -1.02094  -1.01272  -0.93807  -0.84848
 Alpha  occ. eigenvalues --   -0.82943  -0.75606  -0.70863  -0.66701  -0.64626
 Alpha  occ. eigenvalues --   -0.62928  -0.61696  -0.59905  -0.58034  -0.55608
 Alpha  occ. eigenvalues --   -0.52786  -0.51947  -0.50575  -0.47312  -0.45060
 Alpha  occ. eigenvalues --   -0.34850  -0.32713
 Alpha virt. eigenvalues --    0.03374   0.03709   0.03759   0.04382   0.04707
 Alpha virt. eigenvalues --    0.04905   0.05832   0.06860   0.07198   0.07345
 Alpha virt. eigenvalues --    0.08533   0.10235   0.10508   0.11364   0.11756

 Mulliken charges:
               1
     1  C   -1.477899
     2  C    0.446067
     3  C    0.412029
     4  C    0.075259
     5  C    0.325373
     6  C    0.585828
     7  B   -0.801196
     8  H   -0.235756
     9  H   -0.220492
    10  H   -0.219265
    11  H   -0.345953
    12  H   -0.319162
    13  N    1.197393
    14  C   -0.255513
    15  H    0.194392
    16  H    0.183374
    17  H   -0.066776
    18  H    0.279982
    19  H    0.242313
 Sum of Mulliken charges =  -0.00000

 Dipole moment (field-independent basis, Debye):
    X=             -0.1820    Y=             -1.0910    Z=              0.4949  Tot=              1.2118

 Test job not archived.
 1\1\GINC-SE097\SP\RHF\Aug-CC-pVDZ\C7H10B1N1\OHZDE\09-Apr-2025\0\\#t hf
  aug-cc-pvdz iop(5/13=1,5/36=2,99/5=2) pseudo=read geom=check guess=(r
 ead,tcheck) scf=(maxcycle=1)\\title\\0,1\C,0,0.230895,0.061266,-0.0197
 12\C,0,-0.431683,-1.148599,-0.258307\C,0,-1.823517,-1.206272,-0.249278
 \C,0,-2.577607,-0.064155,0.00079\C,0,-1.922381,1.140244,0.250769\C,0,-
 0.533614,1.203324,0.250118\B,0,2.364182,1.241161,-0.534149\H,0,-2.3165
 29,-2.152323,-0.443415\H,0,-3.660209,-0.112121,0.009309\H,0,-2.494406,
 2.036652,0.462781\H,0,-0.032296,2.136957,0.469189\H,0,0.132591,-2.0478

 Normal termination of Gaussian 16 at Wed Apr  9 00:40:48 2025.
