 Gaussian 16, Revision C.01,

 ----------------------------------------------------------------------
 #t hf aug-cc-pvdz symm=none int=(grid=ultrafine) guess=(read,tcheck) s
 table=opt
 ----------------------------------------------------------------------
 -----
 title
 -----
 Symbolic Z-matrix:
 Charge =  0 Multiplicity = 2

 SCF Done:  E(UHF) =  -1147.19185370     A.U. after   27 cycles
 Normal termination of Gaussian 16 at Wed Apr  9 00:16:35 2025.
 Gaussian 16:  ES64L-G16RevC.01  3-Jul-2019

 ----------------------------------------------------------------------
 #t hf aug-cc-pvdz iop(5/13=1,5/36=2,99/5=2) pseudo=read geom=check gue
 ss=(read,tcheck) scf=(maxcycle=1)
 ----------------------------------------------------------------------
 -----
 title
 -----
 Structure from the checkpoint file:  "BDE49_nonexpt_2533_mol2.chk"
 Charge =  0 Multiplicity = 2

                         Standard orientation:
 ---------------------------------------------------------------------
 Center     Atomic      Atomic             Coordinates (Angstroms)
 Number     Number       Type             X           Y           Z
 ---------------------------------------------------------------------
      1         16           0       -1.716753   -0.455229   -0.000030
      2         14           0       -0.008733    0.839913   -0.000016
      3         17           0        1.615148   -0.459740    0.000024
      4          1           0        0.067017    1.670372   -1.214648
      5          1           0        0.065767    1.670081    1.214955
 ---------------------------------------------------------------------

 SCF Done:  E(UHF) =  -1147.35713716     A.U. after    2 cycles

 The electronic state is 2-A.
 Alpha  occ. eigenvalues -- -105.57182 -93.98432 -69.61668 -10.62194  -8.26654
 Alpha  occ. eigenvalues --   -7.79116  -7.78774  -7.78742  -6.28098  -6.25787
 Alpha  occ. eigenvalues --   -6.24029  -6.23755  -4.03532  -4.03391  -4.03309
 Alpha  occ. eigenvalues --   -1.07603  -1.01979  -0.73883  -0.56730  -0.56123
 Alpha  occ. eigenvalues --   -0.52688  -0.48014  -0.47254  -0.46017  -0.41390
 Alpha virt. eigenvalues --    0.04083   0.04775   0.05211   0.05821   0.09065
 Alpha virt. eigenvalues --    0.09757   0.11227   0.12217   0.13035   0.13894
 Alpha virt. eigenvalues --    0.13982   0.16600   0.17431   0.18616   0.21145

  Beta  occ. eigenvalues -- -105.57138 -93.97570 -69.61701 -10.62146  -8.25667
  Beta  occ. eigenvalues --   -7.79003  -7.78714  -7.78693  -6.28146  -6.23529
  Beta  occ. eigenvalues --   -6.23234  -6.21923  -4.03588  -4.03475  -4.03332
  Beta  occ. eigenvalues --   -1.06796  -0.93218  -0.72883  -0.55994  -0.55159
  Beta  occ. eigenvalues --   -0.51733  -0.47125  -0.45621  -0.39225
  Beta virt. eigenvalues --   -0.03387   0.04154   0.05151   0.05689   0.05829
  Beta virt. eigenvalues --    0.09091   0.09804   0.11653   0.12952   0.13610
  Beta virt. eigenvalues --    0.13985   0.14746   0.17451   0.17575   0.19059

 Mulliken charges and spin densities:
               1          2
     1  S   -0.516632   1.073827
     2  Si   1.347664  -0.095344
     3  Cl  -0.517740   0.024120
     4  H   -0.156507  -0.001572
     5  H   -0.156785  -0.001031
 Sum of Mulliken charges =  -0.00000   1.00000

 Dipole moment (field-independent basis, Debye):
    X=             -0.4663    Y=              1.6321    Z=              0.0016  Tot=              1.6974
                          Isotropic Fermi Contact Couplings
        Atom                 a.u.       MegaHertz       Gauss      10(-4) cm-1
     1  S(33)              0.14464      49.68118      17.72748      16.57186
     2  Si(29)            -0.03675      32.66242      11.65476      10.89501
     3  Cl(35)             0.02779      12.18428       4.34765       4.06424
     4  H(1)               0.00005       0.21016       0.07499       0.07010
     5  H(1)               0.00018       0.81355       0.29029       0.27137
 --------------------------------------------------------
       Center         ----  Spin Dipole Couplings  ----
                      3XX-RR        3YY-RR        3ZZ-RR

 Normal termination of Gaussian 16 at Wed Apr  9 00:16:38 2025.
