 Gaussian 16, Revision C.01,

 ----------------------------------------------------------------------
 #t hf aug-cc-pvdz symm=none int=(grid=ultrafine) guess=(read,tcheck) s
 table=(opt,rrhf)
 ----------------------------------------------------------------------
 -----
 title
 -----
 Symbolic Z-matrix:
 Charge =  0 Multiplicity = 1

 SCF Done:  E(RHF) =  -731.017181075     A.U. after   13 cycles

 1\1\GINC-SE344\Stability\RHF\Aug-CC-pVDZ\H6O2Si2\OHZDE\09-Apr-2025\0\\
 #t hf aug-cc-pvdz symm=none int=(grid=ultrafine) guess=(read,tcheck) s
 table=(opt,rrhf)\\title\\0,1\Si,0,-0.156697,0.679095,0.013798\Si,0,2.0
 08052,-0.255603,-0.000816\O,0,-1.15858,-0.678183,-0.025965\H,0,-0.3948
 19,1.542924,-1.165055\H,0,-0.410585,1.473187,1.240421\H,0,2.989592,0.8
 55462,0.065842\H,0,2.242534,-1.027312,-1.242927\O,0,-2.546664,-0.19416
 9,-0.090102\H,0,-2.913021,-0.655622,0.676882\H,0,2.209274,-1.138711,1.
 171617\\Version=ES64L-G16RevC.01\HF=-731.0171811\RMSD=3.472e-09\Dipole

 Normal termination of Gaussian 16 at Wed Apr  9 00:10:34 2025.
 Gaussian 16:  ES64L-G16RevC.01  3-Jul-2019

 ----------------------------------------------------------------------
 #t hf aug-cc-pvdz iop(5/13=1,5/36=2,99/5=2) pseudo=read geom=check gue
 ss=(read,tcheck) scf=(maxcycle=1)
 ----------------------------------------------------------------------
 -----
 title
 -----
 Structure from the checkpoint file:  "BDE49_nonexpt_2359_mol1.chk"
 Charge =  0 Multiplicity = 1

                         Standard orientation:
 ---------------------------------------------------------------------
 Center     Atomic      Atomic             Coordinates (Angstroms)
 Number     Number       Type             X           Y           Z
 ---------------------------------------------------------------------
      1         14           0       -0.156697    0.679095    0.013798
      2         14           0        2.008052   -0.255603   -0.000816
      3          8           0       -1.158580   -0.678183   -0.025965
      4          1           0       -0.394819    1.542924   -1.165055
      5          1           0       -0.410585    1.473187    1.240421
      6          1           0        2.989592    0.855462    0.065842
      7          1           0        2.242534   -1.027312   -1.242927
      8          8           0       -2.546664   -0.194169   -0.090102
      9          1           0       -2.913021   -0.655622    0.676882
     10          1           0        2.209274   -1.138711    1.171617
 ---------------------------------------------------------------------

 SCF Done:  E(RHF) =  -731.231611641     A.U. after    2 cycles

 The electronic state is 1-A.
 Alpha  occ. eigenvalues --  -69.56488 -69.53127 -20.62854 -20.60443  -6.23219
 Alpha  occ. eigenvalues --   -6.20360  -3.98663  -3.98526  -3.98485  -3.95715
 Alpha  occ. eigenvalues --   -3.95709  -3.95707  -1.57016  -1.27928  -0.78387
 Alpha  occ. eigenvalues --   -0.72425  -0.70543  -0.61702  -0.60861  -0.53294
 Alpha  occ. eigenvalues --   -0.49790  -0.49531  -0.48408  -0.45247  -0.41824
 Alpha virt. eigenvalues --    0.03730   0.03905   0.04920   0.06112   0.06832
 Alpha virt. eigenvalues --    0.07341   0.07862   0.08110   0.09016   0.09107
 Alpha virt. eigenvalues --    0.10453   0.10651   0.13431   0.13963   0.15608

 Mulliken charges:
               1
     1  Si   1.350960
     2  Si   0.229142
     3  O   -0.786046
     4  H   -0.173538
     5  H   -0.185519
     6  H   -0.127594
     7  H   -0.126193
     8  O   -0.548887
     9  H    0.493896
    10  H   -0.126221
 Sum of Mulliken charges =   0.00000

 Dipole moment (field-independent basis, Debye):
    X=              0.0834    Y=              0.2671    Z=              1.2705  Tot=              1.3010

 Test job not archived.
 1\1\GINC-SE344\SP\RHF\Aug-CC-pVDZ\H6O2Si2\OHZDE\09-Apr-2025\0\\#t hf a
 ug-cc-pvdz iop(5/13=1,5/36=2,99/5=2) pseudo=read geom=check guess=(rea
 d,tcheck) scf=(maxcycle=1)\\title\\0,1\Si,0,-0.156697,0.679095,0.01379
 8\Si,0,2.008052,-0.255603,-0.000816\O,0,-1.15858,-0.678183,-0.025965\H
 ,0,-0.394819,1.542924,-1.165055\H,0,-0.410585,1.473187,1.240421\H,0,2.
 989592,0.855462,0.065842\H,0,2.242534,-1.027312,-1.242927\O,0,-2.54666
 4,-0.194169,-0.090102\H,0,-2.913021,-0.655622,0.676882\H,0,2.209274,-1
 .138711,1.171617\\Version=ES64L-G16RevC.01\State=1-A\HF=-731.2316116\R

 Normal termination of Gaussian 16 at Wed Apr  9 00:10:45 2025.
