 Gaussian 16, Revision C.01,

 ----------------------------------------------------------------------
 #t hf aug-cc-pvdz symm=none int=(grid=ultrafine) guess=(read,tcheck) s
 table=(opt,rrhf)
 ----------------------------------------------------------------------
 -----
 title
 -----
 Symbolic Z-matrix:
 Charge =  0 Multiplicity = 1

 SCF Done:  E(RHF) =  -626.144672929     A.U. after   16 cycles
 Normal termination of Gaussian 16 at Wed Apr  9 00:22:36 2025.
 Gaussian 16:  ES64L-G16RevC.01  3-Jul-2019

 ----------------------------------------------------------------------
 #t hf aug-cc-pvdz iop(5/13=1,5/36=2,99/5=2) pseudo=read geom=check gue
 ss=(read,tcheck) scf=(maxcycle=1)
 ----------------------------------------------------------------------
 -----
 title
 -----
 Structure from the checkpoint file:  "BDE49_nonexpt_2661_mol1.chk"
 Charge =  0 Multiplicity = 1

                         Standard orientation:
 ---------------------------------------------------------------------
 Center     Atomic      Atomic             Coordinates (Angstroms)
 Number     Number       Type             X           Y           Z
 ---------------------------------------------------------------------
      1          9           0        1.847629    0.569352    0.000001
      2         16           0        0.453213   -0.461159   -0.000000
      3          7           0       -1.100570   -0.242650   -0.000000
      4          8           0       -2.022010    0.494117   -0.000000
 ---------------------------------------------------------------------

 SCF Done:  E(RHF) =  -626.408867574     A.U. after    2 cycles

 The electronic state is 1-A.
 Alpha  occ. eigenvalues --  -94.12442 -26.46634 -20.67696 -15.75157  -8.39174
 Alpha  occ. eigenvalues --   -6.36967  -6.36438  -6.36267  -1.67907  -1.55803
 Alpha  occ. eigenvalues --   -1.25782  -0.90726  -0.79133  -0.76779  -0.72797
 Alpha  occ. eigenvalues --   -0.63912  -0.63465  -0.55753  -0.45457  -0.44862
 Alpha virt. eigenvalues --    0.00977   0.02779   0.07242   0.08696   0.10449
 Alpha virt. eigenvalues --    0.11884   0.14653   0.18090   0.18099   0.20409
 Alpha virt. eigenvalues --    0.23581   0.24312   0.25526   0.27618   0.29542

 Mulliken charges:
               1
     1  F   -0.597682
     2  S    0.743538
     3  N    0.759062
     4  O   -0.904918
 Sum of Mulliken charges =  -0.00000

 Dipole moment (field-independent basis, Debye):
    X=             -0.3653    Y=             -0.8315    Z=             -0.0000  Tot=              0.9081

 Test job not archived.
 1\1\GINC-SE054\SP\RHF\Aug-CC-pVDZ\F1N1O1S1\OHZDE\09-Apr-2025\0\\#t hf
 aug-cc-pvdz iop(5/13=1,5/36=2,99/5=2) pseudo=read geom=check guess=(re
 ad,tcheck) scf=(maxcycle=1)\\title\\0,1\F,0,1.847629,0.569352,0.000001
 \S,0,0.453213,-0.461159,0.\N,0,-1.10057,-0.24265,0.\O,0,-2.02201,0.494
 117,0.\\Version=ES64L-G16RevC.01\State=1-A\HF=-626.4088676\RMSD=1.359e
 -02\Dipole=-0.1437055,-0.3271177,-0.0000003\Quadrupole=-2.1770906,0.80
 3848,1.3732427,-1.1982447,-0.0000018,-0.0000003\PG=C01 [X(F1N1O1S1)]\\
 @

 Normal termination of Gaussian 16 at Wed Apr  9 00:22:37 2025.
