 Gaussian 16, Revision C.01,

 ----------------------------------------------------------------------
 #t hf aug-cc-pvdz symm=none int=(grid=ultrafine) guess=(read,tcheck) s
 table=opt
 ----------------------------------------------------------------------
 -----
 title
 -----
 Symbolic Z-matrix:
 Charge =  0 Multiplicity = 2

 SCF Done:  E(UHF) =  -153.482432489     A.U. after   22 cycles
 Normal termination of Gaussian 16 at Tue Apr  8 22:40:26 2025.
 Gaussian 16:  ES64L-G16RevC.01  3-Jul-2019

 ----------------------------------------------------------------------
 #t hf aug-cc-pvdz iop(5/13=1,5/36=2,99/5=2) pseudo=read geom=check gue
 ss=(read,tcheck) scf=(maxcycle=1)
 ----------------------------------------------------------------------
 -----
 title
 -----
 Structure from the checkpoint file:  "BDE49_expt_1364_mol2.chk"
 Charge =  0 Multiplicity = 2

                         Standard orientation:
 ---------------------------------------------------------------------
 Center     Atomic      Atomic             Coordinates (Angstroms)
 Number     Number       Type             X           Y           Z
 ---------------------------------------------------------------------
      1          6           0        0.181169    0.478537   -0.000011
      2          8           0        1.255267   -0.365230   -0.000013
      3          6           0       -1.188986   -0.194599   -0.000001
      4          1           0        0.301375    1.160988   -0.865718
      5          1           0        0.301455    1.160721    0.865910
      6          1           0       -1.302770   -0.825673   -0.884614
      7          1           0       -1.992626    0.548031    0.000113
      8          1           0       -1.302669   -0.825862    0.884489
 ---------------------------------------------------------------------

 SCF Done:  E(UHF) =  -153.640265961     A.U. after    2 cycles

 The electronic state is 2-A.
 Alpha  occ. eigenvalues --  -20.60607 -11.29313 -11.23394  -1.48924  -1.01691
 Alpha  occ. eigenvalues --   -0.84942  -0.70885  -0.65552  -0.61027  -0.57606
 Alpha  occ. eigenvalues --   -0.54516  -0.48621  -0.46528
 Alpha virt. eigenvalues --    0.03692   0.04478   0.04638   0.05665   0.07767
 Alpha virt. eigenvalues --    0.11164   0.12046   0.14220   0.14253   0.15977
 Alpha virt. eigenvalues --    0.16985   0.17017   0.19822   0.22216   0.27089

  Beta  occ. eigenvalues --  -20.56642 -11.29626 -11.23399  -1.35707  -1.00547
  Beta  occ. eigenvalues --   -0.83253  -0.63437  -0.63077  -0.58987  -0.53621
  Beta  occ. eigenvalues --   -0.51626  -0.43263
  Beta virt. eigenvalues --    0.03705   0.04488   0.04638   0.05679   0.07227
  Beta virt. eigenvalues --    0.09631   0.11264   0.12068   0.14267   0.15238
  Beta virt. eigenvalues --    0.15988   0.17060   0.17098   0.19860   0.22276

 Mulliken charges and spin densities:
               1          2
     1  C    0.420304  -0.179449
     2  O   -0.823562   1.048502
     3  C   -0.405295  -0.003508
     4  H    0.150228   0.066706
     5  H    0.150250   0.066817
     6  H    0.164861   0.000429
     7  H    0.178347   0.000086
     8  H    0.164866   0.000418
 Sum of Mulliken charges =  -0.00000   1.00000

 Dipole moment (field-independent basis, Debye):
    X=             -1.4797    Y=              1.1471    Z=              0.0002  Tot=              1.8722
                          Isotropic Fermi Contact Couplings
        Atom                 a.u.       MegaHertz       Gauss      10(-4) cm-1
     1  C(13)             -0.05213     -58.60034     -20.91006     -19.54697
     2  O(17)              0.25523    -154.72211     -55.20870     -51.60974
     3  C(13)             -0.00265      -2.98145      -1.06385      -0.99450
     4  H(1)               0.02575     115.09210      41.06772      38.39059
     5  H(1)               0.02579     115.29207      41.13908      38.45730
     6  H(1)              -0.00040      -1.77915      -0.63484      -0.59346
     7  H(1)              -0.00091      -4.07217      -1.45305      -1.35833
     8  H(1)              -0.00040      -1.77815      -0.63449      -0.59313

 Normal termination of Gaussian 16 at Tue Apr  8 22:40:28 2025.
