 Gaussian 16, Revision C.01,

 ----------------------------------------------------------------------
 #t hf aug-cc-pvdz symm=none int=(grid=ultrafine) guess=(read,tcheck) s
 table=(opt,rrhf)
 ----------------------------------------------------------------------
 -----
 title
 -----
 Symbolic Z-matrix:
 Charge =  0 Multiplicity = 1

 SCF Done:  E(RHF) =  -1223.44516443     A.U. after   15 cycles
 Normal termination of Gaussian 16 at Tue Apr  8 23:11:29 2025.
 Gaussian 16:  ES64L-G16RevC.01  3-Jul-2019

 ----------------------------------------------------------------------
 #t hf aug-cc-pvdz iop(5/13=1,5/36=2,99/5=2) pseudo=read geom=check gue
 ss=(read,tcheck) scf=(maxcycle=1)
 ----------------------------------------------------------------------
 -----
 title
 -----
 Structure from the checkpoint file:  "BDE49_expt_763_mol1.chk"
 Charge =  0 Multiplicity = 1

                         Standard orientation:
 ---------------------------------------------------------------------
 Center     Atomic      Atomic             Coordinates (Angstroms)
 Number     Number       Type             X           Y           Z
 ---------------------------------------------------------------------
      1          6           0        0.012692   -1.687812    0.000000
      2          6           0        1.200450   -0.960233    0.000000
      3          6           0        1.210457    0.426724    0.000000
      4          6           0       -1.192545   -0.994661    0.000000
      5          6           0       -1.195734    0.393767    0.000000
      6          6           0        0.000000    1.124039    0.000000
      7          8           0        0.043609    2.474845    0.000000
      8          1           0       -0.861076    2.816728    0.000000
      9          1           0        2.135896    0.986133    0.000000
     10          1           0        0.029443   -2.768756    0.000000
     11         17           0        2.729930   -1.818114    0.000000
     12         17           0       -2.714166    1.282023    0.000000
     13          1           0       -2.133044   -1.530257    0.000000
 ---------------------------------------------------------------------

 SCF Done:  E(RHF) =  -1223.90183215     A.U. after    2 cycles

 The electronic state is 1-A'.
 Alpha  occ. eigenvalues -- -105.59679-105.58236 -20.60176 -11.34448 -11.32986
 Alpha  occ. eigenvalues --  -11.32249 -11.28249 -11.26705 -11.26659 -10.64464
 Alpha  occ. eigenvalues --  -10.63031  -7.81423  -7.81054  -7.81005  -7.79998
 Alpha  occ. eigenvalues --   -7.79594  -7.79579  -1.52146  -1.20750  -1.14379
 Alpha  occ. eigenvalues --   -1.07724  -1.04905  -0.97673  -0.87931  -0.85504
 Alpha  occ. eigenvalues --   -0.75134  -0.72148  -0.69249  -0.65027  -0.62604
 Alpha  occ. eigenvalues --   -0.61188  -0.60648  -0.56836  -0.55056  -0.53719
 Alpha  occ. eigenvalues --   -0.53011  -0.49371  -0.47594  -0.46747  -0.36677
 Alpha  occ. eigenvalues --   -0.34386
 Alpha virt. eigenvalues --    0.03473   0.04128   0.04546   0.05533   0.07433
 Alpha virt. eigenvalues --    0.08144   0.09592   0.09812   0.10476   0.11666
 Alpha virt. eigenvalues --    0.12524   0.12722   0.12861   0.13419   0.13572

 Mulliken charges:
               1
     1  C    0.156656
     2  C    0.148132
     3  C    0.435663
     4  C    0.719687
     5  C   -0.812258
     6  C    1.921844
     7  O   -1.787405
     8  H    0.449803
     9  H   -0.160604
    10  H   -0.172519
    11  Cl  -0.314514
    12  Cl  -0.413475
    13  H   -0.171010
 Sum of Mulliken charges =  -0.00000

 Dipole moment (field-independent basis, Debye):
    X=             -1.4385    Y=             -0.1744    Z=              0.0000  Tot=              1.4491

 Test job not archived.
 1\1\GINC-SE082\SP\RHF\Aug-CC-pVDZ\C6H4Cl2O1\OHZDE\08-Apr-2025\0\\#t hf
  aug-cc-pvdz iop(5/13=1,5/36=2,99/5=2) pseudo=read geom=check guess=(r
 ead,tcheck) scf=(maxcycle=1)\\title\\0,1\C,0,0.968461,-1.382372,0.\C,0
 ,1.533365,-0.109178,0.\C,0,0.754359,1.038384,0.\C,0,-0.417248,-1.4958,
 0.\C,0,-1.207953,-0.354517,0.\C,0,-0.638011,0.925422,0.\O,0,-1.368833,
 2.062294,0.\H,0,-2.307715,1.830262,0.\H,0,1.19875,2.02423,0.\H,0,1.595
 802,-2.262806,0.\Cl,0,3.279525,0.052669,0.\Cl,0,-2.962258,-0.485086,0.
 \H,0,-0.887554,-2.47059,0.\\Version=ES64L-G16RevC.01\State=1-A'\HF=-12

 Normal termination of Gaussian 16 at Tue Apr  8 23:11:35 2025.
