 Gaussian 16, Revision C.01,

 ----------------------------------------------------------------------
 #t hf aug-cc-pvdz symm=none int=(grid=ultrafine) guess=(read,tcheck) s
 table=(opt,rrhf)
 ----------------------------------------------------------------------
 -----
 title
 -----
 Symbolic Z-matrix:
 Charge =  0 Multiplicity = 1

 SCF Done:  E(RHF) =  -660.885401359     A.U. after   15 cycles
 Normal termination of Gaussian 16 at Tue Apr  8 23:33:12 2025.
 Gaussian 16:  ES64L-G16RevC.01  3-Jul-2019

 ----------------------------------------------------------------------
 #t hf aug-cc-pvdz iop(5/13=1,5/36=2,99/5=2) pseudo=read geom=check gue
 ss=(read,tcheck) scf=(maxcycle=1)
 ----------------------------------------------------------------------
 -----
 title
 -----
 Structure from the checkpoint file:  "BDE49_nonexpt_1455_mol1.chk"
 Charge =  0 Multiplicity = 1

                         Standard orientation:
 ---------------------------------------------------------------------
 Center     Atomic      Atomic             Coordinates (Angstroms)
 Number     Number       Type             X           Y           Z
 ---------------------------------------------------------------------
      1          6           0        1.327458    0.004741    0.028311
      2         15           0       -0.013036   -1.291686   -0.239009
      3          6           0       -1.317109    0.051545    0.036720
      4          7           0       -0.720752    1.280917   -0.080188
      5          6           0        0.723808    1.412659   -0.108420
      6          8           0       -2.496928   -0.136098    0.216479
      7          1           0        1.102411    2.025265    0.716326
      8          1           0        1.082510    1.850439   -1.048123
      9          8           0        2.493045   -0.188094    0.238833
     10          1           0       -1.318047    2.092712    0.007600
     11          1           0        0.000051   -1.779685    1.088477
 ---------------------------------------------------------------------

 SCF Done:  E(RHF) =  -661.241636739     A.U. after    2 cycles

 The electronic state is 1-A.
 Alpha  occ. eigenvalues --  -84.31146 -20.57575 -20.53684 -15.55593 -11.38600
 Alpha  occ. eigenvalues --  -11.37782 -11.31812  -6.78419  -4.30882  -4.30745
 Alpha  occ. eigenvalues --   -4.30149  -1.51072  -1.48522  -1.27859  -1.03265
 Alpha  occ. eigenvalues --   -0.97909  -0.82680  -0.78442  -0.73654  -0.69465
 Alpha  occ. eigenvalues --   -0.66959  -0.64918  -0.63081  -0.59089  -0.57494
 Alpha  occ. eigenvalues --   -0.54490  -0.46173  -0.44337  -0.39646  -0.37816
 Alpha virt. eigenvalues --    0.02619   0.04463   0.04965   0.05197   0.06451
 Alpha virt. eigenvalues --    0.07269   0.08087   0.09166   0.09970   0.11365
 Alpha virt. eigenvalues --    0.12535   0.13012   0.13418   0.13666   0.14163

 Mulliken charges:
               1
     1  C    0.586550
     2  P    0.511148
     3  C    0.118255
     4  N    0.673873
     5  C   -0.427904
     6  O   -1.160300
     7  H    0.145954
     8  H    0.192038
     9  O   -1.220497
    10  H    0.042973
    11  H    0.537911
 Sum of Mulliken charges =   0.00000

 Dipole moment (field-independent basis, Debye):
    X=              0.8553    Y=              1.8737    Z=             -0.3867  Tot=              2.0956

 Test job not archived.
 1\1\GINC-SE070\SP\RHF\Aug-CC-pVDZ\C3H4N1O2P1\OHZDE\08-Apr-2025\0\\#t h
 f aug-cc-pvdz iop(5/13=1,5/36=2,99/5=2) pseudo=read geom=check guess=(
 read,tcheck) scf=(maxcycle=1)\\title\\0,1\C,0,1.327458,0.004741,0.0283
 11\P,0,-0.013036,-1.291686,-0.239009\C,0,-1.317109,0.051545,0.03672\N,
 0,-0.720752,1.280917,-0.080188\C,0,0.723808,1.412659,-0.10842\O,0,-2.4
 96928,-0.136098,0.216479\H,0,1.102411,2.025265,0.716326\H,0,1.08251,1.
 850439,-1.048123\O,0,2.493045,-0.188094,0.238833\H,0,-1.318047,2.09271
 2,0.0076\H,0,0.000051,-1.779685,1.088477\\Version=ES64L-G16RevC.01\Sta

 Normal termination of Gaussian 16 at Tue Apr  8 23:33:16 2025.
