 Gaussian 16, Revision C.01,

 ----------------------------------------------------------------------
 #t hf aug-cc-pvdz symm=none int=(grid=ultrafine) guess=(read,tcheck) s
 table=(opt,rrhf)
 ----------------------------------------------------------------------
 -----
 title
 -----
 Symbolic Z-matrix:
 Charge =  0 Multiplicity = 1

 SCF Done:  E(RHF) =  -533.849128786     A.U. after   16 cycles
 Normal termination of Gaussian 16 at Wed Apr  9 00:06:30 2025.
 Gaussian 16:  ES64L-G16RevC.01  3-Jul-2019

 ----------------------------------------------------------------------
 #t hf aug-cc-pvdz iop(5/13=1,5/36=2,99/5=2) pseudo=read geom=check gue
 ss=(read,tcheck) scf=(maxcycle=1)
 ----------------------------------------------------------------------
 -----
 title
 -----
 Structure from the checkpoint file:  "BDE49_nonexpt_2241_mol1.chk"
 Charge =  0 Multiplicity = 1

                         Standard orientation:
 ---------------------------------------------------------------------
 Center     Atomic      Atomic             Coordinates (Angstroms)
 Number     Number       Type             X           Y           Z
 ---------------------------------------------------------------------
      1         14           0        1.003026   -0.588500    0.090606
      2          8           0       -0.546789   -0.261625   -0.520151
      3          7           0       -1.563187    0.129823    0.443284
      4          8           0       -2.572076    0.361528   -0.083367
      5          6           0        2.086427    0.924943   -0.023424
      6          1           0        2.154011    1.285577   -1.053045
      7          1           0        3.098641    0.687529    0.319807
      8          1           0        1.700493    1.736306    0.599588
      9          1           0        1.514483   -1.682202   -0.759474
     10          1           0        0.864677   -1.045850    1.490333
 ---------------------------------------------------------------------

 SCF Done:  E(RHF) =  -534.119652397     A.U. after    2 cycles

 The electronic state is 1-A.
 Alpha  occ. eigenvalues --  -69.56869 -20.65347 -20.58757 -15.73635 -11.23118
 Alpha  occ. eigenvalues --   -6.23520  -3.98991  -3.98848  -3.98814  -1.68703
 Alpha  occ. eigenvalues --   -1.45847  -0.98174  -0.96156  -0.79921  -0.75451
 Alpha  occ. eigenvalues --   -0.70061  -0.68712  -0.58812  -0.58144  -0.54286
 Alpha  occ. eigenvalues --   -0.53479  -0.49534  -0.45859  -0.45298
 Alpha virt. eigenvalues --    0.03487   0.04521   0.04992   0.05037   0.06172
 Alpha virt. eigenvalues --    0.07632   0.08126   0.08233   0.10281   0.12275
 Alpha virt. eigenvalues --    0.14564   0.15030   0.15507   0.15763   0.16476

 Mulliken charges:
               1
     1  Si   1.850708
     2  O   -1.615604
     3  N    1.542914
     4  O   -0.867649
     5  C   -0.625800
     6  H    0.071087
     7  H    0.006907
     8  H    0.067655
     9  H   -0.220105
    10  H   -0.210112
 Sum of Mulliken charges =  -0.00000

 Dipole moment (field-independent basis, Debye):
    X=              2.0129    Y=              0.2565    Z=              0.3450  Tot=              2.0583

 Test job not archived.
 1\1\GINC-SE424\SP\RHF\Aug-CC-pVDZ\C1H5N1O2Si1\OHZDE\09-Apr-2025\0\\#t
 hf aug-cc-pvdz iop(5/13=1,5/36=2,99/5=2) pseudo=read geom=check guess=
 (read,tcheck) scf=(maxcycle=1)\\title\\0,1\Si,0,1.003026,-0.5885,0.090
 606\O,0,-0.546789,-0.261625,-0.520151\N,0,-1.563187,0.129823,0.443284\
 O,0,-2.572076,0.361528,-0.083367\C,0,2.086427,0.924943,-0.023424\H,0,2
 .154011,1.285577,-1.053045\H,0,3.098641,0.687529,0.319807\H,0,1.700493
 ,1.736306,0.599588\H,0,1.514483,-1.682202,-0.759474\H,0,0.864677,-1.04
 585,1.490333\\Version=ES64L-G16RevC.01\State=1-A\HF=-534.1196524\RMSD=

 Normal termination of Gaussian 16 at Wed Apr  9 00:06:33 2025.
