 Gaussian 16, Revision C.01,

 ----------------------------------------------------------------------
 #t hf aug-cc-pvdz symm=none int=(grid=ultrafine) guess=(read,tcheck) s
 table=(opt,rrhf)
 ----------------------------------------------------------------------
 -----
 title
 -----
 Symbolic Z-matrix:
 Charge =  0 Multiplicity = 1

 SCF Done:  E(RHF) =  -463.879183932     A.U. after   13 cycles
 Normal termination of Gaussian 16 at Tue Apr  8 23:55:17 2025.
 Gaussian 16:  ES64L-G16RevC.01  3-Jul-2019

 ----------------------------------------------------------------------
 #t hf aug-cc-pvdz iop(5/13=1,5/36=2,99/5=2) pseudo=read geom=check gue
 ss=(read,tcheck) scf=(maxcycle=1)
 ----------------------------------------------------------------------
 -----
 title
 -----
 Structure from the checkpoint file:  "BDE49_nonexpt_1993_mol1.chk"
 Charge =  0 Multiplicity = 1

                         Standard orientation:
 ---------------------------------------------------------------------
 Center     Atomic      Atomic             Coordinates (Angstroms)
 Number     Number       Type             X           Y           Z
 ---------------------------------------------------------------------
      1         14           0       -0.078564    0.321754   -0.000074
      2          9           0        1.357125   -0.352948    0.000057
      3          8           0       -1.410591   -0.386702    0.000062
      4          1           0        0.170498    1.765593    0.000017
 ---------------------------------------------------------------------

 SCF Done:  E(RHF) =  -464.069213180     A.U. after    2 cycles

 The electronic state is 1-A.
 Alpha  occ. eigenvalues --  -69.64492 -26.50860 -20.52158  -6.31120  -4.06500
 Alpha  occ. eigenvalues --   -4.06435  -4.06184  -1.62126  -1.36059  -0.79486
 Alpha  occ. eigenvalues --   -0.70169  -0.68796  -0.63645  -0.53904  -0.47228
 Alpha  occ. eigenvalues --   -0.46995
 Alpha virt. eigenvalues --    0.02787   0.04145   0.05039   0.06070   0.08207
 Alpha virt. eigenvalues --    0.09304   0.16219   0.19218   0.21033   0.22752
 Alpha virt. eigenvalues --    0.23247   0.25594   0.27142   0.28939   0.29430

 Mulliken charges:
               1
     1  Si   2.144292
     2  F   -0.731560
     3  O   -1.265336
     4  H   -0.147396
 Sum of Mulliken charges =  -0.00000

 Dipole moment (field-independent basis, Debye):
    X=              2.5303    Y=              2.6188    Z=             -0.0007  Tot=              3.6415

 Test job not archived.
 1\1\GINC-SE460\SP\RHF\Aug-CC-pVDZ\F1H1O1Si1\OHZDE\08-Apr-2025\0\\#t hf
  aug-cc-pvdz iop(5/13=1,5/36=2,99/5=2) pseudo=read geom=check guess=(r
 ead,tcheck) scf=(maxcycle=1)\\title\\0,1\Si,0,0.078564,0.321754,0.0000
 74\F,0,-1.357125,-0.352948,-0.000057\O,0,1.410591,-0.386702,-0.000062\
 H,0,-0.170497,1.765593,-0.000017\\Version=ES64L-G16RevC.01\State=1-A\H
 F=-464.0692132\RMSD=5.081e-03\Dipole=-0.9954933,1.0302973,0.0002894\Qu
 adrupole=-4.5399471,1.4325643,3.1073828,0.8981521,0.0000399,-0.0000064
 \PG=C01 [X(F1H1O1Si1)]\\@

 Normal termination of Gaussian 16 at Tue Apr  8 23:55:19 2025.
