 Gaussian 16, Revision C.01,

 ----------------------------------------------------------------------
 #t hf aug-cc-pvdz symm=none int=(grid=ultrafine) guess=(read,tcheck) s
 table=(opt,rrhf)
 ----------------------------------------------------------------------
 -----
 title
 -----
 Symbolic Z-matrix:
 Charge =  0 Multiplicity = 1

 SCF Done:  E(RHF) =  -571.627300386     A.U. after   14 cycles

 1\1\GINC-SE086\Stability\RHF\Aug-CC-pVDZ\C7H12O4\OHZDE\08-Apr-2025\0\\
 #t hf aug-cc-pvdz symm=none int=(grid=ultrafine) guess=(read,tcheck) s
 table=(opt,rrhf)\\title\\0,1\C,0,1.113819,-1.160727,-0.254434\O,0,1.72
 1245,-1.657503,-1.165971\O,0,1.438497,0.011344,0.324586\C,0,2.588906,0
 .702127,-0.226351\C,0,-0.096239,-1.778367,0.427129\C,0,-1.276609,-0.82
 9306,0.549352\O,0,-1.869753,-0.596202,1.569919\O,0,-1.587834,-0.309963
 ,-0.654965\C,0,-2.698881,0.623601,-0.702308\C,0,2.796325,1.961485,0.58
 8742\H,0,2.392062,0.918492,-1.278851\H,0,3.451252,0.033509,-0.179283\H

 Normal termination of Gaussian 16 at Tue Apr  8 23:05:44 2025.
 Gaussian 16:  ES64L-G16RevC.01  3-Jul-2019

 ----------------------------------------------------------------------
 #t hf aug-cc-pvdz iop(5/13=1,5/36=2,99/5=2) pseudo=read geom=check gue
 ss=(read,tcheck) scf=(maxcycle=1)
 ----------------------------------------------------------------------
 -----
 title
 -----
 Structure from the checkpoint file:  "BDE49_expt_273_mol1.chk"
 Charge =  0 Multiplicity = 1

                         Standard orientation:
 ---------------------------------------------------------------------
 Center     Atomic      Atomic             Coordinates (Angstroms)
 Number     Number       Type             X           Y           Z
 ---------------------------------------------------------------------
      1          6           0        1.113819   -1.160727   -0.254434
      2          8           0        1.721245   -1.657503   -1.165971
      3          8           0        1.438497    0.011344    0.324586
      4          6           0        2.588906    0.702127   -0.226351
      5          6           0       -0.096239   -1.778367    0.427129
      6          6           0       -1.276609   -0.829306    0.549352
      7          8           0       -1.869753   -0.596202    1.569919
      8          8           0       -1.587834   -0.309963   -0.654965
      9          6           0       -2.698881    0.623601   -0.702308
     10          6           0        2.796325    1.961485    0.588742
     11          1           0        2.392062    0.918492   -1.278851
     12          1           0        3.451252    0.033509   -0.179283
     13          1           0        1.921334    2.612404    0.532224
     14          1           0        3.660045    2.511663    0.206400
     15          1           0        2.978826    1.720190    1.638026
     16          6           0       -2.239434    2.039396   -0.398610
     17          1           0       -3.460768    0.293160    0.004343
     18          1           0       -3.079650    0.533584   -1.719557
     19          1           0       -1.870530    2.113521    0.625606
     20          1           0       -3.077865    2.732462   -0.512146
     21          1           0       -1.446015    2.344783   -1.084426
     22          1           0        0.175476   -2.093107    1.435469
     23          1           0       -0.388722   -2.651323   -0.157469
 ---------------------------------------------------------------------

 SCF Done:  E(RHF) =  -572.206700552     A.U. after    2 cycles

 The electronic state is 1-A.
 Alpha  occ. eigenvalues --  -20.59447 -20.59401 -20.54270 -20.54255 -11.40138
 Alpha  occ. eigenvalues --  -11.40046 -11.30380 -11.30311 -11.27383 -11.24048
 Alpha  occ. eigenvalues --  -11.23709  -1.55134  -1.54439  -1.45874  -1.45837
 Alpha  occ. eigenvalues --   -1.09103  -1.04757  -1.02049  -0.89774  -0.87524
 Alpha  occ. eigenvalues --   -0.80619  -0.78053  -0.73998  -0.70460  -0.69477
 Alpha  occ. eigenvalues --   -0.68703  -0.67450  -0.64940  -0.61655  -0.61629
 Alpha  occ. eigenvalues --   -0.58139  -0.57410  -0.57234  -0.55659  -0.53981
 Alpha  occ. eigenvalues --   -0.53495  -0.52206  -0.51616  -0.50569  -0.46635
 Alpha  occ. eigenvalues --   -0.46110  -0.45633  -0.43533
 Alpha virt. eigenvalues --    0.03404   0.03575   0.04032   0.04109   0.05115
 Alpha virt. eigenvalues --    0.05485   0.05715   0.06584   0.06932   0.08245
 Alpha virt. eigenvalues --    0.08356   0.09325   0.10288   0.12048   0.12170

 Mulliken charges:
               1
     1  C    2.186475
     2  O   -1.268465
     3  O   -1.348929
     4  C    0.432246
     5  C   -1.116119
     6  C    2.147020
     7  O   -1.278396
     8  O   -1.360600
     9  C    0.466131
    10  C   -0.434807
    11  H    0.140325
    12  H    0.117738
    13  H    0.169217
    14  H    0.148201
    15  H    0.185227
    16  C   -0.468878
    17  H    0.231711
    18  H   -0.024765
    19  H    0.165579
    20  H    0.142257
    21  H    0.197513
    22  H    0.295360
    23  H    0.275959
 Sum of Mulliken charges =   0.00000

 Dipole moment (field-independent basis, Debye):
    X=              0.0532    Y=              1.9515    Z=             -0.4410  Tot=              2.0015

 Test job not archived.
 1\1\GINC-SE086\SP\RHF\Aug-CC-pVDZ\C7H12O4\OHZDE\08-Apr-2025\0\\#t hf a
 ug-cc-pvdz iop(5/13=1,5/36=2,99/5=2) pseudo=read geom=check guess=(rea
 d,tcheck) scf=(maxcycle=1)\\title\\0,1\C,0,1.113819,-1.160727,-0.25443
 4\O,0,1.721245,-1.657503,-1.165971\O,0,1.438497,0.011344,0.324586\C,0,
 2.588906,0.702127,-0.226351\C,0,-0.096239,-1.778367,0.427129\C,0,-1.27
 6609,-0.829306,0.549352\O,0,-1.869753,-0.596202,1.569919\O,0,-1.587834
 ,-0.309963,-0.654965\C,0,-2.698881,0.623601,-0.702308\C,0,2.796325,1.9
 61485,0.588742\H,0,2.392062,0.918492,-1.278851\H,0,3.451252,0.033509,-

 Normal termination of Gaussian 16 at Tue Apr  8 23:06:00 2025.
