 Gaussian 16, Revision C.01,

 ----------------------------------------------------------------------
 #t hf aug-cc-pvdz symm=none int=(grid=ultrafine) guess=(read,tcheck) s
 table=(opt,rrhf)
 ----------------------------------------------------------------------
 -----
 title
 -----
 Symbolic Z-matrix:
 Charge =  0 Multiplicity = 1

 SCF Done:  E(RHF) =  -1406.90058740     A.U. after   15 cycles
 Normal termination of Gaussian 16 at Wed Apr  9 00:18:42 2025.
 Gaussian 16:  ES64L-G16RevC.01  3-Jul-2019

 ----------------------------------------------------------------------
 #t hf aug-cc-pvdz iop(5/13=1,5/36=2,99/5=2) pseudo=read geom=check gue
 ss=(read,tcheck) scf=(maxcycle=1)
 ----------------------------------------------------------------------
 -----
 title
 -----
 Structure from the checkpoint file:  "BDE49_nonexpt_2577_mol1.chk"
 Charge =  0 Multiplicity = 1

                         Standard orientation:
 ---------------------------------------------------------------------
 Center     Atomic      Atomic             Coordinates (Angstroms)
 Number     Number       Type             X           Y           Z
 ---------------------------------------------------------------------
      1         17           0        2.429767    0.425316    0.000046
      2         16           0        0.889259   -1.005251   -0.000016
      3          6           0       -0.610739   -0.125367   -0.000082
      4         16           0       -1.921466   -1.121090    0.000030
      5          8           0       -0.540751    1.185017   -0.000058
      6          6           0       -1.773088    1.943403   -0.000009
      7          1           0       -1.455691    2.982575    0.000003
      8          1           0       -2.353015    1.710066    0.893017
      9          1           0       -2.353062    1.710100   -0.893014
 ---------------------------------------------------------------------

 SCF Done:  E(RHF) =  -1407.24639124     A.U. after    2 cycles

 The electronic state is 1-A.
 Alpha  occ. eigenvalues -- -105.59620 -94.04664 -93.94035 -20.64179 -11.43477
 Alpha  occ. eigenvalues --  -11.32725 -10.64280  -8.32380  -8.22336  -7.81217
 Alpha  occ. eigenvalues --   -7.80770  -7.80738  -6.30154  -6.29894  -6.29618
 Alpha  occ. eigenvalues --   -6.20194  -6.19869  -6.19774  -1.57401  -1.16970
 Alpha  occ. eigenvalues --   -1.08411  -1.00944  -0.95844  -0.80295  -0.70983
 Alpha  occ. eigenvalues --   -0.70112  -0.66637  -0.59563  -0.57479  -0.54051
 Alpha  occ. eigenvalues --   -0.52086  -0.52079  -0.47635  -0.43975  -0.37557
 Alpha  occ. eigenvalues --   -0.36622
 Alpha virt. eigenvalues --    0.03181   0.03771   0.05282   0.05520   0.06024
 Alpha virt. eigenvalues --    0.06850   0.08589   0.09063   0.11351   0.12458
 Alpha virt. eigenvalues --    0.13336   0.13365   0.14732   0.15369   0.16110

 Mulliken charges:
               1
     1  Cl  -0.299839
     2  S    0.831513
     3  C   -0.133902
     4  S    0.096712
     5  O   -1.094869
     6  C    0.169276
     7  H    0.021710
     8  H    0.204705
     9  H    0.204694
 Sum of Mulliken charges =  -0.00000

 Dipole moment (field-independent basis, Debye):
    X=             -0.9737    Y=              2.6204    Z=             -0.0000  Tot=              2.7955

 Test job not archived.
 1\1\GINC-SE253\SP\RHF\Aug-CC-pVDZ\C2H3Cl1O1S2\OHZDE\09-Apr-2025\0\\#t
 hf aug-cc-pvdz iop(5/13=1,5/36=2,99/5=2) pseudo=read geom=check guess=
 (read,tcheck) scf=(maxcycle=1)\\title\\0,1\Cl,0,2.429767,0.425316,0.00
 0046\S,0,0.889259,-1.005251,-0.000016\C,0,-0.610739,-0.125367,-0.00008
 2\S,0,-1.921466,-1.12109,0.00003\O,0,-0.540751,1.185017,-0.000058\C,0,
 -1.773088,1.943403,-0.000009\H,0,-1.455691,2.982575,0.000003\H,0,-2.35
 3015,1.710066,0.893017\H,0,-2.353062,1.7101,-0.893014\\Version=ES64L-G
 16RevC.01\State=1-A\HF=-1407.2463912\RMSD=6.235e-03\Dipole=-0.3830815,

 Normal termination of Gaussian 16 at Wed Apr  9 00:18:46 2025.
