 Gaussian 16, Revision C.01,

 ----------------------------------------------------------------------
 #t hf aug-cc-pvdz symm=none int=(grid=ultrafine) guess=(read,tcheck) s
 table=(opt,rrhf)
 ----------------------------------------------------------------------
 -----
 title
 -----
 Symbolic Z-matrix:
 Charge =  0 Multiplicity = 1

 SCF Done:  E(RHF) =  -761.574504716     A.U. after   17 cycles
 Normal termination of Gaussian 16 at Tue Apr  8 22:55:19 2025.
 Gaussian 16:  ES64L-G16RevC.01  3-Jul-2019

 ----------------------------------------------------------------------
 #t hf aug-cc-pvdz iop(5/13=1,5/36=2,99/5=2) pseudo=read geom=check gue
 ss=(read,tcheck) scf=(maxcycle=1)
 ----------------------------------------------------------------------
 -----
 title
 -----
 Structure from the checkpoint file:  "BDE49_expt_1821_mol1.chk"
 Charge =  0 Multiplicity = 1

                         Standard orientation:
 ---------------------------------------------------------------------
 Center     Atomic      Atomic             Coordinates (Angstroms)
 Number     Number       Type             X           Y           Z
 ---------------------------------------------------------------------
      1          7           0       -2.689058    1.385728   -0.262479
      2          8           0       -2.291258    1.666721    0.811226
      3         16           0       -2.458754   -0.375899   -0.815274
      4          6           0       -1.623163   -1.134285    0.610309
      5          6           0       -0.131935   -1.429535    0.399202
      6          1           0       -2.179429   -2.043245    0.847401
      7          1           0       -1.768049   -0.425661    1.435555
      8          6           0        0.748018   -0.181706    0.275644
      9          1           0       -0.006417   -2.061386   -0.486959
     10          1           0        0.205891   -2.028764    1.254046
     11          6           0        2.228051   -0.508927    0.049541
     12          1           0        0.642205    0.425210    1.182966
     13          1           0        0.384473    0.437385   -0.552785
     14          6           0        3.117136    0.734291   -0.068542
     15          1           0        2.330643   -1.113354   -0.861006
     16          1           0        2.593134   -1.136239    0.873294
     17          6           0        4.594221    0.401420   -0.296664
     18          1           0        3.014753    1.338136    0.841118
     19          1           0        2.752231    1.360734   -0.891237
     20          1           0        4.997342   -0.195749    0.527303
     21          1           0        5.200005    1.308068   -0.376236
     22          1           0        4.732789   -0.172161   -1.218481
 ---------------------------------------------------------------------

 SCF Done:  E(RHF) =  -762.013026072     A.U. after    2 cycles

 The electronic state is 1-A.
 Alpha  occ. eigenvalues --  -93.98086 -20.64593 -15.69293 -11.27829 -11.24501
 Alpha  occ. eigenvalues --  -11.23104 -11.22888 -11.22829 -11.22357  -8.26050
 Alpha  occ. eigenvalues --   -6.23820  -6.23624  -6.23430  -1.64491  -1.12349
 Alpha  occ. eigenvalues --   -1.08403  -1.03989  -0.98209  -0.91713  -0.85779
 Alpha  occ. eigenvalues --   -0.80279  -0.79442  -0.72609  -0.71367  -0.66144
 Alpha  occ. eigenvalues --   -0.65532  -0.62599  -0.61382  -0.59757  -0.56430
 Alpha  occ. eigenvalues --   -0.55495  -0.54570  -0.50479  -0.49798  -0.47701
 Alpha  occ. eigenvalues --   -0.47208  -0.46713  -0.46570  -0.40306  -0.38217
 Alpha virt. eigenvalues --    0.03101   0.03568   0.03658   0.04256   0.05131
 Alpha virt. eigenvalues --    0.05427   0.05866   0.06320   0.06704   0.07939
 Alpha virt. eigenvalues --    0.08324   0.08624   0.09380   0.10000   0.11079

 Mulliken charges:
               1
     1  N    0.641343
     2  O   -0.957560
     3  S    0.429832
     4  C   -0.484063
     5  C   -0.268690
     6  H    0.146101
     7  H    0.304986
     8  C   -0.201073
     9  H    0.112404
    10  H    0.129877
    11  C   -0.429326
    12  H    0.126977
    13  H    0.173681
    14  C   -0.205900
    15  H    0.098570
    16  H    0.122758
    17  C   -0.418116
    18  H    0.115521
    19  H    0.119686
    20  H    0.162015
    21  H    0.114944
    22  H    0.166031
 Sum of Mulliken charges =  -0.00000

 Dipole moment (field-independent basis, Debye):
    X=              1.4207    Y=             -1.9120    Z=              1.1828  Tot=              2.6595

 Test job not archived.
 1\1\GINC-SE331\SP\RHF\Aug-CC-pVDZ\C6H13N1O1S1\OHZDE\08-Apr-2025\0\\#t
 hf aug-cc-pvdz iop(5/13=1,5/36=2,99/5=2) pseudo=read geom=check guess=
 (read,tcheck) scf=(maxcycle=1)\\title\\0,1\N,0,-2.689058,1.385728,-0.2
 62479\O,0,-2.291258,1.666721,0.811226\S,0,-2.458754,-0.375899,-0.81527
 4\C,0,-1.623163,-1.134285,0.610309\C,0,-0.131935,-1.429535,0.399202\H,
 0,-2.179429,-2.043245,0.847401\H,0,-1.768049,-0.425661,1.435555\C,0,0.
 748018,-0.181706,0.275644\H,0,-0.006417,-2.061386,-0.486959\H,0,0.2058
 91,-2.028764,1.254046\C,0,2.228051,-0.508927,0.049541\H,0,0.642205,0.4

 Normal termination of Gaussian 16 at Tue Apr  8 22:55:31 2025.
