 Gaussian 16, Revision C.01,

 ----------------------------------------------------------------------
 #t hf aug-cc-pvdz symm=none int=(grid=ultrafine) guess=(read,tcheck) s
 table=(opt,rrhf)
 ----------------------------------------------------------------------
 -----
 title
 -----
 Symbolic Z-matrix:
 Charge =  0 Multiplicity = 1

 SCF Done:  E(RHF) =  -899.457408028     A.U. after   16 cycles
 Normal termination of Gaussian 16 at Wed Apr  9 00:50:44 2025.
 Gaussian 16:  ES64L-G16RevC.01  3-Jul-2019

 ----------------------------------------------------------------------
 #t hf aug-cc-pvdz iop(5/13=1,5/36=2,99/5=2) pseudo=read geom=check gue
 ss=(read,tcheck) scf=(maxcycle=1)
 ----------------------------------------------------------------------
 -----
 title
 -----
 Structure from the checkpoint file:  "BDE49_nonexpt_831_mol1.chk"
 Charge =  0 Multiplicity = 1

                         Standard orientation:
 ---------------------------------------------------------------------
 Center     Atomic      Atomic             Coordinates (Angstroms)
 Number     Number       Type             X           Y           Z
 ---------------------------------------------------------------------
      1          6           0        1.557715    2.280820    0.572782
      2          6           0        0.211351    2.185028    0.221793
      3          6           0        2.396035    1.179163    0.443484
      4          6           0        1.852367   -0.005676   -0.038643
      5          6           0        0.512850   -0.117800   -0.393611
      6          6           0       -0.339402    0.989574   -0.270115
      7          1           0        0.163110   -1.070885   -0.772089
      8          1           0        1.956002    3.216629    0.946982
      9          1           0       -0.422035    3.059060    0.329671
     10          5           0       -3.034497   -0.684527    0.293334
     11          8           0       -2.380450   -1.426836    1.236809
     12          8           0       -4.333260   -0.976553    0.021844
     13          1           0        3.444306    1.218281    0.704179
     14          7           0        2.731985   -1.191086   -0.177982
     15          8           0        3.914928   -1.053362    0.099609
     16          8           0        2.219425   -2.234597   -0.559309
     17          1           0       -4.665913   -1.711138    0.554492
     18          1           0       -1.468586   -1.160419    1.385901
     19         14           0       -2.170995    0.848793   -0.739206
     20          1           0       -2.799493    2.155796   -0.422694
     21          1           0       -2.275499    0.633954   -2.204111
 ---------------------------------------------------------------------

 SCF Done:  E(RHF) =  -900.088576082     A.U. after    2 cycles

 The electronic state is 1-A.
 Alpha  occ. eigenvalues --  -69.53221 -20.59595 -20.59549 -20.57586 -20.56840
 Alpha  occ. eigenvalues --  -15.79854 -11.32281 -11.29081 -11.28954 -11.28612
 Alpha  occ. eigenvalues --  -11.27797 -11.26500  -7.65498  -6.20454  -3.95826
 Alpha  occ. eigenvalues --   -3.95800  -3.95753  -1.67565  -1.51266  -1.49573
 Alpha  occ. eigenvalues --   -1.45271  -1.20903  -1.11187  -1.05890  -0.98683
 Alpha  occ. eigenvalues --   -0.88090  -0.85454  -0.81503  -0.79104  -0.75793
 Alpha  occ. eigenvalues --   -0.75375  -0.75113  -0.72910  -0.71430  -0.68132
 Alpha  occ. eigenvalues --   -0.65250  -0.62454  -0.59908  -0.58306  -0.57122
 Alpha  occ. eigenvalues --   -0.56268  -0.55286  -0.50958  -0.50490  -0.49570
 Alpha  occ. eigenvalues --   -0.49259  -0.48587  -0.45685  -0.44262  -0.39113
 Alpha  occ. eigenvalues --   -0.37834
 Alpha virt. eigenvalues --    0.01695   0.02525   0.03193   0.03586   0.04069
 Alpha virt. eigenvalues --    0.04800   0.05509   0.06221   0.06304   0.06978
 Alpha virt. eigenvalues --    0.07492   0.07916   0.08520   0.09362   0.09911

 Mulliken charges:
               1
     1  C    0.574932
     2  C   -0.133769
     3  C    0.413154
     4  C   -0.393618
     5  C    0.711984
     6  C   -0.288501
     7  H   -0.316657
     8  H   -0.219050
     9  H   -0.324824
    10  B    1.755101
    11  O   -1.464065
    12  O   -1.338661
    13  H   -0.197859
    14  N    3.071892
    15  O   -1.516738
    16  O   -1.481453
    17  H    0.572013
    18  H    0.656266
    19  Si   0.156888
    20  H   -0.129158
    21  H   -0.107876
 Sum of Mulliken charges =  -0.00000

 Dipole moment (field-independent basis, Debye):
    X=             -1.6670    Y=              3.3482    Z=              1.4466  Tot=              4.0103

 Test job not archived.
 1\1\GINC-SE322\SP\RHF\Aug-CC-pVDZ\C6H8B1N1O4Si1\OHZDE\09-Apr-2025\0\\#
 t hf aug-cc-pvdz iop(5/13=1,5/36=2,99/5=2) pseudo=read geom=check gues
 s=(read,tcheck) scf=(maxcycle=1)\\title\\0,1\C,0,1.557715,2.28082,0.57
 2782\C,0,0.211351,2.185028,0.221793\C,0,2.396035,1.179163,0.443484\C,0
 ,1.852367,-0.005676,-0.038643\C,0,0.51285,-0.1178,-0.393611\C,0,-0.339
 402,0.989574,-0.270115\H,0,0.16311,-1.070885,-0.772089\H,0,1.956002,3.
 216629,0.946982\H,0,-0.422035,3.05906,0.329671\B,0,-3.034497,-0.684527
 ,0.293334\O,0,-2.38045,-1.426836,1.236809\O,0,-4.33326,-0.976553,0.021

 Normal termination of Gaussian 16 at Wed Apr  9 00:51:01 2025.
