 Gaussian 16, Revision C.01,

 ----------------------------------------------------------------------
 #t hf aug-cc-pvdz symm=none int=(grid=ultrafine) guess=(read,tcheck) s
 table=opt
 ----------------------------------------------------------------------
 -----
 title
 -----
 Symbolic Z-matrix:
 Charge =  0 Multiplicity = 2

 SCF Done:  E(UHF) =  -429.872540219     A.U. after   16 cycles
 Normal termination of Gaussian 16 at Wed Apr  9 00:13:37 2025.
 Gaussian 16:  ES64L-G16RevC.01  3-Jul-2019

 ----------------------------------------------------------------------
 #t hf aug-cc-pvdz iop(5/13=1,5/36=2,99/5=2) pseudo=read geom=check gue
 ss=(read,tcheck) scf=(maxcycle=1)
 ----------------------------------------------------------------------
 -----
 title
 -----
 Structure from the checkpoint file:  "BDE49_nonexpt_2456_mol2.chk"
 Charge =  0 Multiplicity = 2

                         Standard orientation:
 ---------------------------------------------------------------------
 Center     Atomic      Atomic             Coordinates (Angstroms)
 Number     Number       Type             X           Y           Z
 ---------------------------------------------------------------------
      1         14           0        1.492422   -0.167764   -0.063428
      2          5           0       -0.501638    0.112839    0.007254
      3          1           0        2.076151   -1.461817    0.361079
      4          1           0        2.383143    0.957227    0.326771
      5          8           0       -1.020641    1.374880    0.008556
      6          6           0       -1.508410   -1.093812    0.005232
      7          1           0       -0.368041    2.081301    0.022801
      8          1           0       -1.425055   -1.666324    0.937094
      9          1           0       -1.291511   -1.803226   -0.800879
     10          1           0       -2.544823   -0.758831   -0.094988
 ---------------------------------------------------------------------

 SCF Done:  E(UHF) =  -430.047555355     A.U. after    2 cycles

 The electronic state is 2-A.
 Alpha  occ. eigenvalues --  -69.52152 -20.56993 -11.20641  -7.62635  -6.19614
 Alpha  occ. eigenvalues --   -3.95651  -3.94700  -3.94637  -1.46871  -0.95763
 Alpha  occ. eigenvalues --   -0.76618  -0.74636  -0.61320  -0.56967  -0.56486
 Alpha  occ. eigenvalues --   -0.53121  -0.52600  -0.49068  -0.41981  -0.31402
 Alpha virt. eigenvalues --    0.03402   0.04275   0.04556   0.05026   0.06376
 Alpha virt. eigenvalues --    0.07437   0.07927   0.08139   0.08785   0.09644
 Alpha virt. eigenvalues --    0.10377   0.10815   0.11510   0.13045   0.16292

  Beta  occ. eigenvalues --  -69.51632 -20.56894 -11.20644  -7.62695  -6.18876
  Beta  occ. eigenvalues --   -3.94313  -3.94278  -3.93465  -1.46634  -0.95702
  Beta  occ. eigenvalues --   -0.75758  -0.71074  -0.60759  -0.56523  -0.56354
  Beta  occ. eigenvalues --   -0.53058  -0.51941  -0.48880  -0.41256
  Beta virt. eigenvalues --    0.01738   0.03533   0.04392   0.04587   0.05871
  Beta virt. eigenvalues --    0.06457   0.07548   0.08177   0.09261   0.09485
  Beta virt. eigenvalues --    0.09915   0.10490   0.11199   0.11805   0.16027

 Mulliken charges and spin densities:
               1          2
     1  Si   0.499630   1.073623
     2  B    0.909232  -0.000196
     3  H   -0.147483  -0.054246
     4  H   -0.197264  -0.055513
     5  O   -1.334512   0.037615
     6  C   -0.437555   0.001167
     7  H    0.647647  -0.003037
     8  H    0.068397   0.003585
     9  H    0.053276  -0.002277
    10  H   -0.061369  -0.000722
 Sum of Mulliken charges =  -0.00000   1.00000

 Dipole moment (field-independent basis, Debye):
    X=              0.4702    Y=              0.3815    Z=              0.2230  Tot=              0.6452
                          Isotropic Fermi Contact Couplings
        Atom                 a.u.       MegaHertz       Gauss      10(-4) cm-1
     1  Si(29)             0.34878    -309.96925    -110.60474    -103.39461
     2  B(11)             -0.01033     -14.81645      -5.28688      -4.94223
     3  H(1)              -0.01051     -46.97741     -16.76271     -15.66998
     4  H(1)              -0.01001     -44.74503     -15.96614     -14.92533
     5  O(17)              0.00955      -5.78939      -2.06580      -1.93113
     6  C(13)             -0.00199      -2.23318      -0.79685      -0.74491
     7  H(1)              -0.00062      -2.76606      -0.98700      -0.92266
     8  H(1)               0.00133       5.96648       2.12899       1.99020

 1\1\GINC-SE334\SP\UHF\Aug-CC-pVDZ\C1H6B1O1Si1(2)\OHZDE\09-Apr-2025\0\\
 #t hf aug-cc-pvdz iop(5/13=1,5/36=2,99/5=2) pseudo=read geom=check gue
 ss=(read,tcheck) scf=(maxcycle=1)\\title\\0,2\Si,0,1.492422,-0.167764,
 -0.063428\B,0,-0.501638,0.112839,0.007254\H,0,2.076151,-1.461817,0.361
 079\H,0,2.383143,0.957226,0.326771\O,0,-1.020641,1.37488,0.008556\C,0,
 -1.50841,-1.093812,0.005232\H,0,-0.368041,2.081301,0.022801\H,0,-1.425
 055,-1.666324,0.937094\H,0,-1.291511,-1.803226,-0.800879\H,0,-2.544823
 ,-0.758831,-0.094988\\Version=ES64L-G16RevC.01\State=2-A\HF=-430.04755

 Normal termination of Gaussian 16 at Wed Apr  9 00:13:40 2025.
