 Gaussian 16, Revision C.01,

 ----------------------------------------------------------------------
 #t hf aug-cc-pvdz symm=none int=(grid=ultrafine) guess=(read,tcheck) s
 table=(opt,rrhf)
 ----------------------------------------------------------------------
 -----
 title
 -----
 Symbolic Z-matrix:
 Charge =  0 Multiplicity = 1

 SCF Done:  E(RHF) =  -457.881863172     A.U. after   13 cycles
 Normal termination of Gaussian 16 at Tue Apr  8 23:58:21 2025.
 Gaussian 16:  ES64L-G16RevC.01  3-Jul-2019

 ----------------------------------------------------------------------
 #t hf aug-cc-pvdz iop(5/13=1,5/36=2,99/5=2) pseudo=read geom=check gue
 ss=(read,tcheck) scf=(maxcycle=1)
 ----------------------------------------------------------------------
 -----
 title
 -----
 Structure from the checkpoint file:  "BDE49_nonexpt_2062_mol1.chk"
 Charge =  0 Multiplicity = 1

                         Standard orientation:
 ---------------------------------------------------------------------
 Center     Atomic      Atomic             Coordinates (Angstroms)
 Number     Number       Type             X           Y           Z
 ---------------------------------------------------------------------
      1         14           0        1.393705   -0.172212   -0.000032
      2          6           0       -1.271933    0.112498    0.000250
      3          7           0       -2.338946   -0.335861   -0.000146
      4          8           0       -0.102657    0.645471    0.000011
      5          1           0        2.373368    0.922058   -0.000650
      6          1           0        1.469847   -0.999862   -1.216540
      7          1           0        1.470393   -0.998956    1.217058
 ---------------------------------------------------------------------

 SCF Done:  E(RHF) =  -458.075072500     A.U. after    2 cycles

 The electronic state is 1-A.
 Alpha  occ. eigenvalues --  -69.61256 -20.63987 -15.50840 -11.34971  -6.27823
 Alpha  occ. eigenvalues --   -4.03333  -4.03141  -4.03118  -1.56397  -1.23064
 Alpha  occ. eigenvalues --   -0.89027  -0.73893  -0.67522  -0.66738  -0.60662
 Alpha  occ. eigenvalues --   -0.53566  -0.53526  -0.48169  -0.46920
 Alpha virt. eigenvalues --    0.02646   0.03661   0.04718   0.04994   0.08008
 Alpha virt. eigenvalues --    0.08103   0.09881   0.11255   0.11920   0.12288
 Alpha virt. eigenvalues --    0.13433   0.16382   0.16549   0.17655   0.19799

 Mulliken charges:
               1
     1  Si   1.408277
     2  C   -0.271099
     3  N    0.603581
     4  O   -1.280203
     5  H   -0.135476
     6  H   -0.162532
     7  H   -0.162550
 Sum of Mulliken charges =   0.00000

 Dipole moment (field-independent basis, Debye):
    X=              5.5237    Y=              0.4763    Z=              0.0007  Tot=              5.5442

 Test job not archived.
 1\1\GINC-SE403\SP\RHF\Aug-CC-pVDZ\C1H3N1O1Si1\OHZDE\08-Apr-2025\0\\#t
 hf aug-cc-pvdz iop(5/13=1,5/36=2,99/5=2) pseudo=read geom=check guess=
 (read,tcheck) scf=(maxcycle=1)\\title\\0,1\Si,0,1.393705,-0.172212,-0.
 000032\C,0,-1.271933,0.112498,0.00025\N,0,-2.338946,-0.335861,-0.00014
 6\O,0,-0.102657,0.645471,0.000011\H,0,2.373368,0.922058,-0.00065\H,0,1
 .469847,-0.999862,-1.21654\H,0,1.470393,-0.998956,1.217058\\Version=ES
 64L-G16RevC.01\State=1-A\HF=-458.0750725\RMSD=1.195e-02\Dipole=2.17318
 76,0.1873791,0.0002783\Quadrupole=-4.2462773,1.8289617,2.4173156,-2.22

 Normal termination of Gaussian 16 at Tue Apr  8 23:58:23 2025.
