 Gaussian 16, Revision C.01,

 ----------------------------------------------------------------------
 #t hf aug-cc-pvdz symm=none int=(grid=ultrafine) guess=(read,tcheck) s
 table=(opt,rrhf)
 ----------------------------------------------------------------------
 -----
 title
 -----
 Symbolic Z-matrix:
 Charge =  0 Multiplicity = 1

 SCF Done:  E(RHF) =  -192.774650490     A.U. after   14 cycles
 Normal termination of Gaussian 16 at Tue Apr  8 23:02:43 2025.
 Gaussian 16:  ES64L-G16RevC.01  3-Jul-2019

 ----------------------------------------------------------------------
 #t hf aug-cc-pvdz iop(5/13=1,5/36=2,99/5=2) pseudo=read geom=check gue
 ss=(read,tcheck) scf=(maxcycle=1)
 ----------------------------------------------------------------------
 -----
 title
 -----
 Structure from the checkpoint file:  "BDE49_expt_28_mol1.chk"
 Charge =  0 Multiplicity = 1

                         Standard orientation:
 ---------------------------------------------------------------------
 Center     Atomic      Atomic             Coordinates (Angstroms)
 Number     Number       Type             X           Y           Z
 ---------------------------------------------------------------------
      1          6           0       -0.066060   -0.229444   -0.000002
      2          6           0       -1.466119   -0.478307   -0.000004
      3          6           0       -2.413124    0.466707    0.000005
      4          6           0        1.129144   -0.060998   -0.000001
      5          6           0        2.568612    0.159156    0.000001
      6          1           0        2.880396    0.725023   -0.883307
      7          1           0        3.113469   -0.789337   -0.000250
      8          1           0        2.880458    0.724590    0.883564
      9          1           0       -1.762565   -1.525171   -0.000015
     10          1           0       -2.163155    1.521102    0.000016
     11          1           0       -3.463322    0.201111    0.000003
 ---------------------------------------------------------------------

 SCF Done:  E(RHF) =  -192.979796059     A.U. after    2 cycles

 The electronic state is 1-A.
 Alpha  occ. eigenvalues --  -11.26391 -11.25970 -11.24820 -11.23947 -11.23054
 Alpha  occ. eigenvalues --   -1.08862  -1.03988  -0.95678  -0.83270  -0.69355
 Alpha  occ. eigenvalues --   -0.64489  -0.62576  -0.59518  -0.59401  -0.54061
 Alpha  occ. eigenvalues --   -0.45845  -0.38462  -0.33795
 Alpha virt. eigenvalues --    0.03498   0.03832   0.04468   0.05716   0.05888
 Alpha virt. eigenvalues --    0.06313   0.08760   0.09795   0.12090   0.12593
 Alpha virt. eigenvalues --    0.13115   0.14498   0.14824   0.14873   0.15723

 Mulliken charges:
               1
     1  C    0.025111
     2  C    0.439548
     3  C   -0.080738
     4  C   -0.111002
     5  C   -0.707204
     6  H    0.265357
     7  H    0.241344
     8  H    0.265367
     9  H   -0.185616
    10  H   -0.068572
    11  H   -0.083593
 Sum of Mulliken charges =  -0.00000

 Dipole moment (field-independent basis, Debye):
    X=              0.4978    Y=              0.1487    Z=              0.0000  Tot=              0.5195

 Test job not archived.
 1\1\GINC-SE049\SP\RHF\Aug-CC-pVDZ\C5H6\OHZDE\08-Apr-2025\0\\#t hf aug-
 cc-pvdz iop(5/13=1,5/36=2,99/5=2) pseudo=read geom=check guess=(read,t
 check) scf=(maxcycle=1)\\title\\0,1\C,0,-0.06606,-0.229444,-0.000002\C
 ,0,-1.466119,-0.478307,-0.000004\C,0,-2.413124,0.466707,0.000005\C,0,1
 .129144,-0.060998,-0.000001\C,0,2.568612,0.159156,0.000001\H,0,2.88039
 6,0.725023,-0.883307\H,0,3.113469,-0.789337,-0.00025\H,0,2.880458,0.72
 459,0.883564\H,0,-1.762565,-1.525171,-0.000015\H,0,-2.163155,1.521102,
 0.000016\H,0,-3.463322,0.201111,0.000003\\Version=ES64L-G16RevC.01\Sta

 Normal termination of Gaussian 16 at Tue Apr  8 23:02:46 2025.
