 Gaussian 16, Revision C.01,

 ----------------------------------------------------------------------
 #t hf aug-cc-pvdz symm=none int=(grid=ultrafine) guess=(read,tcheck) s
 table=opt
 ----------------------------------------------------------------------
 -----
 title
 -----
 Symbolic Z-matrix:
 Charge =  0 Multiplicity = 2

 SCF Done:  E(UHF) =  -665.797264832     A.U. after   25 cycles
 Normal termination of Gaussian 16 at Tue Apr  8 23:22:51 2025.
 Gaussian 16:  ES64L-G16RevC.01  3-Jul-2019

 ----------------------------------------------------------------------
 #t hf aug-cc-pvdz iop(5/13=1,5/36=2,99/5=2) pseudo=read geom=check gue
 ss=(read,tcheck) scf=(maxcycle=1)
 ----------------------------------------------------------------------
 -----
 title
 -----
 Structure from the checkpoint file:  "BDE49_nonexpt_1192_mol2.chk"
 Charge =  0 Multiplicity = 2

                         Standard orientation:
 ---------------------------------------------------------------------
 Center     Atomic      Atomic             Coordinates (Angstroms)
 Number     Number       Type             X           Y           Z
 ---------------------------------------------------------------------
      1         16           0        2.346902   -0.486764    0.184069
      2          6           0        0.808987    0.346857   -0.071831
      3          8           0        0.890375    1.426831   -0.619946
      4          6           0       -0.475302   -0.308761    0.340846
      5          6           0       -1.631840    0.615499    0.826004
      6          6           0       -1.413412   -0.778557   -0.824247
      7          1           0       -0.272269   -1.124020    1.039578
      8          6           0       -2.620615   -0.220779   -0.027095
      9          1           0       -1.501810    1.624087    0.431547
     10          1           0       -3.379494    0.324019   -0.590044
     11          1           0       -3.111886   -0.998251    0.562115
     12          1           0       -1.397414   -1.842196   -1.063426
     13          1           0       -1.221623   -0.201342   -1.730336
     14          1           0       -1.795852    0.665720    1.902972
 ---------------------------------------------------------------------

 SCF Done:  E(UHF) =  -666.126766310     A.U. after    2 cycles

 The electronic state is 2-A.
 Alpha  occ. eigenvalues --  -93.99394 -20.55057 -11.37676 -11.26626 -11.25348
 Alpha  occ. eigenvalues --  -11.24777 -11.24469  -8.27594  -6.26772  -6.24964
 Alpha  occ. eigenvalues --   -6.24685  -1.49003  -1.15695  -1.07602  -0.95374
 Alpha  occ. eigenvalues --   -0.91842  -0.80526  -0.74753  -0.68787  -0.68131
 Alpha  occ. eigenvalues --   -0.62536  -0.59238  -0.58049  -0.56379  -0.51718
 Alpha  occ. eigenvalues --   -0.50439  -0.48552  -0.46471  -0.45542  -0.41508
 Alpha  occ. eigenvalues --   -0.40892
 Alpha virt. eigenvalues --    0.03183   0.03820   0.03888   0.04813   0.06330
 Alpha virt. eigenvalues --    0.07076   0.07534   0.07645   0.09704   0.10465
 Alpha virt. eigenvalues --    0.12127   0.12665   0.13167   0.13767   0.14160

  Beta  occ. eigenvalues --  -93.98467 -20.54896 -11.37780 -11.26609 -11.25348
  Beta  occ. eigenvalues --  -11.24764 -11.24469  -8.26529  -6.24451  -6.24096
  Beta  occ. eigenvalues --   -6.22674  -1.48554  -1.15585  -1.02056  -0.93152
  Beta  occ. eigenvalues --   -0.91798  -0.79688  -0.74368  -0.68062  -0.67420
  Beta  occ. eigenvalues --   -0.61328  -0.59070  -0.57611  -0.56355  -0.50463
  Beta  occ. eigenvalues --   -0.49929  -0.47930  -0.46444  -0.40591  -0.38671
  Beta virt. eigenvalues --   -0.00987   0.03301   0.03833   0.03999   0.04849
  Beta virt. eigenvalues --    0.06410   0.07090   0.07585   0.07933   0.09636
  Beta virt. eigenvalues --    0.10629   0.12240   0.12930   0.13659   0.13853

 Mulliken charges and spin densities:
               1          2
     1  S    0.293318   1.102417
     2  C    0.552429  -0.109393
     3  O   -1.309312   0.008569
     4  C    0.511721  -0.014458
     5  C   -0.160438   0.006464
     6  C   -0.213326   0.008675
     7  H    0.041050  -0.000462
     8  C    0.080721  -0.002822
     9  H    0.055898  -0.001091
    10  H    0.025334  -0.000114
    11  H    0.043761  -0.000315
    12  H    0.015056   0.001692
    13  H    0.043240   0.000877
    14  H    0.020547  -0.000039
 Sum of Mulliken charges =  -0.00000   1.00000

 Dipole moment (field-independent basis, Debye):
    X=             -2.0308    Y=             -2.0819    Z=              1.0425  Tot=              3.0896
                          Isotropic Fermi Contact Couplings
        Atom                 a.u.       MegaHertz       Gauss      10(-4) cm-1
     1  S(33)              0.20441      70.20908      25.05234      23.41923
     2  C(13)             -0.01689     -18.98626      -6.77477      -6.33314
     3  O(17)              0.02234     -13.54077      -4.83168      -4.51672
     4  C(13)              0.00269       3.02249       1.07850       1.00820
     5  C(13)              0.00188       2.11331       0.75408       0.70492
     6  C(13)             -0.00023      -0.26414      -0.09425      -0.08811
     7  H(1)               0.00101       4.52810       1.61574       1.51041
     8  C(13)              0.00009       0.09656       0.03445       0.03221

 Normal termination of Gaussian 16 at Tue Apr  8 23:22:57 2025.
