 Gaussian 16, Revision C.01,

 ----------------------------------------------------------------------
 #t hf aug-cc-pvdz symm=none int=(grid=ultrafine) guess=(read,tcheck) s
 table=(opt,rrhf)
 ----------------------------------------------------------------------
 -----
 title
 -----
 Symbolic Z-matrix:
 Charge =  0 Multiplicity = 1

 SCF Done:  E(RHF) =  -855.209546964     A.U. after   15 cycles
 Normal termination of Gaussian 16 at Tue Apr  8 23:23:39 2025.
 Gaussian 16:  ES64L-G16RevC.01  3-Jul-2019

 ----------------------------------------------------------------------
 #t hf aug-cc-pvdz iop(5/13=1,5/36=2,99/5=2) pseudo=read geom=check gue
 ss=(read,tcheck) scf=(maxcycle=1)
 ----------------------------------------------------------------------
 -----
 title
 -----
 Structure from the checkpoint file:  "BDE49_nonexpt_1195_mol1.chk"
 Charge =  0 Multiplicity = 1

                         Standard orientation:
 ---------------------------------------------------------------------
 Center     Atomic      Atomic             Coordinates (Angstroms)
 Number     Number       Type             X           Y           Z
 ---------------------------------------------------------------------
      1          6           0       -2.172631    0.521408   -0.133007
      2          8           0       -1.550199    1.424102   -0.603566
      3          8           0       -1.772973   -0.807881   -0.181137
      4         16           0       -0.256530   -1.151602   -0.848171
      5          6           0        0.792161   -0.637905    0.522987
      6          8           0        0.345032   -0.153058    1.525730
      7          6           0       -3.481159    0.605174    0.605370
      8          1           0       -3.885243    1.610173    0.504001
      9          1           0       -3.299801    0.383591    1.659750
     10          1           0       -4.186400   -0.135204    0.225531
     11          6           0        2.263371   -0.862956    0.232897
     12          6           0        3.078009    0.432818    0.404765
     13          1           0        2.394359   -1.273249   -0.775520
     14          1           0        2.609053   -1.623367    0.941371
     15          6           0        2.737037    1.508814   -0.629897
     16          1           0        4.140393    0.177543    0.344666
     17          1           0        2.898578    0.813318    1.413858
     18          1           0        2.930420    1.156061   -1.647783
     19          1           0        3.341765    2.404493   -0.468596
     20          1           0        1.685748    1.802856   -0.573445
 ---------------------------------------------------------------------

 SCF Done:  E(RHF) =  -855.730045499     A.U. after    2 cycles

 The electronic state is 1-A.
 Alpha  occ. eigenvalues --  -94.02769 -20.61660 -20.55800 -20.54781 -11.40289
 Alpha  occ. eigenvalues --  -11.38140 -11.26719 -11.25749 -11.24808 -11.22862
 Alpha  occ. eigenvalues --   -8.30303  -6.28126  -6.27865  -6.27638  -1.54801
 Alpha  occ. eigenvalues --   -1.49888  -1.46543  -1.10689  -1.06457  -1.01170
 Alpha  occ. eigenvalues --   -0.96168  -0.85138  -0.80117  -0.74631  -0.70627
 Alpha  occ. eigenvalues --   -0.69344  -0.67807  -0.65673  -0.64645  -0.62263
 Alpha  occ. eigenvalues --   -0.60425  -0.58860  -0.57470  -0.55897  -0.55145
 Alpha  occ. eigenvalues --   -0.53604  -0.50791  -0.50105  -0.49730  -0.48818
 Alpha  occ. eigenvalues --   -0.45271  -0.41015  -0.39658
 Alpha virt. eigenvalues --    0.03287   0.03906   0.04187   0.04324   0.05605
 Alpha virt. eigenvalues --    0.05869   0.06189   0.06927   0.07357   0.08443
 Alpha virt. eigenvalues --    0.09308   0.10286   0.10727   0.11647   0.11860

 Mulliken charges:
               1
     1  C    1.901299
     2  O   -1.195691
     3  O   -1.396778
     4  S    0.905371
     5  C    1.049922
     6  O   -1.392575
     7  C   -0.645200
     8  H    0.201469
     9  H    0.260304
    10  H    0.210592
    11  C   -0.406926
    12  C   -0.354136
    13  H    0.220161
    14  H    0.267598
    15  C   -0.307151
    16  H    0.126421
    17  H    0.137176
    18  H    0.154046
    19  H    0.113692
    20  H    0.150406
 Sum of Mulliken charges =  -0.00000

 Dipole moment (field-independent basis, Debye):
    X=              0.6796    Y=             -1.3248    Z=             -0.1546  Tot=              1.4969

 Test job not archived.
 1\1\GINC-SE247\SP\RHF\Aug-CC-pVDZ\C6H10O3S1\OHZDE\08-Apr-2025\0\\#t hf
  aug-cc-pvdz iop(5/13=1,5/36=2,99/5=2) pseudo=read geom=check guess=(r
 ead,tcheck) scf=(maxcycle=1)\\title\\0,1\C,0,-2.172631,0.521408,-0.133
 007\O,0,-1.550199,1.424102,-0.603566\O,0,-1.772973,-0.807881,-0.181137
 \S,0,-0.25653,-1.151602,-0.848171\C,0,0.792161,-0.637905,0.522987\O,0,
 0.345032,-0.153058,1.52573\C,0,-3.481159,0.605174,0.60537\H,0,-3.88524
 3,1.610173,0.504001\H,0,-3.299801,0.383591,1.65975\H,0,-4.1864,-0.1352
 04,0.225531\C,0,2.263371,-0.862956,0.232897\C,0,3.078009,0.432818,0.40

 Normal termination of Gaussian 16 at Tue Apr  8 23:23:51 2025.
