 Gaussian 16, Revision C.01,

 ----------------------------------------------------------------------
 #t hf aug-cc-pvdz symm=none int=(grid=ultrafine) guess=(read,tcheck) s
 table=opt
 ----------------------------------------------------------------------
 -----
 title
 -----
 Symbolic Z-matrix:
 Charge =  0 Multiplicity = 2

 SCF Done:  E(UHF) =  -1081.58559537     A.U. after   17 cycles
 Normal termination of Gaussian 16 at Wed Apr  9 00:32:19 2025.
 Gaussian 16:  ES64L-G16RevC.01  3-Jul-2019

 ----------------------------------------------------------------------
 #t hf aug-cc-pvdz iop(5/13=1,5/36=2,99/5=2) pseudo=read geom=check gue
 ss=(read,tcheck) scf=(maxcycle=1)
 ----------------------------------------------------------------------
 -----
 title
 -----
 Structure from the checkpoint file:  "BDE49_nonexpt_364_mol2.chk"
 Charge =  0 Multiplicity = 2

                         Standard orientation:
 ---------------------------------------------------------------------
 Center     Atomic      Atomic             Coordinates (Angstroms)
 Number     Number       Type             X           Y           Z
 ---------------------------------------------------------------------
      1          9           0        0.854754    1.998703   -0.351999
      2          5           0        0.244028    1.397390    0.627341
      3          6           0       -0.068363   -0.146102    0.663722
      4         17           0        1.187405   -1.164821   -0.139338
      5         17           0       -1.673962   -0.219308   -0.190061
      6          1           0       -0.231273   -0.568466    1.648736
 ---------------------------------------------------------------------

 SCF Done:  E(UHF) =  -1081.88566943     A.U. after    2 cycles

 The electronic state is 2-A.
 Alpha  occ. eigenvalues -- -105.59689-105.59058 -26.50853 -11.38061 -10.64443
 Alpha  occ. eigenvalues --  -10.63828  -7.81392  -7.80976  -7.80968  -7.80853
 Alpha  occ. eigenvalues --   -7.80355  -7.80344  -7.72258  -1.64365  -1.16964
 Alpha  occ. eigenvalues --   -1.06210  -0.91084  -0.80788  -0.73555  -0.69132
 Alpha  occ. eigenvalues --   -0.66585  -0.63658  -0.60229  -0.49663  -0.49357
 Alpha  occ. eigenvalues --   -0.47142  -0.46833  -0.38400
 Alpha virt. eigenvalues --    0.03299   0.04052   0.05115   0.05813   0.07655
 Alpha virt. eigenvalues --    0.08106   0.10130   0.11336   0.13271   0.13944
 Alpha virt. eigenvalues --    0.14712   0.16491   0.17306   0.17947   0.18091

  Beta  occ. eigenvalues -- -105.59687-105.59003 -26.50550 -11.37767 -10.64442
  Beta  occ. eigenvalues --  -10.63770  -7.81368  -7.80992  -7.80965  -7.80633
  Beta  occ. eigenvalues --   -7.80324  -7.80305  -7.70263  -1.63513  -1.16486
  Beta  occ. eigenvalues --   -1.05952  -0.89861  -0.79660  -0.71054  -0.69041
  Beta  occ. eigenvalues --   -0.64535  -0.62469  -0.59786  -0.49529  -0.48807
  Beta  occ. eigenvalues --   -0.46878  -0.46119
  Beta virt. eigenvalues --    0.02322   0.04600   0.04758   0.05717   0.06589
  Beta virt. eigenvalues --    0.08144   0.08840   0.11733   0.13016   0.14095
  Beta virt. eigenvalues --    0.14835   0.15170   0.16647   0.17954   0.18284

 Mulliken charges and spin densities:
               1          2
     1  F   -0.443184  -0.027925
     2  B    0.851871   0.992199
     3  C   -0.538738  -0.003649
     4  Cl  -0.087137   0.042620
     5  Cl  -0.080963   0.006412
     6  H    0.298151  -0.009657
 Sum of Mulliken charges =  -0.00000   1.00000

 Dipole moment (field-independent basis, Debye):
    X=             -0.0209    Y=              0.0860    Z=              1.5979  Tot=              1.6004
                          Isotropic Fermi Contact Couplings
        Atom                 a.u.       MegaHertz       Gauss      10(-4) cm-1
     1  F(19)              0.06989     294.06838     104.93091      98.09065
     2  B(11)              0.35743     512.68489     182.93872     171.01327
     3  C(13)              0.11464     128.87599      45.98616      42.98840
     4  Cl(35)             0.01458       6.39133       2.28059       2.13192
     5  Cl(35)            -0.00406      -1.78157      -0.63571      -0.59427
     6  H(1)               0.00011       0.50463       0.18006       0.16833
 --------------------------------------------------------
       Center         ----  Spin Dipole Couplings  ----

 1\1\GINC-SE039\SP\UHF\Aug-CC-pVDZ\C1H1B1Cl2F1(2)\OHZDE\09-Apr-2025\0\\
 #t hf aug-cc-pvdz iop(5/13=1,5/36=2,99/5=2) pseudo=read geom=check gue
 ss=(read,tcheck) scf=(maxcycle=1)\\title\\0,2\F,0,0.854756,1.998702,-0
 .351999\B,0,0.244029,1.39739,0.627341\C,0,-0.068363,-0.146102,0.663722
 \Cl,0,1.187404,-1.164822,-0.139338\Cl,0,-1.673962,-0.219307,-0.190061\
 H,0,-0.231273,-0.568466,1.648736\\Version=ES64L-G16RevC.01\State=2-A\H
 F=-1081.8856694\S2=0.754319\S2-1=0.\S2A=0.750011\RMSD=3.941e-03\Dipole
 =-0.0082368,0.0338356,0.6286645\Quadrupole=-0.3332442,-1.2276345,1.560

 Normal termination of Gaussian 16 at Wed Apr  9 00:32:26 2025.
