 Gaussian 16, Revision C.01,

 ----------------------------------------------------------------------
 #t hf aug-cc-pvdz symm=none int=(grid=ultrafine) guess=(read,tcheck) s
 table=(opt,rrhf)
 ----------------------------------------------------------------------
 -----
 title
 -----
 Symbolic Z-matrix:
 Charge =  0 Multiplicity = 1

 SCF Done:  E(RHF) =  -434.361760656     A.U. after   16 cycles
 Normal termination of Gaussian 16 at Tue Apr  8 22:38:06 2025.
 Gaussian 16:  ES64L-G16RevC.01  3-Jul-2019

 ----------------------------------------------------------------------
 #t hf aug-cc-pvdz iop(5/13=1,5/36=2,99/5=2) pseudo=read geom=check gue
 ss=(read,tcheck) scf=(maxcycle=1)
 ----------------------------------------------------------------------
 -----
 title
 -----
 Structure from the checkpoint file:  "BDE49_expt_1182_mol1.chk"
 Charge =  0 Multiplicity = 1

                         Standard orientation:
 ---------------------------------------------------------------------
 Center     Atomic      Atomic             Coordinates (Angstroms)
 Number     Number       Type             X           Y           Z
 ---------------------------------------------------------------------
      1          6           0       -0.469779    1.177247   -0.145740
      2          6           0       -1.863090    1.147387   -0.132133
      3          6           0        0.227932   -0.024247   -0.006773
      4          6           0       -0.511134   -1.200337    0.122201
      5          6           0       -1.899459   -1.118265    0.137404
      6          7           0       -2.576023    0.029250    0.014726
      7          1           0        0.001395   -2.149750    0.207771
      8          1           0       -2.499802   -2.015987    0.250805
      9          6           0        1.729496   -0.124619   -0.031461
     10          8           0        2.417076    1.006724    0.263045
     11          1           0        1.820503    1.689702    0.590936
     12          8           0        2.310368   -1.139584   -0.296164
     13          1           0       -2.429706    2.066686   -0.248404
     14          1           0        0.036418    2.124484   -0.300227
 ---------------------------------------------------------------------

 SCF Done:  E(RHF) =  -434.792436230     A.U. after    2 cycles

 The electronic state is 1-A.
 Alpha  occ. eigenvalues --  -20.61687 -20.55089 -15.53302 -11.41496 -11.30682
 Alpha  occ. eigenvalues --  -11.30338 -11.30065 -11.28535 -11.27475  -1.55932
 Alpha  occ. eigenvalues --   -1.47121  -1.28518  -1.13301  -1.06554  -0.94120
 Alpha  occ. eigenvalues --   -0.90666  -0.84804  -0.79856  -0.72939  -0.70126
 Alpha  occ. eigenvalues --   -0.68159  -0.66888  -0.64680  -0.63805  -0.58987
 Alpha  occ. eigenvalues --   -0.58383  -0.56025  -0.49452  -0.48775  -0.46142
 Alpha  occ. eigenvalues --   -0.42815  -0.38229
 Alpha virt. eigenvalues --    0.02444   0.03308   0.03706   0.04336   0.05612
 Alpha virt. eigenvalues --    0.05891   0.07821   0.08392   0.09185   0.10326
 Alpha virt. eigenvalues --    0.10832   0.11566   0.11733   0.12881   0.13879

 Mulliken charges:
               1
     1  C    0.979640
     2  C   -1.218566
     3  C    0.979790
     4  C    0.735602
     5  C   -1.209450
     6  N    1.097734
     7  H   -0.246995
     8  H   -0.170090
     9  C    1.656527
    10  O   -1.315862
    11  H    0.446059
    12  O   -1.260245
    13  H   -0.181087
    14  H   -0.293057
 Sum of Mulliken charges =  -0.00000

 Dipole moment (field-independent basis, Debye):
    X=             -1.3471    Y=              2.3670    Z=              0.8182  Tot=              2.8437

 Test job not archived.
 1\1\GINC-SE328\SP\RHF\Aug-CC-pVDZ\C6H5N1O2\OHZDE\08-Apr-2025\0\\#t hf
 aug-cc-pvdz iop(5/13=1,5/36=2,99/5=2) pseudo=read geom=check guess=(re
 ad,tcheck) scf=(maxcycle=1)\\title\\0,1\C,0,-0.469779,1.177247,-0.1457
 4\C,0,-1.86309,1.147387,-0.132133\C,0,0.227932,-0.024247,-0.006773\C,0
 ,-0.511134,-1.200337,0.122201\C,0,-1.899459,-1.118265,0.137404\N,0,-2.
 576023,0.02925,0.014726\H,0,0.001395,-2.14975,0.207771\H,0,-2.499802,-
 2.015987,0.250805\C,0,1.729496,-0.124619,-0.031461\O,0,2.417076,1.0067
 24,0.263045\H,0,1.820503,1.689702,0.590936\O,0,2.310368,-1.139584,-0.2

 Normal termination of Gaussian 16 at Tue Apr  8 22:38:11 2025.
