 Gaussian 16, Revision C.01,

 ----------------------------------------------------------------------
 #t hf aug-cc-pvdz symm=none int=(grid=ultrafine) guess=(read,tcheck) s
 table=(opt,rrhf)
 ----------------------------------------------------------------------
 -----
 title
 -----
 Symbolic Z-matrix:
 Charge =  0 Multiplicity = 1

 SCF Done:  E(RHF) =  -1512.90534357     A.U. after   17 cycles
 Normal termination of Gaussian 16 at Wed Apr  9 00:52:44 2025.
 Gaussian 16:  ES64L-G16RevC.01  3-Jul-2019

 ----------------------------------------------------------------------
 #t hf aug-cc-pvdz iop(5/13=1,5/36=2,99/5=2) pseudo=read geom=check gue
 ss=(read,tcheck) scf=(maxcycle=1)
 ----------------------------------------------------------------------
 -----
 title
 -----
 Structure from the checkpoint file:  "BDE49_nonexpt_939_mol1.chk"
 Charge =  0 Multiplicity = 1

                         Standard orientation:
 ---------------------------------------------------------------------
 Center     Atomic      Atomic             Coordinates (Angstroms)
 Number     Number       Type             X           Y           Z
 ---------------------------------------------------------------------
      1         17           0        3.412217    0.087915    0.010449
      2          7           0        1.763301    0.634984   -0.212575
      3          6           0        0.886078   -0.222028    0.179469
      4          7           0        1.061948   -1.416160    0.786843
      5          1           0        2.002035   -1.783561    0.799834
      6          1           0        0.297371   -2.069418    0.853962
      7          6           0       -0.560876    0.226711   -0.055795
      8         17           0       -0.750167    1.901174   -0.463844
      9          7           0       -1.234548   -0.640155   -1.196989
     10          8           0       -0.517714   -1.436619   -1.761079
     11          8           0       -2.401746   -0.409342   -1.401619
     12          7           0       -1.428237   -0.126939    1.221866
     13          8           0       -1.713179    0.763653    1.974088
     14          8           0       -1.697701   -1.311661    1.328343
 ---------------------------------------------------------------------

 SCF Done:  E(RHF) =  -1513.61965051     A.U. after    2 cycles

 The electronic state is 1-A.
 Alpha  occ. eigenvalues -- -105.63967-105.61272 -20.65929 -20.64665 -20.64488
 Alpha  occ. eigenvalues --  -20.64380 -15.85321 -15.84861 -15.59224 -15.57608
 Alpha  occ. eigenvalues --  -11.49729 -11.41203 -10.68776 -10.65801  -7.85757
 Alpha  occ. eigenvalues --   -7.85266  -7.85255  -7.82747  -7.82298  -7.82272
 Alpha  occ. eigenvalues --   -1.73993  -1.72899  -1.57937  -1.57301  -1.35352
 Alpha  occ. eigenvalues --   -1.24821  -1.23915  -1.09883  -1.06732  -1.04209
 Alpha  occ. eigenvalues --   -0.93592  -0.88194  -0.86978  -0.84444  -0.81134
 Alpha  occ. eigenvalues --   -0.79989  -0.79606  -0.78537  -0.77759  -0.70835
 Alpha  occ. eigenvalues --   -0.67538  -0.65255  -0.58546  -0.57665  -0.56035
 Alpha  occ. eigenvalues --   -0.54004  -0.53842  -0.53302  -0.52250  -0.51261
 Alpha  occ. eigenvalues --   -0.50482  -0.49328  -0.47337  -0.43851
 Alpha virt. eigenvalues --    0.00331   0.01144   0.03206   0.05385   0.06461
 Alpha virt. eigenvalues --    0.07157   0.07722   0.08003   0.10428   0.10725
 Alpha virt. eigenvalues --    0.11673   0.11952   0.13137   0.13378   0.13675

 Mulliken charges:
               1
     1  Cl   0.010845
     2  N    0.991932
     3  C   -2.282913
     4  N    1.175111
     5  H    0.097902
     6  H    0.145063
     7  C   -0.809744
     8  Cl   0.235166
     9  N    3.375659
    10  O   -1.439802
    11  O   -1.545047
    12  N    2.979798
    13  O   -1.394006
    14  O   -1.539964
 Sum of Mulliken charges =  -0.00000

 Dipole moment (field-independent basis, Debye):
    X=              1.2585    Y=             -1.2611    Z=              0.9333  Tot=              2.0113

 Test job not archived.
 1\1\GINC-SE461\SP\RHF\Aug-CC-pVDZ\C2H2Cl2N4O4\OHZDE\09-Apr-2025\0\\#t
 hf aug-cc-pvdz iop(5/13=1,5/36=2,99/5=2) pseudo=read geom=check guess=
 (read,tcheck) scf=(maxcycle=1)\\title\\0,1\Cl,0,-3.412217,0.087915,-0.
 010449\N,0,-1.763301,0.634984,0.212575\C,0,-0.886078,-0.222028,-0.1794
 69\N,0,-1.061948,-1.41616,-0.786843\H,0,-2.002035,-1.783561,-0.799834\
 H,0,-0.297371,-2.069418,-0.853962\C,0,0.560876,0.226711,0.055795\Cl,0,
 0.750167,1.901174,0.463844\N,0,1.234548,-0.640155,1.196989\O,0,0.51771
 4,-1.436619,1.761079\O,0,2.401746,-0.409342,1.401619\N,0,1.428237,-0.1

 Normal termination of Gaussian 16 at Wed Apr  9 00:52:52 2025.
