 Gaussian 16, Revision C.01,

 ----------------------------------------------------------------------
 #t hf aug-cc-pvdz symm=none int=(grid=ultrafine) guess=(read,tcheck) s
 table=(opt,rrhf)
 ----------------------------------------------------------------------
 -----
 title
 -----
 Symbolic Z-matrix:
 Charge =  0 Multiplicity = 1

 SCF Done:  E(RHF) =  -966.674784403     A.U. after   18 cycles
 Normal termination of Gaussian 16 at Tue Apr  8 23:02:34 2025.
 Gaussian 16:  ES64L-G16RevC.01  3-Jul-2019

 ----------------------------------------------------------------------
 #t hf aug-cc-pvdz iop(5/13=1,5/36=2,99/5=2) pseudo=read geom=check gue
 ss=(read,tcheck) scf=(maxcycle=1)
 ----------------------------------------------------------------------
 -----
 title
 -----
 Structure from the checkpoint file:  "BDE49_expt_1831_mol1.chk"
 Charge =  0 Multiplicity = 1

                         Standard orientation:
 ---------------------------------------------------------------------
 Center     Atomic      Atomic             Coordinates (Angstroms)
 Number     Number       Type             X           Y           Z
 ---------------------------------------------------------------------
      1          6           0       -2.275126   -1.386008   -0.000069
      2          6           0       -3.590694   -1.839986   -0.000039
      3          6           0       -4.641135   -0.925228    0.000033
      4          6           0       -4.371874    0.446174    0.000075
      5          6           0       -3.062167    0.905833    0.000045
      6          6           0       -2.005929   -0.015280   -0.000027
      7          1           0       -1.436656   -2.071877   -0.000125
      8          1           0       -5.190411    1.157336    0.000130
      9          1           0       -2.838093    1.964502    0.000076
     10          1           0       -3.794832   -2.904557   -0.000072
     11          1           0       -5.667095   -1.275563    0.000057
     12          7           0       -0.623799    0.333748   -0.000065
     13          7           0       -0.391650    1.553340   -0.000026
     14         16           0        1.266774    2.060017   -0.000031
     15          6           0        2.250040    0.570009   -0.000000
     16          6           0        2.635575   -0.012549   -1.210822
     17          6           0        2.635570   -0.012505    1.210845
     18          6           0        3.415365   -1.165655    1.207885
     19          6           0        3.415371   -1.165699   -1.207816
     20          6           0        3.806124   -1.741374    0.000046
     21          1           0        3.717118   -1.614374    2.147471
     22          1           0        4.415577   -2.638064    0.000063
     23          1           0        2.325147    0.440419    2.144462
     24          1           0        2.325156    0.440341   -2.144457
     25          1           0        3.717128   -1.614453   -2.147385
 ---------------------------------------------------------------------

 SCF Done:  E(RHF) =  -967.309445457     A.U. after    2 cycles

 The electronic state is 1-A.
 Alpha  occ. eigenvalues --  -93.98329 -15.59496 -15.57089 -11.27627 -11.27572
 Alpha  occ. eigenvalues --  -11.25848 -11.25841 -11.25797 -11.25258 -11.25241
 Alpha  occ. eigenvalues --  -11.25176 -11.25022 -11.24988 -11.24930 -11.24890
 Alpha  occ. eigenvalues --   -8.26174  -6.23984  -6.23753  -6.23560  -1.38128
 Alpha  occ. eigenvalues --   -1.17446  -1.16723  -1.10385  -1.04560  -1.02974
 Alpha  occ. eigenvalues --   -1.02682  -0.99448  -0.90504  -0.84882  -0.84855
 Alpha  occ. eigenvalues --   -0.83612  -0.78975  -0.74784  -0.71584  -0.68909
 Alpha  occ. eigenvalues --   -0.68420  -0.65925  -0.64189  -0.63164  -0.62104
 Alpha  occ. eigenvalues --   -0.61881  -0.61169  -0.60545  -0.56347  -0.53872
 Alpha  occ. eigenvalues --   -0.52324  -0.52046  -0.51380  -0.51199  -0.47715
 Alpha  occ. eigenvalues --   -0.43608  -0.39721  -0.36033  -0.35651  -0.35326
 Alpha  occ. eigenvalues --   -0.33173
 Alpha virt. eigenvalues --    0.03181   0.03499   0.03563   0.03749   0.03840
 Alpha virt. eigenvalues --    0.04130   0.04934   0.06039   0.06128   0.06983
 Alpha virt. eigenvalues --    0.07220   0.07724   0.08634   0.09418   0.10003

 Mulliken charges:
               1
     1  C    0.277384
     2  C    0.590150
     3  C    0.132345
     4  C    0.548100
     5  C    0.100664
     6  C   -1.176723
     7  H   -0.299947
     8  H   -0.216390
     9  H   -0.252841
    10  H   -0.204016
    11  H   -0.225440
    12  N    0.629749
    13  N   -0.326703
    14  S    0.593509
    15  C    0.595697
    16  C   -0.026115
    17  C   -0.026165
    18  C    0.121105
    19  C    0.121079
    20  C    0.191827
    21  H   -0.225661
    22  H   -0.202803
    23  H   -0.246571
    24  H   -0.246571
    25  H   -0.225663
 Sum of Mulliken charges =  -0.00000

 Dipole moment (field-independent basis, Debye):
    X=              0.1786    Y=             -2.3745    Z=              0.0001  Tot=              2.3812

 Test job not archived.
 1\1\GINC-SE029\SP\RHF\Aug-CC-pVDZ\C12H10N2S1\OHZDE\08-Apr-2025\0\\#t h
 f aug-cc-pvdz iop(5/13=1,5/36=2,99/5=2) pseudo=read geom=check guess=(
 read,tcheck) scf=(maxcycle=1)\\title\\0,1\C,0,-2.275126,-1.386008,-0.0
 00069\C,0,-3.590694,-1.839986,-0.000039\C,0,-4.641135,-0.925228,0.0000
 33\C,0,-4.371874,0.446174,0.000075\C,0,-3.062167,0.905833,0.000045\C,0
 ,-2.005929,-0.01528,-0.000027\H,0,-1.436656,-2.071877,-0.000125\H,0,-5
 .190411,1.157336,0.00013\H,0,-2.838093,1.964502,0.000076\H,0,-3.794832
 ,-2.904557,-0.000072\H,0,-5.667095,-1.275563,0.000057\N,0,-0.623799,0.

 Normal termination of Gaussian 16 at Tue Apr  8 23:03:00 2025.
