 Gaussian 16, Revision C.01,

 ----------------------------------------------------------------------
 #t hf aug-cc-pvdz symm=none int=(grid=ultrafine) guess=(read,tcheck) s
 table=(opt,rrhf)
 ----------------------------------------------------------------------
 -----
 title
 -----
 Symbolic Z-matrix:
 Charge =  0 Multiplicity = 1

 SCF Done:  E(RHF) =  -215.949515754     A.U. after   13 cycles
 Normal termination of Gaussian 16 at Tue Apr  8 22:44:27 2025.
 Gaussian 16:  ES64L-G16RevC.01  3-Jul-2019

 ----------------------------------------------------------------------
 #t hf aug-cc-pvdz iop(5/13=1,5/36=2,99/5=2) pseudo=read geom=check gue
 ss=(read,tcheck) scf=(maxcycle=1)
 ----------------------------------------------------------------------
 -----
 title
 -----
 Structure from the checkpoint file:  "BDE49_expt_1519_mol1.chk"
 Charge =  0 Multiplicity = 1

                         Standard orientation:
 ---------------------------------------------------------------------
 Center     Atomic      Atomic             Coordinates (Angstroms)
 Number     Number       Type             X           Y           Z
 ---------------------------------------------------------------------
      1          6           0       -0.602656    0.379017    0.000000
      2          6           0        0.456431   -0.413419    0.000000
      3          9           0       -1.864567   -0.107167    0.000000
      4          1           0       -0.584177    1.463495   -0.000001
      5          6           0        1.869153    0.090480    0.000000
      6          1           0        0.289086   -1.486747    0.000001
      7          1           0        1.908815    1.182554   -0.000001
      8          1           0        2.414905   -0.265634   -0.879934
      9          1           0        2.414905   -0.265633    0.879934
 ---------------------------------------------------------------------

 SCF Done:  E(RHF) =  -216.167365196     A.U. after    2 cycles

 The electronic state is 1-A.
 Alpha  occ. eigenvalues --  -26.46601 -11.32444 -11.24862 -11.24656  -1.59340
 Alpha  occ. eigenvalues --   -1.08090  -0.94392  -0.80711  -0.71327  -0.67833
 Alpha  occ. eigenvalues --   -0.65929  -0.58299  -0.57289  -0.56055  -0.53001
 Alpha  occ. eigenvalues --   -0.37224
 Alpha virt. eigenvalues --    0.03618   0.04195   0.04902   0.05303   0.07150
 Alpha virt. eigenvalues --    0.10324   0.10692   0.12201   0.13441   0.15679
 Alpha virt. eigenvalues --    0.15786   0.16528   0.17097   0.17165   0.18194

 Mulliken charges:
               1
     1  C    0.856581
     2  C    0.108494
     3  F   -0.768359
     4  H    0.004284
     5  C   -0.590954
     6  H   -0.132195
     7  H    0.104580
     8  H    0.208785
     9  H    0.208784
 Sum of Mulliken charges =  -0.00000

 Dipole moment (field-independent basis, Debye):
    X=              1.8214    Y=              0.4881    Z=             -0.0000  Tot=              1.8856

 Test job not archived.
 1\1\GINC-SE250\SP\RHF\Aug-CC-pVDZ\C3H5F1\OHZDE\08-Apr-2025\0\\#t hf au
 g-cc-pvdz iop(5/13=1,5/36=2,99/5=2) pseudo=read geom=check guess=(read
 ,tcheck) scf=(maxcycle=1)\\title\\0,1\C,0,-0.602656,0.379017,0.\C,0,0.
 456431,-0.413419,0.\F,0,-1.864567,-0.107167,0.\H,0,-0.584177,1.463495,
 -0.000001\C,0,1.869153,0.09048,0.\H,0,0.289086,-1.486747,0.000001\H,0,
 1.908815,1.182554,-0.000001\H,0,2.414905,-0.265634,-0.879934\H,0,2.414
 905,-0.265633,0.879934\\Version=ES64L-G16RevC.01\State=1-A\HF=-216.167
 3652\RMSD=1.227e-02\Dipole=0.7165836,0.1920291,0.\Quadrupole=-1.225479

 Normal termination of Gaussian 16 at Tue Apr  8 22:44:29 2025.
