 Gaussian 16, Revision C.01,

 ----------------------------------------------------------------------
 #t hf aug-cc-pvdz symm=none int=(grid=ultrafine) guess=(read,tcheck) s
 table=opt
 ----------------------------------------------------------------------
 -----
 title
 -----
 Symbolic Z-matrix:
 Charge =  0 Multiplicity = 2

 SCF Done:  E(UHF) =  -189.232510339     A.U. after   19 cycles
 Normal termination of Gaussian 16 at Tue Apr  8 22:57:36 2025.
 Gaussian 16:  ES64L-G16RevC.01  3-Jul-2019

 ----------------------------------------------------------------------
 #t hf aug-cc-pvdz iop(5/13=1,5/36=2,99/5=2) pseudo=read geom=check gue
 ss=(read,tcheck) scf=(maxcycle=1)
 ----------------------------------------------------------------------
 -----
 title
 -----
 Structure from the checkpoint file:  "BDE49_expt_1917_mol3.chk"
 Charge =  0 Multiplicity = 2

                         Standard orientation:
 ---------------------------------------------------------------------
 Center     Atomic      Atomic             Coordinates (Angstroms)
 Number     Number       Type             X           Y           Z
 ---------------------------------------------------------------------
      1          8           0       -1.186401   -0.278559    0.000011
      2          8           0       -0.157137    0.543878   -0.000009
      3          6           0        1.096022   -0.183189   -0.000002
      4          1           0        1.874888    0.578410   -0.000025
      5          1           0        1.148634   -0.800936   -0.896938
      6          1           0        1.148648   -0.800895    0.896961
 ---------------------------------------------------------------------

 SCF Done:  E(UHF) =  -189.417235009     A.U. after    2 cycles

 The electronic state is 2-A.
 Alpha  occ. eigenvalues --  -20.66212 -20.64759 -11.30801  -1.68635  -1.26748
 Alpha  occ. eigenvalues --   -0.94661  -0.75402  -0.70041  -0.69340  -0.61280
 Alpha  occ. eigenvalues --   -0.57167  -0.48695  -0.47231
 Alpha virt. eigenvalues --    0.03491   0.05329   0.05444   0.09068   0.14078
 Alpha virt. eigenvalues --    0.14262   0.15848   0.16862   0.20549   0.21701
 Alpha virt. eigenvalues --    0.23835   0.26107   0.27805   0.28115   0.30081

  Beta  occ. eigenvalues --  -20.63865 -20.62222 -11.30873  -1.62468  -1.17500
  Beta  occ. eigenvalues --   -0.93374  -0.68713  -0.67288  -0.65617  -0.56244
  Beta  occ. eigenvalues --   -0.49717  -0.45361
  Beta virt. eigenvalues --    0.03501   0.05197   0.05332   0.09106   0.10889
  Beta virt. eigenvalues --    0.14260   0.14320   0.15975   0.16918   0.20634
  Beta virt. eigenvalues --    0.23917   0.24957   0.28038   0.28222   0.28372

 Mulliken charges and spin densities:
               1          2
     1  O   -0.195114   0.934286
     2  O   -0.562596   0.084182
     3  C    0.391610  -0.024921
     4  H    0.070728  -0.000075
     5  H    0.147687   0.003264
     6  H    0.147686   0.003264
 Sum of Mulliken charges =  -0.00000   1.00000

 Dipole moment (field-independent basis, Debye):
    X=              2.2947    Y=             -0.6807    Z=              0.0000  Tot=              2.3935
                          Isotropic Fermi Contact Couplings
        Atom                 a.u.       MegaHertz       Gauss      10(-4) cm-1
     1  O(17)              0.26459    -160.39605     -57.23330     -53.50236
     2  O(17)              0.08899     -53.94274     -19.24811     -17.99336
     3  C(13)             -0.01146     -12.88246      -4.59678      -4.29713
     4  H(1)              -0.00083      -3.70759      -1.32296      -1.23672
     5  H(1)               0.00158       7.06829       2.52214       2.35773
     6  H(1)               0.00158       7.06835       2.52216       2.35775
 --------------------------------------------------------
       Center         ----  Spin Dipole Couplings  ----

 Normal termination of Gaussian 16 at Tue Apr  8 22:57:37 2025.
