 Gaussian 16, Revision C.01,

 ----------------------------------------------------------------------
 #t hf aug-cc-pvdz symm=none int=(grid=ultrafine) guess=(read,tcheck) s
 table=opt
 ----------------------------------------------------------------------
 -----
 title
 -----
 Symbolic Z-matrix:
 Charge =  0 Multiplicity = 2

 SCF Done:  E(UHF) =  -1124.76561186     A.U. after   20 cycles
 Normal termination of Gaussian 16 at Tue Apr  8 23:52:26 2025.
 Gaussian 16:  ES64L-G16RevC.01  3-Jul-2019

 ----------------------------------------------------------------------
 #t hf aug-cc-pvdz iop(5/13=1,5/36=2,99/5=2) pseudo=read geom=check gue
 ss=(read,tcheck) scf=(maxcycle=1)
 ----------------------------------------------------------------------
 -----
 title
 -----
 Structure from the checkpoint file:  "BDE49_nonexpt_1929_mol2.chk"
 Charge =  0 Multiplicity = 2

                         Standard orientation:
 ---------------------------------------------------------------------
 Center     Atomic      Atomic             Coordinates (Angstroms)
 Number     Number       Type             X           Y           Z
 ---------------------------------------------------------------------
      1         14           0       -1.912082    0.583410    0.017715
      2         16           0       -0.465206   -0.966812   -0.393044
      3          1           0       -2.313415    0.593259    1.447026
      4          1           0       -1.377260    1.915084   -0.365815
      5         16           0        1.167570   -0.166065    0.688749
      6          6           0        2.070491    0.765176   -0.596083
      7          1           0        2.951652    1.176099   -0.097124
      8          1           0        1.463533    1.581286   -0.986221
      9          1           0        2.383874    0.101505   -1.400668
 ---------------------------------------------------------------------

 SCF Done:  E(UHF) =  -1124.96255027     A.U. after    2 cycles

 The electronic state is 2-A.
 Alpha  occ. eigenvalues --  -93.98088 -93.96753 -69.57069 -11.27751  -8.25951
 Alpha  occ. eigenvalues --   -8.24882  -6.23955  -6.23842  -6.23544  -6.23319
 Alpha  occ. eigenvalues --   -6.22597  -6.22479  -6.22252  -3.99873  -3.99027
 Alpha  occ. eigenvalues --   -3.98913  -1.10264  -0.98797  -0.85333  -0.72812
 Alpha  occ. eigenvalues --   -0.61204  -0.60866  -0.54376  -0.51677  -0.49356
 Alpha  occ. eigenvalues --   -0.46773  -0.38639  -0.37847  -0.33298
 Alpha virt. eigenvalues --    0.03482   0.04024   0.04758   0.05497   0.06280
 Alpha virt. eigenvalues --    0.07147   0.07441   0.08093   0.09486   0.11358
 Alpha virt. eigenvalues --    0.12510   0.13264   0.13765   0.14750   0.15270

  Beta  occ. eigenvalues --  -93.98005 -93.96754 -69.56503 -11.27763  -8.25853
  Beta  occ. eigenvalues --   -8.24871  -6.23625  -6.23460  -6.23162  -6.23094
  Beta  occ. eigenvalues --   -6.22689  -6.22448  -6.22249  -3.98643  -3.98531
  Beta  occ. eigenvalues --   -3.97714  -1.09820  -0.98493  -0.84542  -0.68928
  Beta  occ. eigenvalues --   -0.60969  -0.60766  -0.54011  -0.50723  -0.48869
  Beta  occ. eigenvalues --   -0.45683  -0.38003  -0.36209
  Beta virt. eigenvalues --    0.01113   0.03547   0.04398   0.05271   0.05724
  Beta virt. eigenvalues --    0.06568   0.07414   0.08322   0.08971   0.09629
  Beta virt. eigenvalues --    0.11532   0.12836   0.14064   0.14379   0.14935

 Mulliken charges and spin densities:
               1          2
     1  Si   0.951563   0.942345
     2  S   -0.542244  -0.037221
     3  H   -0.147599   0.026455
     4  H   -0.169126   0.018144
     5  S    0.039271   0.061919
     6  C   -0.702866  -0.011262
     7  H    0.189772  -0.001791
     8  H    0.163169   0.002723
     9  H    0.218059  -0.001313
 Sum of Mulliken charges =  -0.00000   1.00000

 Dipole moment (field-independent basis, Debye):
    X=              0.4931    Y=              1.7408    Z=             -0.7769  Tot=              1.9691
                          Isotropic Fermi Contact Couplings
        Atom                 a.u.       MegaHertz       Gauss      10(-4) cm-1
     1  Si(29)             0.60824    -540.55631    -192.88393    -180.31018
     2  S(33)              0.06528      22.42084       8.00031       7.47879
     3  H(1)               0.00765      34.18973      12.19975      11.40447
     4  H(1)               0.00487      21.77997       7.77163       7.26502
     5  S(33)              0.02597       8.92063       3.18310       2.97560
     6  C(13)             -0.00184      -2.07108      -0.73901      -0.69084
     7  H(1)               0.00051       2.25841       0.80586       0.75332
     8  H(1)               0.00069       3.08820       1.10195       1.03011

 Normal termination of Gaussian 16 at Tue Apr  8 23:52:29 2025.
