 Gaussian 16, Revision C.01,

 ----------------------------------------------------------------------
 #t hf aug-cc-pvdz symm=none int=(grid=ultrafine) guess=(read,tcheck) s
 table=(opt,rrhf)
 ----------------------------------------------------------------------
 -----
 title
 -----
 Symbolic Z-matrix:
 Charge =  0 Multiplicity = 1

 SCF Done:  E(RHF) =  -725.788830776     A.U. after   13 cycles
 Normal termination of Gaussian 16 at Tue Apr  8 22:36:29 2025.
 Gaussian 16:  ES64L-G16RevC.01  3-Jul-2019

 ----------------------------------------------------------------------
 #t hf aug-cc-pvdz iop(5/13=1,5/36=2,99/5=2) pseudo=read geom=check gue
 ss=(read,tcheck) scf=(maxcycle=1)
 ----------------------------------------------------------------------
 -----
 title
 -----
 Structure from the checkpoint file:  "BDE49_expt_1129_mol1.chk"
 Charge =  0 Multiplicity = 1

                         Standard orientation:
 ---------------------------------------------------------------------
 Center     Atomic      Atomic             Coordinates (Angstroms)
 Number     Number       Type             X           Y           Z
 ---------------------------------------------------------------------
      1          6           0        0.457665    0.098960    0.000090
      2          8           0        0.469015    1.296621    0.000039
      3          8           0        1.556147   -0.682789    0.000029
      4          6           0       -0.764345   -0.810291    0.000008
      5          6           0        2.818237    0.015712   -0.000011
      6          1           0        3.579042   -0.761062   -0.000065
      7          1           0        2.905286    0.641564    0.889050
      8          1           0        2.905207    0.641611   -0.889046
      9          1           0       -0.740896   -1.446616   -0.883731
     10          1           0       -0.740987   -1.446640    0.883732
     11         17           0       -2.304605    0.096130   -0.000060
 ---------------------------------------------------------------------

 SCF Done:  E(RHF) =  -726.132756907     A.U. after    2 cycles

 The electronic state is 1-A.
 Alpha  occ. eigenvalues -- -105.56740 -20.60661 -20.55177 -11.40867 -11.32936
 Alpha  occ. eigenvalues --  -11.30965 -10.61530  -7.78487  -7.78080  -7.78077
 Alpha  occ. eigenvalues --   -1.55954  -1.46994  -1.12607  -1.01189  -0.92798
 Alpha  occ. eigenvalues --   -0.79633  -0.73041  -0.70184  -0.69317  -0.64438
 Alpha  occ. eigenvalues --   -0.61661  -0.56638  -0.55492  -0.54658  -0.47275
 Alpha  occ. eigenvalues --   -0.46779  -0.45333  -0.45231
 Alpha virt. eigenvalues --    0.03130   0.04224   0.04676   0.05282   0.06541
 Alpha virt. eigenvalues --    0.08469   0.09053   0.12538   0.13013   0.13638
 Alpha virt. eigenvalues --    0.13938   0.14333   0.15139   0.16091   0.16597

 Mulliken charges:
               1
     1  C    1.988633
     2  O   -1.108832
     3  O   -1.260866
     4  C   -0.915963
     5  C    0.243466
     6  H    0.015184
     7  H    0.171813
     8  H    0.171805
     9  H    0.326207
    10  H    0.326219
    11  Cl   0.042334
 Sum of Mulliken charges =  -0.00000

 Dipole moment (field-independent basis, Debye):
    X=              2.6093    Y=             -2.5414    Z=              0.0001  Tot=              3.6424

 Test job not archived.
 1\1\GINC-SE334\SP\RHF\Aug-CC-pVDZ\C3H5Cl1O2\OHZDE\08-Apr-2025\0\\#t hf
  aug-cc-pvdz iop(5/13=1,5/36=2,99/5=2) pseudo=read geom=check guess=(r
 ead,tcheck) scf=(maxcycle=1)\\title\\0,1\C,0,-0.457665,0.09896,-0.0000
 9\O,0,-0.469015,1.296621,-0.000039\O,0,-1.556147,-0.682789,-0.000029\C
 ,0,0.764345,-0.810291,-0.000008\C,0,-2.818237,0.015712,0.000011\H,0,-3
 .579042,-0.761062,0.000065\H,0,-2.905286,0.641564,-0.88905\H,0,-2.9052
 07,0.641611,0.889046\H,0,0.740896,-1.446616,0.883731\H,0,0.740987,-1.4
 4664,-0.883732\Cl,0,2.304605,0.09613,0.00006\\Version=ES64L-G16RevC.01

 Normal termination of Gaussian 16 at Tue Apr  8 22:36:33 2025.
