 Gaussian 16, Revision C.01,

 ----------------------------------------------------------------------
 #t hf aug-cc-pvdz symm=none int=(grid=ultrafine) guess=(read,tcheck) s
 table=(opt,rrhf)
 ----------------------------------------------------------------------
 -----
 title
 -----
 Symbolic Z-matrix:
 Charge =  0 Multiplicity = 1

 SCF Done:  E(RHF) =  -1887.56154572     A.U. after   11 cycles
 Normal termination of Gaussian 16 at Tue Apr  8 23:27:00 2025.
 Gaussian 16:  ES64L-G16RevC.01  3-Jul-2019

 ----------------------------------------------------------------------
 #t hf aug-cc-pvdz iop(5/13=1,5/36=2,99/5=2) pseudo=read geom=check gue
 ss=(read,tcheck) scf=(maxcycle=1)
 ----------------------------------------------------------------------
 -----
 title
 -----
 Structure from the checkpoint file:  "BDE49_nonexpt_12_mol1.chk"
 Charge =  0 Multiplicity = 1

                         Standard orientation:
 ---------------------------------------------------------------------
 Center     Atomic      Atomic             Coordinates (Angstroms)
 Number     Number       Type             X           Y           Z
 ---------------------------------------------------------------------
      1          5           0        0.842179   -0.000251    0.000139
      2          5           0       -0.842203   -0.000767   -0.000745
      3         17           0       -1.728544   -1.079846    1.065693
      4         17           0        1.729128   -1.066223   -1.078901
      5         17           0       -1.727994    1.079676   -1.066244
      6         17           0        1.727417    1.066692    1.079631
 ---------------------------------------------------------------------

 SCF Done:  E(RHF) =  -1887.90990615     A.U. after    2 cycles

 The electronic state is 1-A.
 Alpha  occ. eigenvalues -- -105.59385-105.59385-105.59384-105.59384 -10.64405
 Alpha  occ. eigenvalues --  -10.64405 -10.64378 -10.64378  -7.81293  -7.81293
 Alpha  occ. eigenvalues --   -7.81273  -7.81271  -7.81002  -7.81000  -7.80997
 Alpha  occ. eigenvalues --   -7.80996  -7.80957  -7.80955  -7.80948  -7.80947
 Alpha  occ. eigenvalues --   -7.72547  -7.72462  -1.13279  -1.11757  -1.07474
 Alpha  occ. eigenvalues --   -1.07473  -0.76756  -0.68036  -0.61495  -0.60420
 Alpha  occ. eigenvalues --   -0.60418  -0.54093  -0.54092  -0.52542  -0.49649
 Alpha  occ. eigenvalues --   -0.48958  -0.48195  -0.48194  -0.44533
 Alpha virt. eigenvalues --    0.04475   0.04544   0.04654   0.04657   0.05822
 Alpha virt. eigenvalues --    0.05824   0.07465   0.07465   0.07492   0.11291
 Alpha virt. eigenvalues --    0.12690   0.13921   0.13928   0.15749   0.15750

 Mulliken charges:
               1
     1  B    0.622387
     2  B    0.622403
     3  Cl  -0.311194
     4  Cl  -0.311191
     5  Cl  -0.311194
     6  Cl  -0.311212
 Sum of Mulliken charges =  -0.00000

 Dipole moment (field-independent basis, Debye):
    X=             -0.0001    Y=             -0.0012    Z=             -0.0008  Tot=              0.0014

 Test job not archived.
 1\1\GINC-SE102\SP\RHF\Aug-CC-pVDZ\B2Cl4\OHZDE\08-Apr-2025\0\\#t hf aug
 -cc-pvdz iop(5/13=1,5/36=2,99/5=2) pseudo=read geom=check guess=(read,
 tcheck) scf=(maxcycle=1)\\title\\0,1\B,0,0.842179,-0.000251,0.000139\B
 ,0,-0.842203,-0.000767,-0.000745\Cl,0,-1.728544,-1.079846,1.065693\Cl,
 0,1.729128,-1.066223,-1.078901\Cl,0,-1.727994,1.079676,-1.066244\Cl,0,
 1.727417,1.066692,1.079631\\Version=ES64L-G16RevC.01\State=1-A\HF=-188
 7.9099062\RMSD=1.413e-02\Dipole=-0.0000388,-0.0004696,-0.0002955\Quadr
 upole=-1.3831956,0.6910338,0.6921618,0.000449,0.0007694,-0.0000695\PG=

 Normal termination of Gaussian 16 at Tue Apr  8 23:27:03 2025.
