 Gaussian 16, Revision C.01,

 ----------------------------------------------------------------------
 #t hf aug-cc-pvdz symm=none int=(grid=ultrafine) guess=(read,tcheck) s
 table=(opt,rrhf)
 ----------------------------------------------------------------------
 -----
 title
 -----
 Symbolic Z-matrix:
 Charge =  0 Multiplicity = 1

 SCF Done:  E(RHF) =  -228.972872269     A.U. after   11 cycles
 Normal termination of Gaussian 16 at Tue Apr  8 22:32:39 2025.
 Gaussian 16:  ES64L-G16RevC.01  3-Jul-2019

 ----------------------------------------------------------------------
 #t hf aug-cc-pvdz iop(5/13=1,5/36=2,99/5=2) pseudo=read geom=check gue
 ss=(read,tcheck) scf=(maxcycle=1)
 ----------------------------------------------------------------------
 -----
 title
 -----
 Structure from the checkpoint file:  "BDE49_expt_1069_mol1.chk"
 Charge =  0 Multiplicity = 1

                         Standard orientation:
 ---------------------------------------------------------------------
 Center     Atomic      Atomic             Coordinates (Angstroms)
 Number     Number       Type             X           Y           Z
 ---------------------------------------------------------------------
      1          6           0        0.574196   -0.495930    0.000000
      2          6           0       -0.574196    0.495930    0.000000
      3          8           0        1.779844    0.260933   -0.000001
      4          1           0        0.491959   -1.135399   -0.889189
      5          1           0        0.491961   -1.135397    0.889192
      6          1           0        2.518303   -0.353272   -0.000003
      7          8           0       -1.779844   -0.260933    0.000000
      8          1           0       -0.491960    1.135398   -0.889191
      9          1           0       -0.491960    1.135399    0.889190
     10          1           0       -2.518303    0.353272    0.000007
 ---------------------------------------------------------------------

 SCF Done:  E(RHF) =  -229.211651161     A.U. after    2 cycles

 The electronic state is 1-A.
 Alpha  occ. eigenvalues --  -20.55211 -20.55208 -11.28432 -11.28415  -1.45650
 Alpha  occ. eigenvalues --   -1.44469  -1.00571  -0.83498  -0.72300  -0.67468
 Alpha  occ. eigenvalues --   -0.66850  -0.58210  -0.57969  -0.53823  -0.48721
 Alpha  occ. eigenvalues --   -0.45002  -0.44077
 Alpha virt. eigenvalues --    0.03772   0.03899   0.04898   0.05221   0.06949
 Alpha virt. eigenvalues --    0.07772   0.11824   0.12999   0.13808   0.14929
 Alpha virt. eigenvalues --    0.15590   0.17496   0.17757   0.19823   0.21542

 Mulliken charges:
               1
     1  C    0.554791
     2  C    0.554790
     3  O   -1.137793
     4  H    0.130977
     5  H    0.130979
     6  H    0.321046
     7  O   -1.137793
     8  H    0.130979
     9  H    0.130978
    10  H    0.321046
 Sum of Mulliken charges =  -0.00000

 Dipole moment (field-independent basis, Debye):
    X=             -0.0000    Y=             -0.0000    Z=              0.0000  Tot=              0.0000

 Test job not archived.
 1\1\GINC-SE059\SP\RHF\Aug-CC-pVDZ\C2H6O2\OHZDE\08-Apr-2025\0\\#t hf au
 g-cc-pvdz iop(5/13=1,5/36=2,99/5=2) pseudo=read geom=check guess=(read
 ,tcheck) scf=(maxcycle=1)\\title\\0,1\C,0,-0.574196,0.49593,0.\C,0,0.5
 74196,-0.49593,0.\O,0,-1.779844,-0.260932,-0.000001\H,0,-0.491959,1.13
 5399,-0.889189\H,0,-0.491961,1.135397,0.889192\H,0,-2.518303,0.353273,
 -0.000003\O,0,1.779844,0.260932,0.\H,0,0.49196,-1.135398,-0.889191\H,0
 ,0.49196,-1.135399,0.88919\H,0,2.518303,-0.353273,0.000007\\Version=ES
 64L-G16RevC.01\State=1-A\HF=-229.2116512\RMSD=1.031e-02\Dipole=0.,0.,0

 Normal termination of Gaussian 16 at Tue Apr  8 22:32:41 2025.
