 Gaussian 16, Revision C.01,

 ----------------------------------------------------------------------
 #t hf aug-cc-pvdz symm=none int=(grid=ultrafine) guess=(read,tcheck) s
 table=(opt,rrhf)
 ----------------------------------------------------------------------
 -----
 title
 -----
 Symbolic Z-matrix:
 Charge =  0 Multiplicity = 1

 SCF Done:  E(RHF) =  -266.448885406     A.U. after   14 cycles
 Normal termination of Gaussian 16 at Tue Apr  8 23:19:49 2025.
 Gaussian 16:  ES64L-G16RevC.01  3-Jul-2019

 ----------------------------------------------------------------------
 #t hf aug-cc-pvdz iop(5/13=1,5/36=2,99/5=2) pseudo=read geom=check gue
 ss=(read,tcheck) scf=(maxcycle=1)
 ----------------------------------------------------------------------
 -----
 title
 -----
 Structure from the checkpoint file:  "BDE49_nonexpt_1137_mol1.chk"
 Charge =  0 Multiplicity = 1

                         Standard orientation:
 ---------------------------------------------------------------------
 Center     Atomic      Atomic             Coordinates (Angstroms)
 Number     Number       Type             X           Y           Z
 ---------------------------------------------------------------------
      1          9           0       -0.201042   -1.503637    0.000000
      2          8           0        0.727377   -0.345389    0.000000
      3          6           0       -0.000000    0.709974    0.000000
      4          7           0       -0.572806    1.719429    0.000000
 ---------------------------------------------------------------------

 SCF Done:  E(RHF) =  -266.693325674     A.U. after    2 cycles

 The electronic state is 1-A'.
 Alpha  occ. eigenvalues --  -26.59329 -20.78539 -15.57127 -11.38797  -1.73779
 Alpha  occ. eigenvalues --   -1.49550  -1.27630  -0.88286  -0.78575  -0.76117
 Alpha  occ. eigenvalues --   -0.68046  -0.66394  -0.65488  -0.54153  -0.52548
 Alpha virt. eigenvalues --    0.00950   0.05826   0.09051   0.09386   0.10478
 Alpha virt. eigenvalues --    0.17073   0.17619   0.19118   0.19365   0.21204
 Alpha virt. eigenvalues --    0.24318   0.24759   0.26133   0.26477   0.28923

 Mulliken charges:
               1
     1  F   -0.251078
     2  O   -0.314416
     3  C    0.023929
     4  N    0.541565
 Sum of Mulliken charges =  -0.00000

 Dipole moment (field-independent basis, Debye):
    X=              1.2961    Y=             -2.1364    Z=              0.0000  Tot=              2.4988

 Test job not archived.
 1\1\GINC-SE074\SP\RHF\Aug-CC-pVDZ\C1F1N1O1\OHZDE\08-Apr-2025\0\\#t hf
 aug-cc-pvdz iop(5/13=1,5/36=2,99/5=2) pseudo=read geom=check guess=(re
 ad,tcheck) scf=(maxcycle=1)\\title\\0,1\F,0,-0.201041,-1.503637,0.\O,0
 ,0.727377,-0.345389,0.\C,0,0.,0.709974,0.\N,0,-0.572806,1.719429,0.\\V
 ersion=ES64L-G16RevC.01\State=1-A'\HF=-266.6933257\RMSD=1.380e-02\Dipo
 le=0.5099285,-0.8405347,0.\Quadrupole=1.093312,-2.584249,1.4909371,2.0
 137597,0.,0.\PG=CS [SG(C1F1N1O1)]\\@

 Normal termination of Gaussian 16 at Tue Apr  8 23:19:50 2025.
