 Gaussian 16, Revision C.01,

 ----------------------------------------------------------------------
 #t hf aug-cc-pvdz symm=none int=(grid=ultrafine) guess=(read,tcheck) s
 table=(opt,rrhf)
 ----------------------------------------------------------------------
 -----
 title
 -----
 Symbolic Z-matrix:
 Charge =  0 Multiplicity = 1

 SCF Done:  E(RHF) =  -1287.84380194     A.U. after   16 cycles
 Normal termination of Gaussian 16 at Wed Apr  9 00:14:23 2025.
 Gaussian 16:  ES64L-G16RevC.01  3-Jul-2019

 ----------------------------------------------------------------------
 #t hf aug-cc-pvdz iop(5/13=1,5/36=2,99/5=2) pseudo=read geom=check gue
 ss=(read,tcheck) scf=(maxcycle=1)
 ----------------------------------------------------------------------
 -----
 title
 -----
 Structure from the checkpoint file:  "BDE49_nonexpt_241_mol1.chk"
 Charge =  0 Multiplicity = 1

                         Standard orientation:
 ---------------------------------------------------------------------
 Center     Atomic      Atomic             Coordinates (Angstroms)
 Number     Number       Type             X           Y           Z
 ---------------------------------------------------------------------
      1         17           0       -1.895351   -1.988658   -0.000014
      2         17           0       -3.192801    0.726184   -0.000012
      3          5           0       -1.697551   -0.224617    0.000027
      4          6           0       -0.305265    0.438355    0.000017
      5          6           0        0.863961   -0.353313    0.000012
      6          6           0        2.124105    0.239579    0.000003
      7          6           0        2.231528    1.637812   -0.000000
      8          6           0       -0.173171    1.836944    0.000013
      9          1           0       -1.056907    2.461746    0.000017
     10          6           0        1.089526    2.424954    0.000005
     11          1           0        1.185203    3.504703    0.000002
     12          1           0        3.222375    2.076205   -0.000007
     13          1           0        0.766291   -1.429517    0.000015
     14          8           0        3.303456   -0.439742   -0.000002
     15          6           0        3.268465   -1.861983   -0.000000
     16          1           0        2.769135   -2.250664   -0.894094
     17          1           0        2.769146   -2.250662    0.894101
     18          1           0        4.308540   -2.182815   -0.000006
 ---------------------------------------------------------------------

 SCF Done:  E(RHF) =  -1288.36987632     A.U. after    2 cycles

 The electronic state is 1-A.
 Alpha  occ. eigenvalues -- -105.57194-105.57083 -20.58121 -11.31756 -11.30306
 Alpha  occ. eigenvalues --  -11.25939 -11.25834 -11.25771 -11.25698 -11.24700
 Alpha  occ. eigenvalues --  -10.62204 -10.62090  -7.79099  -7.78988  -7.78817
 Alpha  occ. eigenvalues --   -7.78788  -7.78706  -7.78673  -7.71349  -1.50597
 Alpha  occ. eigenvalues --   -1.16701  -1.10574  -1.05425  -1.03726  -1.02943
 Alpha  occ. eigenvalues --   -0.95669  -0.86307  -0.83167  -0.75153  -0.69590
 Alpha  occ. eigenvalues --   -0.68967  -0.67765  -0.66506  -0.63604  -0.60851
 Alpha  occ. eigenvalues --   -0.60078  -0.56912  -0.54998  -0.54738  -0.52938
 Alpha  occ. eigenvalues --   -0.52455  -0.50663  -0.47855  -0.47380  -0.47378
 Alpha  occ. eigenvalues --   -0.45798  -0.36694  -0.33228
 Alpha virt. eigenvalues --    0.03196   0.03415   0.03573   0.04079   0.04606
 Alpha virt. eigenvalues --    0.05171   0.05316   0.06430   0.06579   0.08321
 Alpha virt. eigenvalues --    0.08656   0.10479   0.10823   0.11392   0.12365

 Mulliken charges:
               1
     1  Cl  -0.360099
     2  Cl  -0.377598
     3  B    0.439182
     4  C    0.947267
     5  C   -0.592380
     6  C    1.967718
     7  C    0.246645
     8  C   -0.100077
     9  H   -0.345097
    10  C    0.585796
    11  H   -0.217346
    12  H   -0.277949
    13  H   -0.478273
    14  O   -1.907996
    15  C    0.154605
    16  H    0.187987
    17  H    0.187986
    18  H   -0.060372
 Sum of Mulliken charges =  -0.00000

 Dipole moment (field-independent basis, Debye):
    X=              2.2701    Y=             -0.0382    Z=              0.0001  Tot=              2.2704

 Test job not archived.
 1\1\GINC-SE423\SP\RHF\Aug-CC-pVDZ\C7H7B1Cl2O1\OHZDE\09-Apr-2025\0\\#t
 hf aug-cc-pvdz iop(5/13=1,5/36=2,99/5=2) pseudo=read geom=check guess=
 (read,tcheck) scf=(maxcycle=1)\\title\\0,1\Cl,0,1.895351,-1.988658,0.0
 00014\Cl,0,3.192801,0.726184,0.000012\B,0,1.697551,-0.224617,-0.000027
 \C,0,0.305265,0.438355,-0.000017\C,0,-0.863961,-0.353313,-0.000012\C,0
 ,-2.124105,0.239579,-0.000003\C,0,-2.231528,1.637812,0.\C,0,0.173171,1
 .836944,-0.000013\H,0,1.056907,2.461746,-0.000017\C,0,-1.089526,2.4249
 54,-0.000005\H,0,-1.185203,3.504703,-0.000002\H,0,-3.222375,2.076205,0

 Normal termination of Gaussian 16 at Wed Apr  9 00:14:34 2025.
