 Gaussian 16, Revision C.01,

 ----------------------------------------------------------------------
 #t hf aug-cc-pvdz symm=none int=(grid=ultrafine) guess=(read,tcheck) s
 table=(opt,rrhf)
 ----------------------------------------------------------------------
 -----
 title
 -----
 Symbolic Z-matrix:
 Charge =  0 Multiplicity = 1

 SCF Done:  E(RHF) =  -611.926027001     A.U. after   17 cycles
 Normal termination of Gaussian 16 at Wed Apr  9 00:06:07 2025.
 Gaussian 16:  ES64L-G16RevC.01  3-Jul-2019

 ----------------------------------------------------------------------
 #t hf aug-cc-pvdz iop(5/13=1,5/36=2,99/5=2) pseudo=read geom=check gue
 ss=(read,tcheck) scf=(maxcycle=1)
 ----------------------------------------------------------------------
 -----
 title
 -----
 Structure from the checkpoint file:  "BDE49_nonexpt_2217_mol1.chk"
 Charge =  0 Multiplicity = 1

                         Standard orientation:
 ---------------------------------------------------------------------
 Center     Atomic      Atomic             Coordinates (Angstroms)
 Number     Number       Type             X           Y           Z
 ---------------------------------------------------------------------
      1         14           0        0.603954    1.174085    0.146613
      2          8           0        1.547187    0.150818   -0.879192
      3          7           0        2.158483   -1.007321   -0.405135
      4          8           0        1.949442   -1.232504    0.737150
      5          6           0       -1.010726    0.377258    0.658756
      6          6           0       -1.901443   -0.103244   -0.503597
      7          1           0       -1.548467    1.127969    1.255171
      8          1           0       -0.795657   -0.450930    1.342672
      9          6           0       -3.226546   -0.708189   -0.029203
     10          1           0       -1.357509   -0.843859   -1.099400
     11          1           0       -2.106503    0.735000   -1.179121
     12          1           0       -3.054816   -1.571860    0.620220
     13          1           0       -3.834881   -1.041598   -0.874439
     14          1           0       -3.812905    0.021582    0.537507
     15          1           0        0.382286    2.325567   -0.748956
     16          1           0        1.422972    1.570731    1.310310
 ---------------------------------------------------------------------

 SCF Done:  E(RHF) =  -612.284272784     A.U. after    2 cycles

 The electronic state is 1-A.
 Alpha  occ. eigenvalues --  -69.56938 -20.63994 -20.59806 -15.73130 -11.24431
 Alpha  occ. eigenvalues --  -11.23195 -11.23054  -6.23584  -3.99037  -3.98899
 Alpha  occ. eigenvalues --   -3.98861  -1.67269  -1.47414  -1.06932  -0.98517
 Alpha  occ. eigenvalues --   -0.93929  -0.82232  -0.79009  -0.75470  -0.70099
 Alpha  occ. eigenvalues --   -0.68531  -0.64554  -0.59082  -0.56973  -0.56421
 Alpha  occ. eigenvalues --   -0.53927  -0.51496  -0.50453  -0.48958  -0.48242
 Alpha  occ. eigenvalues --   -0.46488  -0.44350
 Alpha virt. eigenvalues --    0.03502   0.03808   0.03963   0.04422   0.05995
 Alpha virt. eigenvalues --    0.06365   0.06392   0.07059   0.07394   0.08682
 Alpha virt. eigenvalues --    0.09702   0.10165   0.10463   0.12575   0.13978

 Mulliken charges:
               1
     1  Si   1.692671
     2  O   -1.603097
     3  N    1.696586
     4  O   -1.025113
     5  C   -0.534965
     6  C   -0.338065
     7  H    0.056658
     8  H    0.144198
     9  C   -0.368603
    10  H    0.108372
    11  H    0.079773
    12  H    0.161733
    13  H    0.124533
    14  H    0.166847
    15  H   -0.166986
    16  H   -0.194541
 Sum of Mulliken charges =   0.00000

 Dipole moment (field-independent basis, Debye):
    X=             -2.0703    Y=              1.1216    Z=              0.9193  Tot=              2.5277

 Test job not archived.
 1\1\GINC-SE396\SP\RHF\Aug-CC-pVDZ\C3H9N1O2Si1\OHZDE\09-Apr-2025\0\\#t
 hf aug-cc-pvdz iop(5/13=1,5/36=2,99/5=2) pseudo=read geom=check guess=
 (read,tcheck) scf=(maxcycle=1)\\title\\0,1\Si,0,0.603954,1.174085,0.14
 6613\O,0,1.547187,0.150818,-0.879192\N,0,2.158483,-1.007321,-0.405135\
 O,0,1.949442,-1.232504,0.73715\C,0,-1.010726,0.377258,0.658756\C,0,-1.
 901443,-0.103244,-0.503597\H,0,-1.548467,1.127969,1.255171\H,0,-0.7956
 57,-0.45093,1.342672\C,0,-3.226546,-0.708189,-0.029203\H,0,-1.357509,-
 0.843859,-1.0994\H,0,-2.106503,0.735,-1.179121\H,0,-3.054816,-1.57186,

 Normal termination of Gaussian 16 at Wed Apr  9 00:06:13 2025.
