 Gaussian 16, Revision C.01,

 ----------------------------------------------------------------------
 #t hf aug-cc-pvdz symm=none int=(grid=ultrafine) guess=(read,tcheck) s
 table=(opt,rrhf)
 ----------------------------------------------------------------------
 -----
 title
 -----
 Symbolic Z-matrix:
 Charge =  0 Multiplicity = 1

 SCF Done:  E(RHF) =  -1403.33032083     A.U. after   10 cycles
 Normal termination of Gaussian 16 at Wed Apr  9 00:08:27 2025.
 Gaussian 16:  ES64L-G16RevC.01  3-Jul-2019

 ----------------------------------------------------------------------
 #t hf aug-cc-pvdz iop(5/13=1,5/36=2,99/5=2) pseudo=read geom=check gue
 ss=(read,tcheck) scf=(maxcycle=1)
 ----------------------------------------------------------------------
 -----
 title
 -----
 Structure from the checkpoint file:  "BDE49_nonexpt_230_mol1.chk"
 Charge =  0 Multiplicity = 1

                         Standard orientation:
 ---------------------------------------------------------------------
 Center     Atomic      Atomic             Coordinates (Angstroms)
 Number     Number       Type             X           Y           Z
 ---------------------------------------------------------------------
      1         17           0       -1.545552   -0.823758   -0.000003
      2          5           0       -0.000002   -0.000002    0.000029
      3         17           0        1.486176   -0.926600   -0.000003
      4         17           0        0.059377    1.750359   -0.000003
 ---------------------------------------------------------------------

 SCF Done:  E(RHF) =  -1403.58050016     A.U. after    2 cycles

 The electronic state is 1-A.
 Alpha  occ. eigenvalues -- -105.59505-105.59505-105.59505 -10.64560 -10.64560
 Alpha  occ. eigenvalues --  -10.64513  -7.81455  -7.81455  -7.81419  -7.81136
 Alpha  occ. eigenvalues --   -7.81136  -7.81132  -7.81095  -7.81095  -7.81078
 Alpha  occ. eigenvalues --   -7.77852  -1.14997  -1.07989  -1.07989  -0.71741
 Alpha  occ. eigenvalues --   -0.62510  -0.62510  -0.56887  -0.50581  -0.50581
 Alpha  occ. eigenvalues --   -0.49546  -0.49546  -0.46832
 Alpha virt. eigenvalues --    0.04747   0.05416   0.05667   0.05667   0.06465
 Alpha virt. eigenvalues --    0.12500   0.12500   0.12864   0.14859   0.14859
 Alpha virt. eigenvalues --    0.18373   0.18373   0.18573   0.18924   0.20027

 Mulliken charges:
               1
     1  Cl  -0.229843
     2  B    0.689532
     3  Cl  -0.229848
     4  Cl  -0.229841
 Sum of Mulliken charges =  -0.00000

 Dipole moment (field-independent basis, Debye):
    X=             -0.0000    Y=              0.0000    Z=              0.0001  Tot=              0.0001

 Test job not archived.
 1\1\GINC-SE071\SP\RHF\Aug-CC-pVDZ\B1Cl3\OHZDE\09-Apr-2025\0\\#t hf aug
 -cc-pvdz iop(5/13=1,5/36=2,99/5=2) pseudo=read geom=check guess=(read,
 tcheck) scf=(maxcycle=1)\\title\\0,1\Cl,0,1.533659,-0.845693,0.000003\
 B,0,0.000002,-0.000002,-0.000029\Cl,0,-1.499226,-0.905333,0.000003\Cl,
 0,-0.034434,1.751027,0.000003\\Version=ES64L-G16RevC.01\State=1-A\HF=-
 1403.5805002\RMSD=3.311e-03\Dipole=0.0000077,0.000004,-0.0000209\Quadr
 upole=-0.3392018,-0.3392087,0.6784104,-0.0000169,0.,0.\PG=C01 [X(B1Cl3
 )]\\@

 Normal termination of Gaussian 16 at Wed Apr  9 00:08:28 2025.
