 Gaussian 16, Revision C.01,

 ----------------------------------------------------------------------
 #t hf aug-cc-pvdz symm=none int=(grid=ultrafine) guess=(read,tcheck) s
 table=(opt,rrhf)
 ----------------------------------------------------------------------
 -----
 title
 -----
 Symbolic Z-matrix:
 Charge =  0 Multiplicity = 1

 SCF Done:  E(RHF) =  -462.244400315     A.U. after   13 cycles
 Normal termination of Gaussian 16 at Tue Apr  8 23:59:35 2025.
 Gaussian 16:  ES64L-G16RevC.01  3-Jul-2019

 ----------------------------------------------------------------------
 #t hf aug-cc-pvdz iop(5/13=1,5/36=2,99/5=2) pseudo=read geom=check gue
 ss=(read,tcheck) scf=(maxcycle=1)
 ----------------------------------------------------------------------
 -----
 title
 -----
 Structure from the checkpoint file:  "BDE49_nonexpt_2090_mol1.chk"
 Charge =  0 Multiplicity = 1

                         Standard orientation:
 ---------------------------------------------------------------------
 Center     Atomic      Atomic             Coordinates (Angstroms)
 Number     Number       Type             X           Y           Z
 ---------------------------------------------------------------------
      1          7           0        0.263175   -0.619512   -0.000008
      2          6           0       -1.120794    1.444598    0.000001
      3          6           0       -0.872091   -0.053045   -0.000018
      4          6           0       -2.127831   -0.900148    0.000005
      5         14           0        1.901420   -0.067020    0.000005
      6          1           0       -0.193272    2.015748    0.000005
      7          1           0       -1.710805    1.727341    0.878089
      8          1           0       -1.710808    1.727359   -0.878080
      9          1           0       -1.864913   -1.956389    0.000012
     10          1           0       -2.742028   -0.676122   -0.879072
     11          1           0       -2.742011   -0.676108    0.879090
     12          1           0        2.552241   -0.621659   -1.207669
     13          1           0        2.552223   -0.621654    1.207690
     14          1           0        2.121562    1.407914    0.000003
 ---------------------------------------------------------------------

 SCF Done:  E(RHF) =  -462.463129492     A.U. after    2 cycles

 The electronic state is 1-A.
 Alpha  occ. eigenvalues --  -69.53462 -15.46679 -11.30995 -11.24490 -11.23640
 Alpha  occ. eigenvalues --   -6.20257  -3.95686  -3.95621  -3.95613  -1.20754
 Alpha  occ. eigenvalues --   -1.01891  -0.96071  -0.81266  -0.69025  -0.63445
 Alpha  occ. eigenvalues --   -0.62545  -0.61903  -0.55951  -0.55781  -0.53308
 Alpha  occ. eigenvalues --   -0.50853  -0.48247  -0.43185  -0.40355
 Alpha virt. eigenvalues --    0.03344   0.04298   0.04351   0.04643   0.05856
 Alpha virt. eigenvalues --    0.06404   0.06533   0.06891   0.07983   0.09433
 Alpha virt. eigenvalues --    0.10567   0.11310   0.12320   0.13008   0.14300

 Mulliken charges:
               1
     1  N    0.663651
     2  C   -0.217391
     3  C   -1.522914
     4  C   -0.275297
     5  Si   0.660139
     6  H    0.042579
     7  H    0.251235
     8  H    0.251240
     9  H    0.119994
    10  H    0.247517
    11  H    0.247513
    12  H   -0.126814
    13  H   -0.126813
    14  H   -0.214639
 Sum of Mulliken charges =  -0.00000

 Dipole moment (field-independent basis, Debye):
    X=             -2.2211    Y=              1.7063    Z=              0.0000  Tot=              2.8008

 Test job not archived.
 1\1\GINC-SE335\SP\RHF\Aug-CC-pVDZ\C3H9N1Si1\OHZDE\08-Apr-2025\0\\#t hf
  aug-cc-pvdz iop(5/13=1,5/36=2,99/5=2) pseudo=read geom=check guess=(r
 ead,tcheck) scf=(maxcycle=1)\\title\\0,1\N,0,0.263175,-0.619512,-0.000
 008\C,0,-1.120794,1.444598,0.000001\C,0,-0.872091,-0.053045,-0.000018\
 C,0,-2.127831,-0.900148,0.000005\Si,0,1.90142,-0.06702,0.000005\H,0,-0
 .193272,2.015748,0.000005\H,0,-1.710805,1.727341,0.878089\H,0,-1.71080
 8,1.727359,-0.87808\H,0,-1.864913,-1.956389,0.000012\H,0,-2.742028,-0.
 676122,-0.879072\H,0,-2.742011,-0.676108,0.87909\H,0,2.552241,-0.62165

 Normal termination of Gaussian 16 at Tue Apr  8 23:59:39 2025.
