 Gaussian 16, Revision C.01,

 ----------------------------------------------------------------------
 #t hf aug-cc-pvdz symm=none int=(grid=ultrafine) guess=(read,tcheck) s
 table=opt
 ----------------------------------------------------------------------
 -----
 title
 -----
 Symbolic Z-matrix:
 Charge =  0 Multiplicity = 2

 SCF Done:  E(UHF) =  -446.787069266     A.U. after   15 cycles
 Normal termination of Gaussian 16 at Tue Apr  8 23:44:42 2025.
 Gaussian 16:  ES64L-G16RevC.01  3-Jul-2019

 ----------------------------------------------------------------------
 #t hf aug-cc-pvdz iop(5/13=1,5/36=2,99/5=2) pseudo=read geom=check gue
 ss=(read,tcheck) scf=(maxcycle=1)
 ----------------------------------------------------------------------
 -----
 title
 -----
 Structure from the checkpoint file:  "BDE49_nonexpt_1733_mol2.chk"
 Charge =  0 Multiplicity = 2

                         Standard orientation:
 ---------------------------------------------------------------------
 Center     Atomic      Atomic             Coordinates (Angstroms)
 Number     Number       Type             X           Y           Z
 ---------------------------------------------------------------------
      1          6           0        0.440746   -0.239126   -0.000000
      2          6           0       -0.775052    0.711986   -0.000001
      3         14           0       -2.451099   -0.167600    0.000001
      4          6           0        1.786410    0.501058   -0.000001
      5          1           0       -0.733484    1.369869    0.875976
      6          1           0       -0.733484    1.369866   -0.875979
      7          1           0        0.393514   -0.896776   -0.876168
      8          1           0        0.393514   -0.896774    0.876170
      9          6           0        2.991627   -0.443526   -0.000000
     10          1           0        1.833593    1.158053    0.876634
     11          1           0        1.833593    1.158051   -0.876638
     12          1           0        2.987989   -1.090127    0.882977
     13          1           0        3.933104    0.112512   -0.000001
     14          1           0        2.987989   -1.090130   -0.882975
     15          1           0       -2.621669   -1.015246    1.211436
     16          1           0       -2.621670   -1.015250   -1.211432
 ---------------------------------------------------------------------

 SCF Done:  E(UHF) =  -446.995098460     A.U. after    2 cycles

 The electronic state is 2-A.
 Alpha  occ. eigenvalues --  -69.52883 -11.23571 -11.22954 -11.22596 -11.22416
 Alpha  occ. eigenvalues --   -6.20025  -3.95988  -3.95077  -3.95065  -1.07805
 Alpha  occ. eigenvalues --   -0.98720  -0.87179  -0.79981  -0.71399  -0.65141
 Alpha  occ. eigenvalues --   -0.59595  -0.58501  -0.55732  -0.51536  -0.51100
 Alpha  occ. eigenvalues --   -0.48586  -0.47774  -0.47317  -0.43977  -0.32513
 Alpha virt. eigenvalues --    0.03731   0.03818   0.03925   0.03948   0.05288
 Alpha virt. eigenvalues --    0.06188   0.06447   0.07214   0.08232   0.08961
 Alpha virt. eigenvalues --    0.09226   0.10330   0.10356   0.12113   0.12461

  Beta  occ. eigenvalues --  -69.52327 -11.23474 -11.22924 -11.22560 -11.22413
  Beta  occ. eigenvalues --   -6.19184  -3.94693  -3.94683  -3.93829  -1.07591
  Beta  occ. eigenvalues --   -0.98423  -0.86765  -0.79820  -0.67409  -0.65071
  Beta  occ. eigenvalues --   -0.59271  -0.58401  -0.55407  -0.51380  -0.50588
  Beta  occ. eigenvalues --   -0.48356  -0.47492  -0.46817  -0.43123
  Beta virt. eigenvalues --    0.02557   0.03805   0.03940   0.04009   0.04821
  Beta virt. eigenvalues --    0.05571   0.06267   0.07227   0.07733   0.08420
  Beta virt. eigenvalues --    0.09408   0.09426   0.10379   0.10597   0.12170

 Mulliken charges and spin densities:
               1          2
     1  C   -0.256763   0.008931
     2  C   -0.635372  -0.030522
     3  Si   0.621588   1.007702
     4  C   -0.258529   0.003137
     5  H    0.150569   0.000266
     6  H    0.150566   0.000266
     7  H    0.107502  -0.007211
     8  H    0.107503  -0.007211
     9  C   -0.376470  -0.001057
    10  H    0.121776   0.000058
    11  H    0.121777   0.000058
    12  H    0.162286   0.000211
    13  H    0.117233  -0.000026
    14  H    0.162287   0.000211
    15  H   -0.147976   0.012594
    16  H   -0.147977   0.012594
 Sum of Mulliken charges =  -0.00000   1.00000

 Dipole moment (field-independent basis, Debye):
    X=              0.9302    Y=              0.3796    Z=              0.0000  Tot=              1.0047
                          Isotropic Fermi Contact Couplings
        Atom                 a.u.       MegaHertz       Gauss      10(-4) cm-1
     1  C(13)              0.02441      27.44537       9.79319       9.15479
     2  C(13)              0.01137      12.78752       4.56290       4.26546
     3  Si(29)             0.56161    -499.11644    -178.09716    -166.48732
     4  C(13)              0.00567       6.37381       2.27433       2.12607
     5  H(1)               0.00029       1.31020       0.46751       0.43704
     6  H(1)               0.00029       1.31019       0.46751       0.43703
     7  H(1)              -0.00030      -1.32937      -0.47435      -0.44343
     8  H(1)              -0.00030      -1.32937      -0.47435      -0.44343

 Normal termination of Gaussian 16 at Tue Apr  8 23:44:48 2025.
