 Gaussian 16, Revision C.01,

 ----------------------------------------------------------------------
 #t hf aug-cc-pvdz symm=none int=(grid=ultrafine) guess=(read,tcheck) s
 table=(opt,rrhf)
 ----------------------------------------------------------------------
 -----
 title
 -----
 Symbolic Z-matrix:
 Charge =  0 Multiplicity = 1

 SCF Done:  E(RHF) =  -838.897627522     A.U. after   14 cycles
 Normal termination of Gaussian 16 at Tue Apr  8 22:42:54 2025.
 Gaussian 16:  ES64L-G16RevC.01  3-Jul-2019

 ----------------------------------------------------------------------
 #t hf aug-cc-pvdz iop(5/13=1,5/36=2,99/5=2) pseudo=read geom=check gue
 ss=(read,tcheck) scf=(maxcycle=1)
 ----------------------------------------------------------------------
 -----
 title
 -----
 Structure from the checkpoint file:  "BDE49_expt_1397_mol1.chk"
 Charge =  0 Multiplicity = 1

                         Standard orientation:
 ---------------------------------------------------------------------
 Center     Atomic      Atomic             Coordinates (Angstroms)
 Number     Number       Type             X           Y           Z
 ---------------------------------------------------------------------
      1          6           0       -1.684162    0.180435    0.064885
      2          6           0       -1.152923   -1.102390    0.004863
      3          6           0        0.219655   -1.280324   -0.123548
      4          6           0       -0.839802    1.282035   -0.012496
      5          6           0        0.528630    1.093903   -0.157002
      6          6           0        1.085030   -0.186932   -0.215814
      7          9           0       -3.001636    0.354967    0.197008
      8          9           0       -1.963670   -2.161698    0.085766
      9          9           0        0.713364   -2.521403   -0.163326
     10          9           0       -1.348041    2.517032    0.040785
     11          9           0        1.327571    2.167893   -0.247543
     12          8           0        2.410573   -0.398085   -0.417679
     13          6           0        3.281073   -0.021776    0.665284
     14          1           0        4.283538   -0.300296    0.346322
     15          1           0        3.019672   -0.569721    1.575198
     16          1           0        3.238901    1.053870    0.848663
 ---------------------------------------------------------------------

 SCF Done:  E(RHF) =  -839.685991571     A.U. after    2 cycles

 The electronic state is 1-A.
 Alpha  occ. eigenvalues --  -26.51858 -26.51848 -26.51809 -26.51717 -26.51287
 Alpha  occ. eigenvalues --  -20.60024 -11.38557 -11.38468 -11.38381 -11.38164
 Alpha  occ. eigenvalues --  -11.38010 -11.35584 -11.31539  -1.66257  -1.65513
 Alpha  occ. eigenvalues --   -1.64786  -1.63945  -1.63459  -1.52219  -1.21324
 Alpha  occ. eigenvalues --   -1.07593  -1.07113  -0.97730  -0.92211  -0.91012
 Alpha  occ. eigenvalues --   -0.84465  -0.81103  -0.79238  -0.75300  -0.75129
 Alpha  occ. eigenvalues --   -0.75065  -0.74152  -0.72483  -0.72108  -0.71190
 Alpha  occ. eigenvalues --   -0.69251  -0.68826  -0.67194  -0.66669  -0.66142
 Alpha  occ. eigenvalues --   -0.64748  -0.62750  -0.61784  -0.59357  -0.55503
 Alpha  occ. eigenvalues --   -0.52307  -0.48610  -0.38248  -0.37610
 Alpha virt. eigenvalues --    0.03101   0.04734   0.05254   0.06379   0.08057
 Alpha virt. eigenvalues --    0.08211   0.09360   0.09861   0.09979   0.10115
 Alpha virt. eigenvalues --    0.10550   0.11216   0.12868   0.13287   0.13533

 Mulliken charges:
               1
     1  C    1.438190
     2  C    0.787509
     3  C    1.621640
     4  C    0.706305
     5  C    1.542887
     6  C    0.345691
     7  F   -0.975799
     8  F   -0.946548
     9  F   -1.014095
    10  F   -0.946264
    11  F   -1.022513
    12  O   -1.825908
    13  C   -0.062684
    14  H    0.006843
    15  H    0.150074
    16  H    0.194673
 Sum of Mulliken charges =  -0.00000

 Dipole moment (field-independent basis, Debye):
    X=              2.1477    Y=              0.3240    Z=              1.2290  Tot=              2.4956

 Test job not archived.
 1\1\GINC-SE250\SP\RHF\Aug-CC-pVDZ\C7H3F5O1\OHZDE\08-Apr-2025\0\\#t hf
 aug-cc-pvdz iop(5/13=1,5/36=2,99/5=2) pseudo=read geom=check guess=(re
 ad,tcheck) scf=(maxcycle=1)\\title\\0,1\C,0,-1.684162,0.180435,0.06488
 5\C,0,-1.152923,-1.10239,0.004863\C,0,0.219655,-1.280324,-0.123548\C,0
 ,-0.839802,1.282035,-0.012496\C,0,0.52863,1.093903,-0.157002\C,0,1.085
 03,-0.186932,-0.215814\F,0,-3.001636,0.354967,0.197008\F,0,-1.96367,-2
 .161698,0.085766\F,0,0.713364,-2.521403,-0.163326\F,0,-1.348041,2.5170
 32,0.040785\F,0,1.327571,2.167893,-0.247543\O,0,2.410573,-0.398085,-0.

 Normal termination of Gaussian 16 at Tue Apr  8 22:43:04 2025.
