 Gaussian 16, Revision C.01,

 ----------------------------------------------------------------------
 #t hf aug-cc-pvdz symm=none int=(grid=ultrafine) guess=(read,tcheck) s
 table=(opt,rrhf)
 ----------------------------------------------------------------------
 -----
 title
 -----
 Symbolic Z-matrix:
 Charge =  0 Multiplicity = 1

 SCF Done:  E(RHF) =  -603.603021792     A.U. after   15 cycles
 Normal termination of Gaussian 16 at Wed Apr  9 00:41:36 2025.
 Gaussian 16:  ES64L-G16RevC.01  3-Jul-2019

 ----------------------------------------------------------------------
 #t hf aug-cc-pvdz iop(5/13=1,5/36=2,99/5=2) pseudo=read geom=check gue
 ss=(read,tcheck) scf=(maxcycle=1)
 ----------------------------------------------------------------------
 -----
 title
 -----
 Structure from the checkpoint file:  "BDE49_nonexpt_651_mol1.chk"
 Charge =  0 Multiplicity = 1

                         Standard orientation:
 ---------------------------------------------------------------------
 Center     Atomic      Atomic             Coordinates (Angstroms)
 Number     Number       Type             X           Y           Z
 ---------------------------------------------------------------------
      1          9           0        3.580406   -0.154262    0.000016
      2          9           0       -0.479424    2.163385   -0.000008
      3          8           0       -2.891300    0.836726   -0.000008
      4          6           0       -0.570331   -0.213258   -0.000011
      5          6           0        1.548192    1.025266    0.000003
      6          1           0        2.072739    1.971096    0.000007
      7          6           0        0.160522    0.978504   -0.000005
      8          6           0        0.187611   -1.399025   -0.000006
      9          1           0       -0.343735   -2.342594   -0.000011
     10          6           0        2.232227   -0.178820    0.000007
     11          6           0        1.576738   -1.401999    0.000003
     12          1           0        2.149966   -2.320008    0.000006
     13          5           0       -2.133575   -0.299703   -0.000025
     14          1           0       -3.841441    0.691311    0.000010
     15          8           0       -2.666473   -1.566397    0.000016
     16          1           0       -3.626078   -1.610039    0.000036
 ---------------------------------------------------------------------

 SCF Done:  E(RHF) =  -604.187397975     A.U. after    2 cycles

 The electronic state is 1-A.
 Alpha  occ. eigenvalues --  -26.48551 -26.47583 -20.57073 -20.56706 -11.35336
 Alpha  occ. eigenvalues --  -11.35191 -11.26804 -11.25450 -11.25084 -11.23207
 Alpha  occ. eigenvalues --   -7.65731  -1.61501  -1.60731  -1.49226  -1.45095
 Alpha  occ. eigenvalues --   -1.17156  -1.04142  -1.02954  -0.87440  -0.86772
 Alpha  occ. eigenvalues --   -0.79193  -0.76361  -0.75506  -0.72272  -0.68802
 Alpha  occ. eigenvalues --   -0.68365  -0.67295  -0.66978  -0.64948  -0.63865
 Alpha  occ. eigenvalues --   -0.61481  -0.58213  -0.57561  -0.54097  -0.53302
 Alpha  occ. eigenvalues --   -0.51429  -0.51111  -0.50506  -0.36324  -0.35304
 Alpha virt. eigenvalues --    0.02266   0.03861   0.04433   0.04670   0.05164
 Alpha virt. eigenvalues --    0.06310   0.07327   0.08539   0.08733   0.09815
 Alpha virt. eigenvalues --    0.10558   0.10898   0.12650   0.13457   0.13880

 Mulliken charges:
               1
     1  F   -0.981594
     2  F   -1.071167
     3  O   -1.174952
     4  C    0.051596
     5  C   -0.211476
     6  H   -0.143687
     7  C    1.605685
     8  C    0.281161
     9  H   -0.256634
    10  C    1.303526
    11  C   -0.120386
    12  H   -0.187094
    13  B    1.231424
    14  H    0.425344
    15  O   -1.215973
    16  H    0.464228
 Sum of Mulliken charges =  -0.00000

 Dipole moment (field-independent basis, Debye):
    X=             -3.1433    Y=             -1.5795    Z=             -0.0000  Tot=              3.5178

 Test job not archived.
 1\1\GINC-SE229\SP\RHF\Aug-CC-pVDZ\C6H5B1F2O2\OHZDE\09-Apr-2025\0\\#t h
 f aug-cc-pvdz iop(5/13=1,5/36=2,99/5=2) pseudo=read geom=check guess=(
 read,tcheck) scf=(maxcycle=1)\\title\\0,1\F,0,3.580406,-0.154262,0.000
 016\F,0,-0.479424,2.163385,-0.000008\O,0,-2.8913,0.836726,-0.000008\C,
 0,-0.570331,-0.213258,-0.000011\C,0,1.548192,1.025266,0.000003\H,0,2.0
 72739,1.971096,0.000007\C,0,0.160522,0.978504,-0.000005\C,0,0.187611,-
 1.399025,-0.000006\H,0,-0.343735,-2.342594,-0.000011\C,0,2.232227,-0.1
 7882,0.000007\C,0,1.576738,-1.401999,0.000003\H,0,2.149966,-2.320008,0

 Normal termination of Gaussian 16 at Wed Apr  9 00:41:46 2025.
