 Gaussian 16, Revision C.01,

 ----------------------------------------------------------------------
 #t hf aug-cc-pvdz symm=none int=(grid=ultrafine) guess=(read,tcheck) s
 table=(opt,rrhf)
 ----------------------------------------------------------------------
 -----
 title
 -----
 Symbolic Z-matrix:
 Charge =  0 Multiplicity = 1

 SCF Done:  E(RHF) =  -455.203023441     A.U. after   14 cycles
 Normal termination of Gaussian 16 at Tue Apr  8 23:33:00 2025.
 Gaussian 16:  ES64L-G16RevC.01  3-Jul-2019

 ----------------------------------------------------------------------
 #t hf aug-cc-pvdz iop(5/13=1,5/36=2,99/5=2) pseudo=read geom=check gue
 ss=(read,tcheck) scf=(maxcycle=1)
 ----------------------------------------------------------------------
 -----
 title
 -----
 Structure from the checkpoint file:  "BDE49_nonexpt_1454_mol1.chk"
 Charge =  0 Multiplicity = 1

                         Standard orientation:
 ---------------------------------------------------------------------
 Center     Atomic      Atomic             Coordinates (Angstroms)
 Number     Number       Type             X           Y           Z
 ---------------------------------------------------------------------
      1          6           0       -0.731303    0.439033    0.013918
      2          8           0       -1.652083   -0.332789    0.007505
      3         15           0        1.066124   -0.076178   -0.117374
      4          1           0       -0.893307    1.541068    0.011924
      5          1           0        0.962675   -1.195973    0.739253
      6          1           0        1.543252    0.825688    0.865882
 ---------------------------------------------------------------------

 SCF Done:  E(RHF) =  -455.358124719     A.U. after    2 cycles

 The electronic state is 1-A.
 Alpha  occ. eigenvalues --  -84.29713 -20.56612 -11.36194  -6.76967  -4.29288
 Alpha  occ. eigenvalues --   -4.29261  -4.28531  -1.49584  -0.94471  -0.79989
 Alpha  occ. eigenvalues --   -0.67593  -0.61144  -0.55196  -0.52730  -0.42139
 Alpha  occ. eigenvalues --   -0.36289
 Alpha virt. eigenvalues --    0.03450   0.04525   0.06685   0.07770   0.08159
 Alpha virt. eigenvalues --    0.09602   0.10298   0.11160   0.14464   0.15363
 Alpha virt. eigenvalues --    0.17170   0.18759   0.19938   0.20342   0.22906

 Mulliken charges:
               1
     1  C    0.339417
     2  O   -0.948815
     3  P   -0.400333
     4  H    0.118633
     5  H    0.462031
     6  H    0.429067
 Sum of Mulliken charges =   0.00000

 Dipole moment (field-independent basis, Debye):
    X=              2.1447    Y=              1.4129    Z=              0.4494  Tot=              2.6073

 Test job not archived.
 1\1\GINC-SE457\SP\RHF\Aug-CC-pVDZ\C1H3O1P1\OHZDE\08-Apr-2025\0\\#t hf
 aug-cc-pvdz iop(5/13=1,5/36=2,99/5=2) pseudo=read geom=check guess=(re
 ad,tcheck) scf=(maxcycle=1)\\title\\0,1\C,0,-0.731303,0.439033,0.01391
 8\O,0,-1.652083,-0.332789,0.007505\P,0,1.066124,-0.076178,-0.117374\H,
 0,-0.893307,1.541068,0.011924\H,0,0.962675,-1.195973,0.739253\H,0,1.54
 3252,0.825688,0.865882\\Version=ES64L-G16RevC.01\State=1-A\HF=-455.358
 1247\RMSD=3.162e-02\Dipole=0.8438075,0.5558799,0.1768139\Quadrupole=-2
 .4051192,2.0980207,0.3070986,-1.6169583,1.0528469,-0.1160774\PG=C01 [X

 Normal termination of Gaussian 16 at Tue Apr  8 23:33:01 2025.
