 Gaussian 16, Revision C.01,

 ----------------------------------------------------------------------
 #t hf aug-cc-pvdz symm=none int=(grid=ultrafine) guess=(read,tcheck) s
 table=(opt,rrhf)
 ----------------------------------------------------------------------
 -----
 title
 -----
 Symbolic Z-matrix:
 Charge =  0 Multiplicity = 1

 SCF Done:  E(RHF) =  -1020.44202627     A.U. after   17 cycles
 Normal termination of Gaussian 16 at Tue Apr  8 23:33:23 2025.
 Gaussian 16:  ES64L-G16RevC.01  3-Jul-2019

 ----------------------------------------------------------------------
 #t hf aug-cc-pvdz iop(5/13=1,5/36=2,99/5=2) pseudo=read geom=check gue
 ss=(read,tcheck) scf=(maxcycle=1)
 ----------------------------------------------------------------------
 -----
 title
 -----
 Structure from the checkpoint file:  "BDE49_nonexpt_1383_mol1.chk"
 Charge =  0 Multiplicity = 1

                         Standard orientation:
 ---------------------------------------------------------------------
 Center     Atomic      Atomic             Coordinates (Angstroms)
 Number     Number       Type             X           Y           Z
 ---------------------------------------------------------------------
      1          6           0        0.846930    0.433765   -0.375937
      2          6           0        1.557176   -0.488382   -1.151959
      3          1           0        1.136287   -0.853549   -2.082313
      4          6           0        2.805920   -0.938466   -0.729916
      5          1           0        3.350759   -1.657318   -1.330991
      6          6           0        3.358635   -0.452439    0.452557
      7          1           0        4.334863   -0.795962    0.775305
      8          6           0        2.660538    0.481573    1.218711
      9          1           0        3.092548    0.862942    2.136915
     10          6           0        1.405525    0.921333    0.812669
     11          1           0        0.861383    1.647073    1.405298
     12         15           0       -0.782710    1.014458   -0.980182
     13          9           0       -0.842997    2.482813   -0.278650
     14          6           0       -1.846439    0.155459    0.337915
     15          8           0       -2.474283    0.759336    1.164769
     16          6           0       -1.941148   -1.381807    0.265091
     17          9           0       -1.575012   -1.799092   -0.988089
     18          9           0       -1.068143   -1.921272    1.157903
     19          1           0       -2.948378   -1.743008    0.485088
 ---------------------------------------------------------------------

 SCF Done:  E(RHF) =  -1021.13562989     A.U. after    2 cycles

 The electronic state is 1-A.
 Alpha  occ. eigenvalues --  -84.36638 -26.50695 -26.50137 -26.47069 -20.58816
 Alpha  occ. eigenvalues --  -11.44789 -11.37506 -11.26979 -11.26896 -11.26613
 Alpha  occ. eigenvalues --  -11.26494 -11.26027 -11.25977  -6.82940  -4.35911
 Alpha  occ. eigenvalues --   -4.35395  -4.34793  -1.66879  -1.60140  -1.58326
 Alpha  occ. eigenvalues --   -1.51766  -1.17566  -1.05252  -1.03751  -1.02329
 Alpha  occ. eigenvalues --   -0.92448  -0.85567  -0.84962  -0.81097  -0.79121
 Alpha  occ. eigenvalues --   -0.76742  -0.73975  -0.72381  -0.68692  -0.67371
 Alpha  occ. eigenvalues --   -0.66581  -0.66353  -0.64845  -0.64008  -0.63261
 Alpha  occ. eigenvalues --   -0.62667  -0.61820  -0.58986  -0.58247  -0.55949
 Alpha  occ. eigenvalues --   -0.53306  -0.53109  -0.52400  -0.43720  -0.39330
 Alpha  occ. eigenvalues --   -0.36440  -0.34514
 Alpha virt. eigenvalues --    0.03103   0.03629   0.03869   0.04540   0.05698
 Alpha virt. eigenvalues --    0.06213   0.06460   0.07191   0.08075   0.08930
 Alpha virt. eigenvalues --    0.09138   0.09927   0.10545   0.11092   0.12375

 Mulliken charges:
               1
     1  C    0.649067
     2  C   -0.387474
     3  H   -0.259146
     4  C    0.317826
     5  H   -0.211956
     6  C    0.170596
     7  H   -0.208705
     8  C    0.389857
     9  H   -0.207382
    10  C   -0.070189
    11  H   -0.344783
    12  P    1.634283
    13  F   -0.873005
    14  C    0.401021
    15  O   -1.270054
    16  C    1.633619
    17  F   -0.740907
    18  F   -0.704988
    19  H    0.082320
 Sum of Mulliken charges =  -0.00000

 Dipole moment (field-independent basis, Debye):
    X=              1.7657    Y=             -1.7529    Z=             -0.9109  Tot=              2.6496

 Test job not archived.
 1\1\GINC-SE458\SP\RHF\Aug-CC-pVDZ\C8H6F3O1P1\OHZDE\08-Apr-2025\0\\#t h
 f aug-cc-pvdz iop(5/13=1,5/36=2,99/5=2) pseudo=read geom=check guess=(
 read,tcheck) scf=(maxcycle=1)\\title\\0,1\C,0,0.84693,0.433765,-0.3759
 37\C,0,1.557176,-0.488382,-1.151959\H,0,1.136287,-0.853549,-2.082313\C
 ,0,2.80592,-0.938465,-0.729916\H,0,3.350759,-1.657317,-1.330991\C,0,3.
 358635,-0.452438,0.452557\H,0,4.334863,-0.795961,0.775305\C,0,2.660538
 ,0.481573,1.218711\H,0,3.092548,0.862943,2.136915\C,0,1.405525,0.92133
 3,0.812669\H,0,0.861383,1.647073,1.405298\P,0,-0.78271,1.014458,-0.980

 Normal termination of Gaussian 16 at Tue Apr  8 23:33:37 2025.
