 Gaussian 16, Revision C.01,

 ----------------------------------------------------------------------
 #t hf aug-cc-pvdz symm=none int=(grid=ultrafine) guess=(read,tcheck) s
 table=(opt,rrhf)
 ----------------------------------------------------------------------
 -----
 title
 -----
 Symbolic Z-matrix:
 Charge =  0 Multiplicity = 1

 SCF Done:  E(RHF) =  -2042.80946591     A.U. after   16 cycles
 Normal termination of Gaussian 16 at Tue Apr  8 23:27:07 2025.
 Gaussian 16:  ES64L-G16RevC.01  3-Jul-2019

 ----------------------------------------------------------------------
 #t hf aug-cc-pvdz iop(5/13=1,5/36=2,99/5=2) pseudo=read geom=check gue
 ss=(read,tcheck) scf=(maxcycle=1)
 ----------------------------------------------------------------------
 -----
 title
 -----
 Structure from the checkpoint file:  "BDE49_nonexpt_1250_mol1.chk"
 Charge =  0 Multiplicity = 1

                         Standard orientation:
 ---------------------------------------------------------------------
 Center     Atomic      Atomic             Coordinates (Angstroms)
 Number     Number       Type             X           Y           Z
 ---------------------------------------------------------------------
      1          6           0        0.258380   -0.038906   -0.271959
      2          6           0       -1.236285   -0.203899   -0.124483
      3          6           0       -2.012442   -0.585579   -1.223869
      4          1           0       -1.544761   -0.711322   -2.194374
      5          6           0       -3.379211   -0.795422   -1.078206
      6          1           0       -3.973390   -1.085410   -1.937154
      7          6           0       -3.985614   -0.624472    0.166324
      8          1           0       -5.051849   -0.784957    0.277037
      9          6           0       -3.219219   -0.240386    1.263397
     10          1           0       -3.686872   -0.098560    2.230843
     11          6           0       -1.849182   -0.031709    1.122928
     12          1           0       -1.257200    0.291485    1.970803
     13          7           0        0.660376    1.227730    0.394846
     14         15           0        1.033148   -1.498995    0.684699
     15         17           0       -0.025706    2.602381   -0.541738
     16         17           0        2.437048    1.403376    0.363642
     17         17           0        2.717105   -2.011489   -0.482423
     18          1           0        0.184709   -2.428029    0.042189
     19          1           0        0.567341   -0.072694   -1.319728
 ---------------------------------------------------------------------

 SCF Done:  E(RHF) =  -2043.40553150     A.U. after    2 cycles

 The electronic state is 1-A.
 Alpha  occ. eigenvalues -- -105.60854-105.60586-105.56485 -84.34595 -15.65164
 Alpha  occ. eigenvalues --  -11.32504 -11.27561 -11.26392 -11.26207 -11.26197
 Alpha  occ. eigenvalues --  -11.26108 -11.26060 -10.65376 -10.65081 -10.61343
 Alpha  occ. eigenvalues --   -7.82324  -7.82029  -7.81858  -7.81821  -7.81562
 Alpha  occ. eigenvalues --   -7.81536  -7.78254  -7.77896  -7.77875  -6.81143
 Alpha  occ. eigenvalues --   -4.33537  -4.33262  -4.32707  -1.28924  -1.17799
 Alpha  occ. eigenvalues --   -1.09013  -1.06813  -1.05513  -1.03758  -1.00428
 Alpha  occ. eigenvalues --   -0.91337  -0.85962  -0.84277  -0.79826  -0.73649
 Alpha  occ. eigenvalues --   -0.69981  -0.67805  -0.64923  -0.64392  -0.63895
 Alpha  occ. eigenvalues --   -0.61786  -0.58345  -0.56121  -0.54315  -0.52822
 Alpha  occ. eigenvalues --   -0.52367  -0.51440  -0.50223  -0.48924  -0.48585
 Alpha  occ. eigenvalues --   -0.46275  -0.45016  -0.43885  -0.38547  -0.36439
 Alpha  occ. eigenvalues --   -0.34630
 Alpha virt. eigenvalues --    0.02848   0.03252   0.03367   0.04025   0.05161
 Alpha virt. eigenvalues --    0.05596   0.06280   0.07048   0.07567   0.08198
 Alpha virt. eigenvalues --    0.08332   0.09024   0.09290   0.10013   0.10934

 Mulliken charges:
               1
     1  C   -0.699135
     2  C    1.942609
     3  C   -0.016673
     4  H   -0.330644
     5  C    0.298165
     6  H   -0.233197
     7  C    0.124014
     8  H   -0.216838
     9  C    0.139748
    10  H   -0.237581
    11  C   -0.445854
    12  H   -0.318113
    13  N    0.029661
    14  P    0.163841
    15  Cl  -0.005079
    16  Cl   0.056092
    17  Cl  -0.549351
    18  H    0.496450
    19  H   -0.198115
 Sum of Mulliken charges =  -0.00000

 Dipole moment (field-independent basis, Debye):
    X=             -3.1638    Y=             -0.8874    Z=             -0.3211  Tot=              3.3016

 Test job not archived.
 1\1\GINC-SE402\SP\RHF\Aug-CC-pVDZ\C7H7Cl3N1P1\OHZDE\08-Apr-2025\0\\#t
 hf aug-cc-pvdz iop(5/13=1,5/36=2,99/5=2) pseudo=read geom=check guess=
 (read,tcheck) scf=(maxcycle=1)\\title\\0,1\C,0,0.25838,-0.038906,-0.27
 1959\C,0,-1.236285,-0.203899,-0.124483\C,0,-2.012442,-0.585579,-1.2238
 69\H,0,-1.544761,-0.711322,-2.194374\C,0,-3.379211,-0.795422,-1.078206
 \H,0,-3.97339,-1.08541,-1.937154\C,0,-3.985614,-0.624472,0.166324\H,0,
 -5.051849,-0.784957,0.277037\C,0,-3.219219,-0.240386,1.263397\H,0,-3.6
 86872,-0.09856,2.230843\C,0,-1.849182,-0.031709,1.122928\H,0,-1.2572,0

 Normal termination of Gaussian 16 at Tue Apr  8 23:27:22 2025.
