 Gaussian 16, Revision C.01,

 ----------------------------------------------------------------------
 #t hf aug-cc-pvdz symm=none int=(grid=ultrafine) guess=(read,tcheck) s
 table=(opt,rrhf)
 ----------------------------------------------------------------------
 -----
 title
 -----
 Symbolic Z-matrix:
 Charge =  0 Multiplicity = 1

 SCF Done:  E(RHF) =  -853.933637827     A.U. after   14 cycles
 Normal termination of Gaussian 16 at Tue Apr  8 23:19:20 2025.
 Gaussian 16:  ES64L-G16RevC.01  3-Jul-2019

 ----------------------------------------------------------------------
 #t hf aug-cc-pvdz iop(5/13=1,5/36=2,99/5=2) pseudo=read geom=check gue
 ss=(read,tcheck) scf=(maxcycle=1)
 ----------------------------------------------------------------------
 -----
 title
 -----
 Structure from the checkpoint file:  "BDE49_expt_809_mol1.chk"
 Charge =  0 Multiplicity = 1

                         Standard orientation:
 ---------------------------------------------------------------------
 Center     Atomic      Atomic             Coordinates (Angstroms)
 Number     Number       Type             X           Y           Z
 ---------------------------------------------------------------------
      1         14           0       -0.616798    1.412407    0.097798
      2          6           0       -1.915332    0.321275   -0.751645
      3          6           0        1.043105    0.534449    0.305704
      4          6           0        1.688206   -0.062107   -0.789146
      5          6           0        2.919084   -0.673393   -0.615818
      6          6           0        3.556072   -0.723015    0.615190
      7          6           0        2.924349   -0.132321    1.706128
      8          6           0        1.684900    0.488195    1.553175
      9          1           0        1.210838    0.940285    2.417755
     10          1           0        1.252707   -0.063271   -1.782794
     11          1           0        3.402833   -0.158310    2.678764
     12          6           0       -0.378650    2.959407   -0.950368
     13          1           0       -1.042205    1.816736    1.462375
     14          1           0       -0.056812    2.705848   -1.965080
     15          1           0        0.381149    3.613498   -0.514392
     16          1           0       -1.310801    3.527128   -1.027534
     17          6           0       -2.682230   -0.783530    0.028425
     18          1           0       -1.411419   -0.141171   -1.612155
     19          1           0       -2.651389    1.008794   -1.190137
     20          6           0       -1.706350   -1.778767    0.681964
     21          1           0       -1.041309   -2.228815   -0.060999
     22          1           0       -2.255298   -2.587883    1.173741
     23          1           0       -1.079621   -1.297670    1.437748
     24          6           0       -3.575991   -0.151701    1.112218
     25          1           0       -2.987659    0.385960    1.859716
     26          1           0       -4.152740   -0.922093    1.633236
     27          1           0       -4.286862    0.555376    0.672617
     28          6           0       -3.579157   -1.548045   -0.966348
     29          1           0       -2.980894   -2.029269   -1.746260
     30          1           0       -4.288317   -0.873571   -1.456242
     31          1           0       -4.154875   -2.327444   -0.456917
     32          1           0        4.517796   -1.213119    0.702293
     33          9           0        3.522448   -1.243044   -1.685752
 ---------------------------------------------------------------------

 SCF Done:  E(RHF) =  -854.554247961     A.U. after    2 cycles

 The electronic state is 1-A.
 Alpha  occ. eigenvalues --  -69.52057 -26.47350 -11.33501 -11.25650 -11.25315
 Alpha  occ. eigenvalues --  -11.25267 -11.24810 -11.24504 -11.23959 -11.21979
 Alpha  occ. eigenvalues --  -11.21949 -11.21860 -11.21652 -11.21500  -6.19083
 Alpha  occ. eigenvalues --   -3.94452  -3.94436  -3.94396  -1.60157  -1.16207
 Alpha  occ. eigenvalues --   -1.10481  -1.03220  -1.01873  -0.95961  -0.93114
 Alpha  occ. eigenvalues --   -0.93073  -0.92156  -0.85923  -0.83999  -0.75367
 Alpha  occ. eigenvalues --   -0.73570  -0.69900  -0.68949  -0.67354  -0.66962
 Alpha  occ. eigenvalues --   -0.62552  -0.62227  -0.61963  -0.60213  -0.59292
 Alpha  occ. eigenvalues --   -0.58007  -0.56122  -0.55881  -0.55575  -0.54506
 Alpha  occ. eigenvalues --   -0.52977  -0.51999  -0.51817  -0.51342  -0.48815
 Alpha  occ. eigenvalues --   -0.47671  -0.46732  -0.45511  -0.44573  -0.42573
 Alpha  occ. eigenvalues --   -0.35613  -0.34539
 Alpha virt. eigenvalues --    0.02860   0.03126   0.03423   0.03638   0.04443
 Alpha virt. eigenvalues --    0.04881   0.05327   0.05468   0.05578   0.06873
 Alpha virt. eigenvalues --    0.07169   0.07803   0.08131   0.08683   0.08853

 Mulliken charges:
               1
     1  Si   1.714113
     2  C   -0.151132
     3  C   -0.357138
     4  C    0.218509
     5  C    0.931798
     6  C    0.374766
     7  C    0.417319
     8  C    0.198136
     9  H   -0.423053
    10  H   -0.441168
    11  H   -0.218056
    12  C   -0.571443
    13  H   -0.210592
    14  H    0.154734
    15  H   -0.119850
    16  H   -0.061729
    17  C   -2.805309
    18  H    0.172294
    19  H    0.011927
    20  C    0.122962
    21  H    0.215170
    22  H    0.110475
    23  H    0.231148
    24  C    0.171032
    25  H    0.181238
    26  H    0.205310
    27  H    0.181995
    28  C    0.345741
    29  H    0.207363
    30  H    0.225445
    31  H    0.179422
    32  H   -0.208588
    33  F   -1.002838
 Sum of Mulliken charges =  -0.00000

 Dipole moment (field-independent basis, Debye):
    X=             -0.8358    Y=              0.5361    Z=              0.8473  Tot=              1.3054

 Test job not archived.
 1\1\GINC-SE455\SP\RHF\Aug-CC-pVDZ\C12H19F1Si1\OHZDE\08-Apr-2025\0\\#t
 hf aug-cc-pvdz iop(5/13=1,5/36=2,99/5=2) pseudo=read geom=check guess=
 (read,tcheck) scf=(maxcycle=1)\\title\\0,1\Si,0,-0.616798,1.412407,0.0
 97798\C,0,-1.915332,0.321275,-0.751645\C,0,1.043105,0.534449,0.305704\
 C,0,1.688206,-0.062107,-0.789146\C,0,2.919084,-0.673393,-0.615818\C,0,
 3.556072,-0.723015,0.61519\C,0,2.924349,-0.132321,1.706128\C,0,1.6849,
 0.488195,1.553175\H,0,1.210838,0.940285,2.417755\H,0,1.252707,-0.06327
 1,-1.782794\H,0,3.402833,-0.15831,2.678764\C,0,-0.37865,2.959407,-0.95

 Normal termination of Gaussian 16 at Tue Apr  8 23:19:56 2025.
