 Gaussian 16, Revision C.01,

 ----------------------------------------------------------------------
 #t hf aug-cc-pvdz symm=none int=(grid=ultrafine) guess=(read,tcheck) s
 table=(opt,rrhf)
 ----------------------------------------------------------------------
 -----
 title
 -----
 Symbolic Z-matrix:
 Charge =  0 Multiplicity = 1

 SCF Done:  E(RHF) =  -1159.12409823     A.U. after   15 cycles
 Normal termination of Gaussian 16 at Wed Apr  9 00:19:46 2025.
 Gaussian 16:  ES64L-G16RevC.01  3-Jul-2019

 ----------------------------------------------------------------------
 #t hf aug-cc-pvdz iop(5/13=1,5/36=2,99/5=2) pseudo=read geom=check gue
 ss=(read,tcheck) scf=(maxcycle=1)
 ----------------------------------------------------------------------
 -----
 title
 -----
 Structure from the checkpoint file:  "BDE49_nonexpt_2589_mol1.chk"
 Charge =  0 Multiplicity = 1

                         Standard orientation:
 ---------------------------------------------------------------------
 Center     Atomic      Atomic             Coordinates (Angstroms)
 Number     Number       Type             X           Y           Z
 ---------------------------------------------------------------------
      1         17           0       -2.349535   -0.850805   -0.302923
      2         16           0       -1.420320    0.895149    0.305783
      3          8           0        0.064610    0.822862   -0.462427
      4          6           0        1.072251    0.083727    0.144940
      5          8           0        0.963421   -0.575859    1.132127
      6          8           0        2.149787    0.264953   -0.606142
      7          6           0        3.327103   -0.440631   -0.156742
      8          1           0        3.140744   -1.514801   -0.145274
      9          1           0        3.607566   -0.107787    0.842953
     10          1           0        4.100236   -0.190319   -0.878173
 ---------------------------------------------------------------------

 SCF Done:  E(RHF) =  -1159.55327751     A.U. after    2 cycles

 The electronic state is 1-A.
 Alpha  occ. eigenvalues -- -105.59884 -94.07890 -20.64491 -20.62078 -20.56292
 Alpha  occ. eigenvalues --  -11.46654 -11.31861 -10.64611  -8.34914  -7.81549
 Alpha  occ. eigenvalues --   -7.81105  -7.81050  -6.32681  -6.32475  -6.32068
 Alpha  occ. eigenvalues --   -1.61131  -1.51606  -1.49095  -1.12724  -1.01645
 Alpha  occ. eigenvalues --   -0.94217  -0.81648  -0.77030  -0.72322  -0.72246
 Alpha  occ. eigenvalues --   -0.64497  -0.63726  -0.61648  -0.56721  -0.56325
 Alpha  occ. eigenvalues --   -0.52786  -0.49907  -0.49164  -0.48673  -0.48461
 Alpha  occ. eigenvalues --   -0.39137
 Alpha virt. eigenvalues --    0.03342   0.04179   0.05284   0.05588   0.06867
 Alpha virt. eigenvalues --    0.07537   0.10434   0.10812   0.11791   0.13580
 Alpha virt. eigenvalues --    0.13761   0.14799   0.15175   0.15204   0.15587

 Mulliken charges:
               1
     1  Cl  -0.273171
     2  S    0.785162
     3  O   -1.159595
     4  C    2.083916
     5  O   -0.845213
     6  O   -1.102936
     7  C    0.172979
     8  H    0.166680
     9  H    0.167365
    10  H    0.004814
 Sum of Mulliken charges =  -0.00000

 Dipole moment (field-independent basis, Debye):
    X=              2.3937    Y=              0.3859    Z=             -0.3297  Tot=              2.4470

 Test job not archived.
 1\1\GINC-SE120\SP\RHF\Aug-CC-pVDZ\C2H3Cl1O3S1\OHZDE\09-Apr-2025\0\\#t
 hf aug-cc-pvdz iop(5/13=1,5/36=2,99/5=2) pseudo=read geom=check guess=
 (read,tcheck) scf=(maxcycle=1)\\title\\0,1\Cl,0,2.349535,0.850805,-0.3
 02923\S,0,1.42032,-0.895149,0.305783\O,0,-0.06461,-0.822862,-0.462427\
 C,0,-1.072251,-0.083727,0.14494\O,0,-0.963421,0.575859,1.132127\O,0,-2
 .149787,-0.264953,-0.606142\C,0,-3.327103,0.440631,-0.156742\H,0,-3.14
 0744,1.514801,-0.145274\H,0,-3.607566,0.107787,0.842953\H,0,-4.100236,
 0.190319,-0.878173\\Version=ES64L-G16RevC.01\State=1-A\HF=-1159.553277

 Normal termination of Gaussian 16 at Wed Apr  9 00:19:50 2025.
