 Gaussian 16, Revision C.01,

 ----------------------------------------------------------------------
 #t hf aug-cc-pvdz symm=none int=(grid=ultrafine) guess=(read,tcheck) s
 table=(opt,rrhf)
 ----------------------------------------------------------------------
 -----
 title
 -----
 Symbolic Z-matrix:
 Charge =  0 Multiplicity = 1

 SCF Done:  E(RHF) =  -1871.55337220     A.U. after   15 cycles
 Normal termination of Gaussian 16 at Wed Apr  9 00:51:47 2025.
 Gaussian 16:  ES64L-G16RevC.01  3-Jul-2019

 ----------------------------------------------------------------------
 #t hf aug-cc-pvdz iop(5/13=1,5/36=2,99/5=2) pseudo=read geom=check gue
 ss=(read,tcheck) scf=(maxcycle=1)
 ----------------------------------------------------------------------
 -----
 title
 -----
 Structure from the checkpoint file:  "BDE49_nonexpt_887_mol1.chk"
 Charge =  0 Multiplicity = 1

                         Standard orientation:
 ---------------------------------------------------------------------
 Center     Atomic      Atomic             Coordinates (Angstroms)
 Number     Number       Type             X           Y           Z
 ---------------------------------------------------------------------
      1          5           0       -0.000000   -0.000000    2.991922
      2         16           0        1.554140    0.424804    3.835799
      3         16           0       -1.554140   -0.424804    3.835799
      4          6           0       -0.000000   -0.000000    1.430279
      5          6           0       -0.826531   -0.871014    0.696584
      6          1           0       -1.475389   -1.563655    1.221511
      7          6           0        0.826531    0.871014    0.696584
      8          1           0        1.475389    1.563655    1.221511
      9          6           0       -0.814284   -0.882594   -0.692501
     10          6           0        0.000000    0.000000   -1.424523
     11          5           0        0.000000    0.000000   -2.986075
     12         16           0        0.000000    1.527814   -3.973903
     13         16           0       -0.000000   -1.527814   -3.973903
     14          6           0        0.814284    0.882594   -0.692501
     15          1           0        1.465232    1.573425   -1.217626
     16          1           0       -1.465232   -1.573425   -1.217626
     17          1           0        0.192948   -2.381463   -2.954202
     18          1           0       -0.192948    2.381463   -2.954202
     19          1           0        1.110731    0.455246    5.103587
     20          1           0       -1.110731   -0.455246    5.103587
 ---------------------------------------------------------------------

 SCF Done:  E(RHF) =  -1872.07322867     A.U. after    2 cycles

 The electronic state is 1-A.
 Alpha  occ. eigenvalues --  -93.96430 -93.96426 -93.95800 -93.95799 -11.26212
 Alpha  occ. eigenvalues --  -11.26204 -11.26091 -11.26067 -11.25213 -11.24849
 Alpha  occ. eigenvalues --   -8.24731  -8.24710  -8.24121  -8.24069  -7.66539
 Alpha  occ. eigenvalues --   -7.66240  -6.22565  -6.22556  -6.22407  -6.22392
 Alpha  occ. eigenvalues --   -6.22250  -6.22247  -6.21930  -6.21927  -6.21788
 Alpha  occ. eigenvalues --   -6.21779  -6.21627  -6.21626  -1.16984  -1.07317
 Alpha  occ. eigenvalues --   -1.05545  -1.03528  -1.01774  -1.00876  -1.00463
 Alpha  occ. eigenvalues --   -0.85586  -0.84754  -0.74962  -0.70101  -0.66447
 Alpha  occ. eigenvalues --   -0.65231  -0.64507  -0.61371  -0.58935  -0.57988
 Alpha  occ. eigenvalues --   -0.54598  -0.54175  -0.53157  -0.51695  -0.50327
 Alpha  occ. eigenvalues --   -0.48303  -0.45957  -0.45108  -0.44517  -0.43783
 Alpha  occ. eigenvalues --   -0.38686  -0.37854  -0.36154  -0.35496
 Alpha virt. eigenvalues --    0.02982   0.03046   0.03420   0.03568   0.04163
 Alpha virt. eigenvalues --    0.05074   0.05300   0.05771   0.06146   0.07367
 Alpha virt. eigenvalues --    0.07388   0.07575   0.08331   0.09137   0.09590

 Mulliken charges:
               1
     1  B    0.871602
     2  S   -0.651919
     3  S   -0.651919
     4  C    0.589237
     5  C   -0.034977
     6  H   -0.365931
     7  C   -0.034977
     8  H   -0.365931
     9  C    0.315019
    10  C    0.434192
    11  B    0.938054
    12  S   -0.769765
    13  S   -0.769765
    14  C    0.315019
    15  H   -0.387234
    16  H   -0.387234
    17  H    0.234372
    18  H    0.234372
    19  H    0.243893
    20  H    0.243893
 Sum of Mulliken charges =  -0.00000

 Dipole moment (field-independent basis, Debye):
    X=             -0.0000    Y=              0.0000    Z=              3.0859  Tot=              3.0859

 Test job not archived.
 1\1\GINC-SE365\SP\RHF\Aug-CC-pVDZ\C6H8B2S4\OHZDE\09-Apr-2025\0\\#t hf
 aug-cc-pvdz iop(5/13=1,5/36=2,99/5=2) pseudo=read geom=check guess=(re
 ad,tcheck) scf=(maxcycle=1)\\title\\0,1\B,0,0.,0.,-2.991922\S,0,-1.554
 14,0.424804,-3.835799\S,0,1.55414,-0.424804,-3.835799\C,0,0.,0.,-1.430
 279\C,0,0.826531,-0.871014,-0.696584\H,0,1.475389,-1.563655,-1.221511\
 C,0,-0.826531,0.871014,-0.696584\H,0,-1.475389,1.563655,-1.221511\C,0,
 0.814284,-0.882594,0.692501\C,0,0.,0.,1.424523\B,0,0.,0.,2.986075\S,0,
 0.,1.527814,3.973903\S,0,0.,-1.527814,3.973903\C,0,-0.814284,0.882594,

 Normal termination of Gaussian 16 at Wed Apr  9 00:51:55 2025.
