 Gaussian 16, Revision C.01,

 ----------------------------------------------------------------------
 #t hf aug-cc-pvdz symm=none int=(grid=ultrafine) guess=(read,tcheck) s
 table=(opt,rrhf)
 ----------------------------------------------------------------------
 -----
 title
 -----
 Symbolic Z-matrix:
 Charge =  0 Multiplicity = 1

 SCF Done:  E(RHF) =  -1203.60727074     A.U. after   15 cycles
 Normal termination of Gaussian 16 at Tue Apr  8 22:51:19 2025.
 Gaussian 16:  ES64L-G16RevC.01  3-Jul-2019

 ----------------------------------------------------------------------
 #t hf aug-cc-pvdz iop(5/13=1,5/36=2,99/5=2) pseudo=read geom=check gue
 ss=(read,tcheck) scf=(maxcycle=1)
 ----------------------------------------------------------------------
 -----
 title
 -----
 Structure from the checkpoint file:  "BDE49_expt_1735_mol1.chk"
 Charge =  0 Multiplicity = 1

                         Standard orientation:
 ---------------------------------------------------------------------
 Center     Atomic      Atomic             Coordinates (Angstroms)
 Number     Number       Type             X           Y           Z
 ---------------------------------------------------------------------
      1          6           0       -2.237780   -0.000005    1.300051
      2          6           0       -0.863752   -0.000004    1.104786
      3          6           0       -3.076745   -0.000001    0.186919
      4          6           0       -2.498915    0.000004   -1.078043
      5          7           0       -1.176798    0.000004   -1.280251
      6          6           0       -0.385560    0.000000   -0.207012
      7          1           0       -2.649341   -0.000009    2.302690
      8          1           0       -0.174790   -0.000008    1.939963
      9          6           0        1.087716    0.000001   -0.530924
     10         17           0        1.910654    1.480365    0.098418
     11          1           0        1.220431    0.000004   -1.606114
     12         17           0        1.910655   -1.480365    0.098410
     13          1           0       -4.154481   -0.000001    0.295633
     14          1           0       -3.116275    0.000007   -1.971152
 ---------------------------------------------------------------------

 SCF Done:  E(RHF) =  -1204.04752443     A.U. after    2 cycles

 The electronic state is 1-A.
 Alpha  occ. eigenvalues -- -105.57808-105.57808 -15.52611 -11.38244 -11.31136
 Alpha  occ. eigenvalues --  -11.29631 -11.28144 -11.26607 -11.26528 -10.62598
 Alpha  occ. eigenvalues --  -10.62593  -7.79540  -7.79539  -7.79141  -7.79139
 Alpha  occ. eigenvalues --   -7.79136  -7.79134  -1.28625  -1.16584  -1.10972
 Alpha  occ. eigenvalues --   -1.05478  -1.04605  -0.93017  -0.89315  -0.84206
 Alpha  occ. eigenvalues --   -0.73907  -0.72203  -0.67664  -0.64085  -0.62127
 Alpha  occ. eigenvalues --   -0.61700  -0.60341  -0.56309  -0.56160  -0.48851
 Alpha  occ. eigenvalues --   -0.48207  -0.47166  -0.45549  -0.45258  -0.42042
 Alpha  occ. eigenvalues --   -0.36860
 Alpha virt. eigenvalues --    0.02908   0.03606   0.04367   0.05415   0.06305
 Alpha virt. eigenvalues --    0.06423   0.07616   0.08532   0.09148   0.09974
 Alpha virt. eigenvalues --    0.10813   0.12042   0.12268   0.12516   0.13533

 Mulliken charges:
               1
     1  C   -0.057551
     2  C    0.807589
     3  C    0.679003
     4  C   -0.549556
     5  N    1.148637
     6  C   -0.622610
     7  H   -0.166511
     8  H   -0.212239
     9  C   -0.843101
    10  Cl   0.012512
    11  H    0.154337
    12  Cl   0.012512
    13  H   -0.182819
    14  H   -0.180201
 Sum of Mulliken charges =  -0.00000

 Dipole moment (field-independent basis, Debye):
    X=             -3.1770    Y=             -0.0000    Z=              1.4316  Tot=              3.4847

 Test job not archived.
 1\1\GINC-SE393\SP\RHF\Aug-CC-pVDZ\C6H5Cl2N1\OHZDE\08-Apr-2025\0\\#t hf
  aug-cc-pvdz iop(5/13=1,5/36=2,99/5=2) pseudo=read geom=check guess=(r
 ead,tcheck) scf=(maxcycle=1)\\title\\0,1\C,0,2.23778,0.000005,1.300051
 \C,0,0.863752,0.000004,1.104786\C,0,3.076745,0.000001,0.186919\C,0,2.4
 98915,-0.000004,-1.078043\N,0,1.176798,-0.000004,-1.280251\C,0,0.38556
 ,0.,-0.207012\H,0,2.649341,0.000009,2.30269\H,0,0.17479,0.000008,1.939
 963\C,0,-1.087716,-0.000001,-0.530924\Cl,0,-1.910654,-1.480365,0.09841
 8\H,0,-1.220431,-0.000004,-1.606114\Cl,0,-1.910655,1.480365,0.09841\H,

 Normal termination of Gaussian 16 at Tue Apr  8 22:51:26 2025.
