 Gaussian 16, Revision C.01,

 ----------------------------------------------------------------------
 #t hf aug-cc-pvdz symm=none int=(grid=ultrafine) guess=(read,tcheck) s
 table=(opt,rrhf)
 ----------------------------------------------------------------------
 -----
 title
 -----
 Symbolic Z-matrix:
 Charge =  0 Multiplicity = 1

 SCF Done:  E(RHF) =  -966.447031138     A.U. after   15 cycles
 Normal termination of Gaussian 16 at Wed Apr  9 00:19:35 2025.
 Gaussian 16:  ES64L-G16RevC.01  3-Jul-2019

 ----------------------------------------------------------------------
 #t hf aug-cc-pvdz iop(5/13=1,5/36=2,99/5=2) pseudo=read geom=check gue
 ss=(read,tcheck) scf=(maxcycle=1)
 ----------------------------------------------------------------------
 -----
 title
 -----
 Structure from the checkpoint file:  "BDE49_nonexpt_2593_mol1.chk"
 Charge =  0 Multiplicity = 1

                         Standard orientation:
 ---------------------------------------------------------------------
 Center     Atomic      Atomic             Coordinates (Angstroms)
 Number     Number       Type             X           Y           Z
 ---------------------------------------------------------------------
      1         17           0       -1.547157   -0.477847    0.000032
      2         16           0        0.045144    0.923288   -0.000009
      3          7           0        1.489379    0.205241    0.000017
      4          7           0        1.765740   -1.002614   -0.000083
      5          1           0        2.793526   -1.067594    0.000071
 ---------------------------------------------------------------------

 SCF Done:  E(RHF) =  -966.688261111     A.U. after    2 cycles

 The electronic state is 1-A.
 Alpha  occ. eigenvalues -- -105.59029 -94.06390 -15.63777 -15.59637 -10.63716
 Alpha  occ. eigenvalues --   -8.33950  -7.80638  -7.80204  -7.80177  -6.31731
 Alpha  occ. eigenvalues --   -6.31402  -6.31134  -1.41386  -1.17195  -1.05042
 Alpha  occ. eigenvalues --   -0.87170  -0.76379  -0.69674  -0.64862  -0.53698
 Alpha  occ. eigenvalues --   -0.51500  -0.48539  -0.46408  -0.40160
 Alpha virt. eigenvalues --    0.03262   0.03678   0.03790   0.08366   0.10436
 Alpha virt. eigenvalues --    0.11343   0.11942   0.13442   0.15324   0.15819
 Alpha virt. eigenvalues --    0.16729   0.17832   0.18067   0.20103   0.20491

 Mulliken charges:
               1
     1  Cl  -0.235174
     2  S    0.547532
     3  N   -0.555812
     4  N    0.114985
     5  H    0.128470
 Sum of Mulliken charges =  -0.00000

 Dipole moment (field-independent basis, Debye):
    X=              1.4074    Y=              0.7557    Z=              0.0002  Tot=              1.5975

 Test job not archived.
 1\1\GINC-SE273\SP\RHF\Aug-CC-pVDZ\Cl1H1N2S1\OHZDE\09-Apr-2025\0\\#t hf
  aug-cc-pvdz iop(5/13=1,5/36=2,99/5=2) pseudo=read geom=check guess=(r
 ead,tcheck) scf=(maxcycle=1)\\title\\0,1\Cl,0,1.547157,-0.477847,-0.00
 0032\S,0,-0.045144,0.923288,0.000009\N,0,-1.489379,0.205241,-0.000017\
 N,0,-1.76574,-1.002615,0.000083\H,0,-2.793526,-1.067595,-0.000071\\Ver
 sion=ES64L-G16RevC.01\State=1-A\HF=-966.6882611\RMSD=3.416e-02\Dipole=
 -0.5537223,0.2973179,-0.0000604\Quadrupole=3.0989982,-1.0391561,-2.059
 8421,1.5613601,0.0003012,0.0003454\PG=C01 [X(Cl1H1N2S1)]\\@

 Normal termination of Gaussian 16 at Wed Apr  9 00:19:37 2025.
