 Gaussian 16, Revision C.01,

 ----------------------------------------------------------------------
 #t hf aug-cc-pvdz symm=none int=(grid=ultrafine) guess=(read,tcheck) s
 table=(opt,rrhf)
 ----------------------------------------------------------------------
 -----
 title
 -----
 Symbolic Z-matrix:
 Charge =  0 Multiplicity = 1

 SCF Done:  E(RHF) =  -748.389626363     A.U. after   17 cycles
 Normal termination of Gaussian 16 at Wed Apr  9 00:10:50 2025.
 Gaussian 16:  ES64L-G16RevC.01  3-Jul-2019

 ----------------------------------------------------------------------
 #t hf aug-cc-pvdz iop(5/13=1,5/36=2,99/5=2) pseudo=read geom=check gue
 ss=(read,tcheck) scf=(maxcycle=1)
 ----------------------------------------------------------------------
 -----
 title
 -----
 Structure from the checkpoint file:  "BDE49_nonexpt_2271_mol1.chk"
 Charge =  0 Multiplicity = 1

                         Standard orientation:
 ---------------------------------------------------------------------
 Center     Atomic      Atomic             Coordinates (Angstroms)
 Number     Number       Type             X           Y           Z
 ---------------------------------------------------------------------
      1          6           0        1.108452    1.546154   -0.000005
      2          6           0        0.068692    2.503828   -0.000000
      3          6           0       -1.246090    2.114244    0.000003
      4          6           0       -1.584532    0.734956    0.000001
      5          6           0       -0.544229   -0.245533   -0.000004
      6          6           0        0.811554    0.201766   -0.000006
      7          6           0       -2.931926    0.289273    0.000004
      8          6           0       -3.234469   -1.050715    0.000002
      9          6           0       -2.200936   -2.014601   -0.000003
     10          6           0       -0.883978   -1.621235   -0.000005
     11          1           0       -2.451464   -3.069416   -0.000004
     12          1           0       -0.085740   -2.351602   -0.000009
     13          1           0       -3.723901    1.030815    0.000007
     14          1           0       -4.269498   -1.373897    0.000004
     15          1           0        0.326931    3.556674    0.000001
     16          1           0       -2.041185    2.851450    0.000006
     17          1           0        2.140384    1.879304   -0.000007
     18          8           0        1.772260   -0.772084   -0.000011
     19         14           0        3.430816   -0.654845    0.000009
     20          1           0        3.905460   -2.049312    0.000010
     21          1           0        3.907127    0.060825    1.205138
     22          1           0        3.907157    0.060831   -1.205105
 ---------------------------------------------------------------------

 SCF Done:  E(RHF) =  -748.886801576     A.U. after    2 cycles

 The electronic state is 1-A.
 Alpha  occ. eigenvalues --  -69.57092 -20.56521 -11.31827 -11.25369 -11.24959
 Alpha  occ. eigenvalues --  -11.24846 -11.24604 -11.24378 -11.24338 -11.24207
 Alpha  occ. eigenvalues --  -11.24134 -11.23827  -6.23683  -3.99187  -3.99037
 Alpha  occ. eigenvalues --   -3.99013  -1.48144  -1.17680  -1.11266  -1.04728
 Alpha  occ. eigenvalues --   -1.01465  -0.98350  -0.87212  -0.85709  -0.83192
 Alpha  occ. eigenvalues --   -0.76672  -0.72411  -0.70780  -0.69519  -0.64728
 Alpha  occ. eigenvalues --   -0.63971  -0.61334  -0.61088  -0.60844  -0.58342
 Alpha  occ. eigenvalues --   -0.55173  -0.54203  -0.53291  -0.50662  -0.49895
 Alpha  occ. eigenvalues --   -0.48307  -0.47418  -0.45208  -0.37988  -0.33348
 Alpha  occ. eigenvalues --   -0.29072
 Alpha virt. eigenvalues --    0.03173   0.03401   0.03553   0.04256   0.04594
 Alpha virt. eigenvalues --    0.05584   0.05999   0.06786   0.07378   0.07944
 Alpha virt. eigenvalues --    0.09008   0.09103   0.09225   0.09624   0.10448

 Mulliken charges:
               1
     1  C    0.111543
     2  C   -0.197965
     3  C    0.235810
     4  C    1.297955
     5  C    1.464802
     6  C    0.769888
     7  C    0.298233
     8  C   -0.258102
     9  C    0.000232
    10  C   -0.052147
    11  H   -0.241750
    12  H   -0.298677
    13  H   -0.305592
    14  H   -0.240344
    15  H   -0.243706
    16  H   -0.317388
    17  H   -0.349377
    18  O   -2.517793
    19  Si   1.187603
    20  H   -0.129063
    21  H   -0.107081
    22  H   -0.107082
 Sum of Mulliken charges =   0.00000

 Dipole moment (field-independent basis, Debye):
    X=              0.4884    Y=              0.2976    Z=              0.0000  Tot=              0.5719

 Test job not archived.
 1\1\GINC-SE331\SP\RHF\Aug-CC-pVDZ\C10H10O1Si1\OHZDE\09-Apr-2025\0\\#t
 hf aug-cc-pvdz iop(5/13=1,5/36=2,99/5=2) pseudo=read geom=check guess=
 (read,tcheck) scf=(maxcycle=1)\\title\\0,1\C,0,1.108452,1.546154,-0.00
 0005\C,0,0.068692,2.503828,0.\C,0,-1.24609,2.114244,0.000003\C,0,-1.58
 4532,0.734956,0.000001\C,0,-0.544229,-0.245533,-0.000004\C,0,0.811554,
 0.201766,-0.000006\C,0,-2.931926,0.289273,0.000004\C,0,-3.234469,-1.05
 0715,0.000002\C,0,-2.200936,-2.014601,-0.000003\C,0,-0.883978,-1.62123
 5,-0.000005\H,0,-2.451464,-3.069416,-0.000004\H,0,-0.08574,-2.351602,-

 Normal termination of Gaussian 16 at Wed Apr  9 00:11:04 2025.
