 Gaussian 16, Revision C.01,

 ----------------------------------------------------------------------
 #t hf aug-cc-pvdz symm=none int=(grid=ultrafine) guess=(read,tcheck) s
 table=opt
 ----------------------------------------------------------------------
 -----
 title
 -----
 Symbolic Z-matrix:
 Charge =  0 Multiplicity = 2

 SCF Done:  E(UHF) =  -982.716007415     A.U. after   16 cycles
 Normal termination of Gaussian 16 at Tue Apr  8 23:42:13 2025.
 Gaussian 16:  ES64L-G16RevC.01  3-Jul-2019

 ----------------------------------------------------------------------
 #t hf aug-cc-pvdz iop(5/13=1,5/36=2,99/5=2) pseudo=read geom=check gue
 ss=(read,tcheck) scf=(maxcycle=1)
 ----------------------------------------------------------------------
 -----
 title
 -----
 Structure from the checkpoint file:  "BDE49_nonexpt_167_mol2.chk"
 Charge =  0 Multiplicity = 2

                         Standard orientation:
 ---------------------------------------------------------------------
 Center     Atomic      Atomic             Coordinates (Angstroms)
 Number     Number       Type             X           Y           Z
 ---------------------------------------------------------------------
      1         17           0        1.854476   -0.331321   -0.000001
      2          5           0        0.769474    1.001234    0.000001
      3          6           0       -0.770289    1.071581    0.000002
      4         17           0       -1.677320   -0.532136   -0.000000
      5          1           0       -1.118642    1.621554   -0.877757
      6          1           0       -1.118642    1.621552    0.877762
 ---------------------------------------------------------------------

 SCF Done:  E(UHF) =  -982.930860845     A.U. after    2 cycles

 The electronic state is 2-A.
 Alpha  occ. eigenvalues -- -105.59072-105.56337 -11.31051 -10.64110 -10.61072
 Alpha  occ. eigenvalues --   -7.81031  -7.80717  -7.80665  -7.78164  -7.77606
 Alpha  occ. eigenvalues --   -7.77605  -7.69415  -1.11563  -1.08664  -0.93504
 Alpha  occ. eigenvalues --   -0.70019  -0.64039  -0.60550  -0.57893  -0.51815
 Alpha  occ. eigenvalues --   -0.51234  -0.45468  -0.45381  -0.35631
 Alpha virt. eigenvalues --    0.03312   0.03807   0.04919   0.05397   0.05801
 Alpha virt. eigenvalues --    0.08676   0.09036   0.10320   0.12995   0.14688
 Alpha virt. eigenvalues --    0.16036   0.16328   0.16706   0.17103   0.17633

  Beta  occ. eigenvalues -- -105.59005-105.56229 -11.30978 -10.64030 -10.60958
  Beta  occ. eigenvalues --   -7.80932  -7.80692  -7.80465  -7.77747  -7.77542
  Beta  occ. eigenvalues --   -7.77527  -7.67473  -1.10573  -1.08047  -0.92503
  Beta  occ. eigenvalues --   -0.67499  -0.63894  -0.58589  -0.55857  -0.51287
  Beta  occ. eigenvalues --   -0.49576  -0.45197  -0.44937
  Beta virt. eigenvalues --    0.02362   0.04151   0.04782   0.05185   0.06636
  Beta virt. eigenvalues --    0.07170   0.09234   0.09970   0.12741   0.13100
  Beta virt. eigenvalues --    0.15459   0.16104   0.16475   0.17209   0.17270

 Mulliken charges and spin densities:
               1          2
     1  Cl  -0.182921   0.008457
     2  B    0.310662   0.954205
     3  C   -0.514326  -0.023442
     4  Cl  -0.171517   0.078004
     5  H    0.279051  -0.008612
     6  H    0.279051  -0.008612
 Sum of Mulliken charges =  -0.00000   1.00000

 Dipole moment (field-independent basis, Debye):
    X=              0.1644    Y=              1.9891    Z=              0.0000  Tot=              1.9959
                          Isotropic Fermi Contact Couplings
        Atom                 a.u.       MegaHertz       Gauss      10(-4) cm-1
     1  Cl(35)             0.07064      30.97459      11.05250      10.33201
     2  B(11)              0.30198     433.14550     154.55709     144.48179
     3  C(13)              0.06999      78.68367      28.07629      26.24605
     4  Cl(35)             0.03570      15.65276       5.58529       5.22120
     5  H(1)              -0.00009      -0.38930      -0.13891      -0.12986
     6  H(1)              -0.00009      -0.38932      -0.13892      -0.12986
 --------------------------------------------------------
       Center         ----  Spin Dipole Couplings  ----

 Normal termination of Gaussian 16 at Tue Apr  8 23:42:15 2025.
