 Gaussian 16, Revision C.01,

 ----------------------------------------------------------------------
 #t hf aug-cc-pvdz symm=none int=(grid=ultrafine) guess=(read,tcheck) s
 table=(opt,rrhf)
 ----------------------------------------------------------------------
 -----
 title
 -----
 Symbolic Z-matrix:
 Charge =  0 Multiplicity = 1

 SCF Done:  E(RHF) =  -376.950640227     A.U. after   13 cycles
 Normal termination of Gaussian 16 at Tue Apr  8 23:04:09 2025.
 Gaussian 16:  ES64L-G16RevC.01  3-Jul-2019

 ----------------------------------------------------------------------
 #t hf aug-cc-pvdz iop(5/13=1,5/36=2,99/5=2) pseudo=read geom=check gue
 ss=(read,tcheck) scf=(maxcycle=1)
 ----------------------------------------------------------------------
 -----
 title
 -----
 Structure from the checkpoint file:  "BDE49_expt_371_mol1.chk"
 Charge =  0 Multiplicity = 1

                         Standard orientation:
 ---------------------------------------------------------------------
 Center     Atomic      Atomic             Coordinates (Angstroms)
 Number     Number       Type             X           Y           Z
 ---------------------------------------------------------------------
      1          7           0        2.867819    0.229792    0.189304
      2          6           0        1.717480   -0.655639    0.233876
      3          6           0        0.383320   -0.017448   -0.142660
      4          1           0        1.878020   -1.512965   -0.427256
      5          1           0        1.607574   -1.075288    1.238826
      6          8           0        0.242634    1.144360   -0.446544
      7          8           0       -0.618248   -0.911765   -0.094725
      8          6           0       -1.944591   -0.372690   -0.406067
      9          7           0       -2.436619    0.455652    0.643216
     10          1           0       -2.554825   -1.266695   -0.515210
     11          1           0       -1.850425    0.139651   -1.365988
     12          1           0        2.701850    1.025603    0.798418
     13          1           0        2.954075    0.622785   -0.743411
     14          1           0       -3.377756    0.240386    0.933662
     15          1           0       -2.309260    1.442316    0.472578
 ---------------------------------------------------------------------

 SCF Done:  E(RHF) =  -377.336596912     A.U. after    2 cycles

 The electronic state is 1-A.
 Alpha  occ. eigenvalues --  -20.58355 -20.53288 -15.49820 -15.48994 -11.38310
 Alpha  occ. eigenvalues --  -11.33197 -11.27653  -1.53844  -1.44752  -1.19888
 Alpha  occ. eigenvalues --   -1.18644  -0.98980  -0.91028  -0.78162  -0.74641
 Alpha  occ. eigenvalues --   -0.71465  -0.69692  -0.69443  -0.68397  -0.60888
 Alpha  occ. eigenvalues --   -0.60255  -0.58509  -0.54596  -0.52559  -0.46704
 Alpha  occ. eigenvalues --   -0.46311  -0.45415  -0.42424
 Alpha virt. eigenvalues --    0.03230   0.04350   0.04721   0.05130   0.06176
 Alpha virt. eigenvalues --    0.06301   0.06939   0.08305   0.09854   0.11319
 Alpha virt. eigenvalues --    0.11917   0.13065   0.14076   0.14624   0.15568

 Mulliken charges:
               1
     1  N    0.170717
     2  C   -1.105332
     3  C    1.949582
     4  H    0.187095
     5  H    0.213274
     6  O   -1.214316
     7  O   -1.262048
     8  C    0.175951
     9  N    0.138672
    10  H   -0.092084
    11  H    0.147648
    12  H    0.211696
    13  H    0.199681
    14  H    0.164496
    15  H    0.114970
 Sum of Mulliken charges =  -0.00000

 Dipole moment (field-independent basis, Debye):
    X=             -2.6653    Y=             -0.5779    Z=             -0.6690  Tot=              2.8080

 Test job not archived.
 1\1\GINC-SE080\SP\RHF\Aug-CC-pVDZ\C3H8N2O2\OHZDE\08-Apr-2025\0\\#t hf
 aug-cc-pvdz iop(5/13=1,5/36=2,99/5=2) pseudo=read geom=check guess=(re
 ad,tcheck) scf=(maxcycle=1)\\title\\0,1\N,0,2.867819,0.229792,0.189304
 \C,0,1.71748,-0.655639,0.233876\C,0,0.38332,-0.017448,-0.14266\H,0,1.8
 7802,-1.512965,-0.427256\H,0,1.607574,-1.075288,1.238826\O,0,0.242634,
 1.14436,-0.446544\O,0,-0.618248,-0.911765,-0.094725\C,0,-1.944591,-0.3
 7269,-0.406067\N,0,-2.436619,0.455652,0.643216\H,0,-2.554825,-1.266695
 ,-0.51521\H,0,-1.850425,0.139651,-1.365988\H,0,2.70185,1.025603,0.7984

 Normal termination of Gaussian 16 at Tue Apr  8 23:04:14 2025.
