 Gaussian 16, Revision C.01,

 ----------------------------------------------------------------------
 #t hf aug-cc-pvdz symm=none int=(grid=ultrafine) guess=(read,tcheck) s
 table=(opt,rrhf)
 ----------------------------------------------------------------------
 -----
 title
 -----
 Symbolic Z-matrix:
 Charge =  0 Multiplicity = 1

 SCF Done:  E(RHF) =  -1605.44717764     A.U. after   14 cycles
 Normal termination of Gaussian 16 at Wed Apr  9 00:01:44 2025.
 Gaussian 16:  ES64L-G16RevC.01  3-Jul-2019

 ----------------------------------------------------------------------
 #t hf aug-cc-pvdz iop(5/13=1,5/36=2,99/5=2) pseudo=read geom=check gue
 ss=(read,tcheck) scf=(maxcycle=1)
 ----------------------------------------------------------------------
 -----
 title
 -----
 Structure from the checkpoint file:  "BDE49_nonexpt_212_mol1.chk"
 Charge =  0 Multiplicity = 1

                         Standard orientation:
 ---------------------------------------------------------------------
 Center     Atomic      Atomic             Coordinates (Angstroms)
 Number     Number       Type             X           Y           Z
 ---------------------------------------------------------------------
      1         17           0        2.343372   -0.742211   -0.344517
      2         17           0        1.001917    1.936003    0.223734
      3          5           0        0.942446    0.213676    0.008389
      4         16           0       -0.699005   -0.728123    0.167662
      5          8           0       -0.611573   -1.485367    1.386922
      6          8           0       -1.812405    0.407855    0.460440
      7          6           0       -2.506365    1.025257   -0.652276
      8          1           0       -3.372656    1.509536   -0.206599
      9          1           0       -2.818182    0.269901   -1.371363
     10          1           0       -1.869602    1.771749   -1.131551
     11          8           0       -0.988451   -1.349440   -1.103370
 ---------------------------------------------------------------------

 SCF Done:  E(RHF) =  -1605.94442242     A.U. after    2 cycles

 The electronic state is 1-A.
 Alpha  occ. eigenvalues -- -105.62156-105.61634 -94.23733 -20.61864 -20.56391
 Alpha  occ. eigenvalues --  -20.55956 -11.32365 -10.67159 -10.66624  -8.48632
 Alpha  occ. eigenvalues --   -7.84061  -7.83760  -7.83706  -7.83531  -7.83220
 Alpha  occ. eigenvalues --   -7.83172  -7.78009  -6.46753  -6.46623  -6.46402
 Alpha  occ. eigenvalues --   -1.61634  -1.49278  -1.46637  -1.15667  -1.10384
 Alpha  occ. eigenvalues --   -1.01572  -0.91768  -0.78784  -0.73278  -0.70108
 Alpha  occ. eigenvalues --   -0.69880  -0.65815  -0.63812  -0.63130  -0.57510
 Alpha  occ. eigenvalues --   -0.57129  -0.55743  -0.52963  -0.51793  -0.51543
 Alpha  occ. eigenvalues --   -0.50558  -0.49427  -0.48391  -0.45297
 Alpha virt. eigenvalues --    0.02610   0.03168   0.04283   0.04852   0.05460
 Alpha virt. eigenvalues --    0.06631   0.06998   0.07677   0.11107   0.11475
 Alpha virt. eigenvalues --    0.12997   0.13344   0.13969   0.14915   0.15657

 Mulliken charges:
               1
     1  Cl  -0.247206
     2  Cl  -0.198911
     3  B    0.736175
     4  S    3.536240
     5  O   -1.428618
     6  O   -1.562502
     7  C    0.214409
     8  H    0.035570
     9  H    0.193387
    10  H    0.152588
    11  O   -1.431133
 Sum of Mulliken charges =  -0.00000

 Dipole moment (field-independent basis, Debye):
    X=              0.1965    Y=              3.9207    Z=             -1.5256  Tot=              4.2117

 Test job not archived.
 1\1\GINC-SE273\SP\RHF\Aug-CC-pVDZ\C1H3B1Cl2O3S1\OHZDE\09-Apr-2025\0\\#
 t hf aug-cc-pvdz iop(5/13=1,5/36=2,99/5=2) pseudo=read geom=check gues
 s=(read,tcheck) scf=(maxcycle=1)\\title\\0,1\Cl,0,2.343372,-0.742211,-
 0.344517\Cl,0,1.001917,1.936003,0.223734\B,0,0.942446,0.213676,0.00838
 9\S,0,-0.699005,-0.728123,0.167662\O,0,-0.611573,-1.485367,1.386922\O,
 0,-1.812405,0.407855,0.46044\C,0,-2.506365,1.025257,-0.652276\H,0,-3.3
 72656,1.509535,-0.206599\H,0,-2.818182,0.269901,-1.371363\H,0,-1.86960
 2,1.771749,-1.131551\O,0,-0.988451,-1.34944,-1.10337\\Version=ES64L-G1

 Normal termination of Gaussian 16 at Wed Apr  9 00:01:51 2025.
