 Gaussian 16, Revision C.01,

 ----------------------------------------------------------------------
 #t hf aug-cc-pvdz symm=none int=(grid=ultrafine) guess=(read,tcheck) s
 table=(opt,rrhf)
 ----------------------------------------------------------------------
 -----
 title
 -----
 Symbolic Z-matrix:
 Charge =  0 Multiplicity = 1

 SCF Done:  E(RHF) =  -1574.45370105     A.U. after   13 cycles
 Normal termination of Gaussian 16 at Tue Apr  8 23:54:39 2025.
 Gaussian 16:  ES64L-G16RevC.01  3-Jul-2019

 ----------------------------------------------------------------------
 #t hf aug-cc-pvdz iop(5/13=1,5/36=2,99/5=2) pseudo=read geom=check gue
 ss=(read,tcheck) scf=(maxcycle=1)
 ----------------------------------------------------------------------
 -----
 title
 -----
 Structure from the checkpoint file:  "BDE49_nonexpt_1933_mol1.chk"
 Charge =  0 Multiplicity = 1

                         Standard orientation:
 ---------------------------------------------------------------------
 Center     Atomic      Atomic             Coordinates (Angstroms)
 Number     Number       Type             X           Y           Z
 ---------------------------------------------------------------------
      1          6           0       -1.165176    1.420280   -0.371595
      2         14           0        0.667502    1.665417    0.064985
      3         16           0        1.800026   -0.271262   -0.105199
      4          1           0        0.844085    2.138100    1.446446
      5          1           0        1.304863    2.542435   -0.932525
      6          8           0        1.116488   -1.090321   -1.109160
      7          8           0        1.634048   -0.981102    1.326738
      8          8           0        3.202277   -0.001754   -0.251846
      9         16           0       -1.879202   -0.167591    0.099637
     10          8           0       -1.105194   -0.652223    1.234429
     11          8           0       -3.298367   -0.046283    0.199674
     12          8           0       -1.575025   -1.077645   -1.162517
     13          1           0        0.679450   -1.165799    1.464962
     14          1           0       -0.600479   -1.258691   -1.211131
     15          1           0       -1.361880    1.556445   -1.435727
     16          1           0       -1.747012    2.166266    0.178208
 ---------------------------------------------------------------------

 SCF Done:  E(RHF) =  -1575.09399941     A.U. after    2 cycles

 The electronic state is 1-A.
 Alpha  occ. eigenvalues --  -94.26912 -94.24489 -69.62616 -20.63092 -20.62826
 Alpha  occ. eigenvalues --  -20.58464 -20.57989 -20.57386 -20.56888 -11.32335
 Alpha  occ. eigenvalues --   -8.51591  -8.49470  -6.49735  -6.49623  -6.49422
 Alpha  occ. eigenvalues --   -6.47571  -6.47456  -6.47216  -6.29520  -4.04923
 Alpha  occ. eigenvalues --   -4.04812  -4.04793  -1.64314  -1.62643  -1.51296
 Alpha  occ. eigenvalues --   -1.50025  -1.48662  -1.47550  -1.09674  -0.96117
 Alpha  occ. eigenvalues --   -0.92009  -0.82964  -0.79961  -0.77075  -0.74113
 Alpha  occ. eigenvalues --   -0.71921  -0.70551  -0.70345  -0.67062  -0.65856
 Alpha  occ. eigenvalues --   -0.63001  -0.59184  -0.58209  -0.57813  -0.55738
 Alpha  occ. eigenvalues --   -0.54746  -0.53789  -0.52596  -0.51999  -0.50415
 Alpha  occ. eigenvalues --   -0.49697  -0.49097  -0.45846
 Alpha virt. eigenvalues --    0.01540   0.03374   0.03933   0.04738   0.05605
 Alpha virt. eigenvalues --    0.06653   0.06968   0.07249   0.08382   0.09558
 Alpha virt. eigenvalues --    0.10600   0.11667   0.11877   0.12517   0.12939

 Mulliken charges:
               1
     1  C   -1.120551
     2  Si   1.191222
     3  S    3.251759
     4  H   -0.031829
     5  H   -0.075790
     6  O   -1.571541
     7  O   -1.431992
     8  O   -1.430944
     9  S    4.134134
    10  O   -1.654698
    11  O   -1.469824
    12  O   -1.548535
    13  H    0.598642
    14  H    0.665353
    15  H    0.280081
    16  H    0.214512
 Sum of Mulliken charges =  -0.00000

 Dipole moment (field-independent basis, Debye):
    X=             -0.7342    Y=              4.9908    Z=             -0.3466  Tot=              5.0564

 Test job not archived.
 1\1\GINC-SE398\SP\RHF\Aug-CC-pVDZ\C1H6O6S2Si1\OHZDE\08-Apr-2025\0\\#t
 hf aug-cc-pvdz iop(5/13=1,5/36=2,99/5=2) pseudo=read geom=check guess=
 (read,tcheck) scf=(maxcycle=1)\\title\\0,1\C,0,-1.165176,1.42028,-0.37
 1595\Si,0,0.667502,1.665417,0.064985\S,0,1.800026,-0.271262,-0.105199\
 H,0,0.844085,2.1381,1.446446\H,0,1.304863,2.542435,-0.932525\O,0,1.116
 488,-1.090321,-1.10916\O,0,1.634048,-0.981102,1.326738\O,0,3.202277,-0
 .001754,-0.251846\S,0,-1.879202,-0.167591,0.099637\O,0,-1.105194,-0.65
 2223,1.234429\O,0,-3.298367,-0.046283,0.199674\O,0,-1.575025,-1.077645

 Normal termination of Gaussian 16 at Tue Apr  8 23:54:48 2025.
