 Gaussian 16, Revision C.01,

 ----------------------------------------------------------------------
 #t hf aug-cc-pvdz symm=none int=(grid=ultrafine) guess=(read,tcheck) s
 table=(opt,rrhf)
 ----------------------------------------------------------------------
 -----
 title
 -----
 Symbolic Z-matrix:
 Charge =  0 Multiplicity = 1

 SCF Done:  E(RHF) =  -1236.94065758     A.U. after   16 cycles
 Normal termination of Gaussian 16 at Tue Apr  8 23:27:26 2025.
 Gaussian 16:  ES64L-G16RevC.01  3-Jul-2019

 ----------------------------------------------------------------------
 #t hf aug-cc-pvdz iop(5/13=1,5/36=2,99/5=2) pseudo=read geom=check gue
 ss=(read,tcheck) scf=(maxcycle=1)
 ----------------------------------------------------------------------
 -----
 title
 -----
 Structure from the checkpoint file:  "BDE49_nonexpt_1260_mol1.chk"
 Charge =  0 Multiplicity = 1

                         Standard orientation:
 ---------------------------------------------------------------------
 Center     Atomic      Atomic             Coordinates (Angstroms)
 Number     Number       Type             X           Y           Z
 ---------------------------------------------------------------------
      1         17           0       -2.832379   -0.155317   -0.489155
      2          8           0       -0.242579   -2.371963   -0.237463
      3          8           0       -0.574236    2.488699   -0.005048
      4         15           0       -1.257839   -0.039823    0.868073
      5          7           0        1.080251    0.889791   -0.036431
      6          6           0       -0.199752    1.347971    0.148658
      7          6           0       -0.029095   -1.240992    0.097424
      8          6           0        1.361131   -0.561604   -0.004069
      9          6           0        2.131722    1.844840   -0.376516
     10          1           0        2.387782    1.796980   -1.438675
     11          1           0        1.758147    2.842613   -0.155919
     12          6           0        2.062465   -1.034896   -1.283948
     13          1           0        3.086911   -0.659709   -1.331619
     14          1           0        2.091351   -2.124550   -1.294641
     15          1           0        1.521737   -0.698756   -2.171150
     16          1           0        3.028908    1.651854    0.215511
     17          6           0        2.171207   -0.951730    1.249982
     18          1           0        3.157870   -0.482766    1.230120
     19          1           0        2.309838   -2.034231    1.282495
     20          1           0        1.662182   -0.637654    2.164348
 ---------------------------------------------------------------------

 SCF Done:  E(RHF) =  -1237.49946511     A.U. after    2 cycles

 The electronic state is 1-A.
 Alpha  occ. eigenvalues -- -105.58237 -84.35389 -20.58157 -20.53613 -15.55691
 Alpha  occ. eigenvalues --  -11.38376 -11.37528 -11.32723 -11.28729 -11.26448
 Alpha  occ. eigenvalues --  -11.25567 -10.63060  -7.79985  -7.79586  -7.79576
 Alpha  occ. eigenvalues --   -6.82214  -4.34503  -4.34437  -4.33799  -1.51576
 Alpha  occ. eigenvalues --   -1.48468  -1.29105  -1.10502  -1.09195  -1.01831
 Alpha  occ. eigenvalues --   -0.97685  -0.92125  -0.89116  -0.80738  -0.75012
 Alpha  occ. eigenvalues --   -0.69730  -0.69021  -0.67672  -0.65827  -0.64143
 Alpha  occ. eigenvalues --   -0.61902  -0.60132  -0.58377  -0.57847  -0.57375
 Alpha  occ. eigenvalues --   -0.56411  -0.55490  -0.55470  -0.53397  -0.49783
 Alpha  occ. eigenvalues --   -0.48932  -0.47455  -0.42388  -0.39136  -0.36807
 Alpha virt. eigenvalues --    0.02771   0.03430   0.03777   0.04165   0.05012
 Alpha virt. eigenvalues --    0.05644   0.05735   0.06260   0.07428   0.08264
 Alpha virt. eigenvalues --    0.08990   0.09509   0.10096   0.10496   0.12114

 Mulliken charges:
               1
     1  Cl  -0.498557
     2  O   -1.344304
     3  O   -1.199109
     4  P    1.266319
     5  N    1.496664
     6  C    0.592117
     7  C    1.293991
     8  C   -3.480534
     9  C   -0.314258
    10  H    0.216395
    11  H    0.021733
    12  C    0.365974
    13  H    0.245950
    14  H    0.200177
    15  H    0.221937
    16  H    0.139394
    17  C    0.160730
    18  H    0.152871
    19  H    0.261524
    20  H    0.200986
 Sum of Mulliken charges =   0.00000

 Dipole moment (field-independent basis, Debye):
    X=              4.5718    Y=             -0.7228    Z=              1.1371  Tot=              4.7662

 Test job not archived.
 1\1\GINC-SE038\SP\RHF\Aug-CC-pVDZ\C6H9Cl1N1O2P1\OHZDE\08-Apr-2025\0\\#
 t hf aug-cc-pvdz iop(5/13=1,5/36=2,99/5=2) pseudo=read geom=check gues
 s=(read,tcheck) scf=(maxcycle=1)\\title\\0,1\Cl,0,-2.832379,-0.155317,
 -0.489155\O,0,-0.242579,-2.371963,-0.237463\O,0,-0.574236,2.488699,-0.
 005048\P,0,-1.257839,-0.039823,0.868073\N,0,1.080251,0.889791,-0.03643
 1\C,0,-0.199752,1.347971,0.148658\C,0,-0.029095,-1.240992,0.097424\C,0
 ,1.361131,-0.561604,-0.004069\C,0,2.131722,1.84484,-0.376516\H,0,2.387
 782,1.79698,-1.438675\H,0,1.758147,2.842613,-0.155919\C,0,2.062465,-1.

 Normal termination of Gaussian 16 at Tue Apr  8 23:27:44 2025.
