 Gaussian 16, Revision C.01,

 ----------------------------------------------------------------------
 #t hf aug-cc-pvdz symm=none int=(grid=ultrafine) guess=(read,tcheck) s
 table=(opt,rrhf)
 ----------------------------------------------------------------------
 -----
 title
 -----
 Symbolic Z-matrix:
 Charge =  0 Multiplicity = 1

 SCF Done:  E(RHF) =  -731.178948598     A.U. after   12 cycles

 1\1\GINC-SE082\Stability\RHF\Aug-CC-pVDZ\H6O2Si2\OHZDE\09-Apr-2025\0\\
 #t hf aug-cc-pvdz symm=none int=(grid=ultrafine) guess=(read,tcheck) s
 table=(opt,rrhf)\\title\\0,1\Si,0,-1.20311,-0.529256,-0.000019\O,0,-1.
 55243,1.091741,0.000019\H,0,-0.773448,1.660735,-0.000001\Si,0,1.162656
 ,-0.583045,0.000019\O,0,1.429722,1.071057,-0.00002\H,0,2.327935,1.4106
 77,0.000002\H,0,1.779669,-1.217712,-1.194344\H,0,1.77963,-1.217647,1.1
 94436\H,0,-1.78286,-1.183086,-1.197911\H,0,-1.782909,-1.18314,1.197819
 \\Version=ES64L-G16RevC.01\HF=-731.1789486\RMSD=2.338e-09\Dipole=1.081

 Normal termination of Gaussian 16 at Wed Apr  9 00:07:30 2025.
 Gaussian 16:  ES64L-G16RevC.01  3-Jul-2019

 ----------------------------------------------------------------------
 #t hf aug-cc-pvdz iop(5/13=1,5/36=2,99/5=2) pseudo=read geom=check gue
 ss=(read,tcheck) scf=(maxcycle=1)
 ----------------------------------------------------------------------
 -----
 title
 -----
 Structure from the checkpoint file:  "BDE49_nonexpt_2274_mol1.chk"
 Charge =  0 Multiplicity = 1

                         Standard orientation:
 ---------------------------------------------------------------------
 Center     Atomic      Atomic             Coordinates (Angstroms)
 Number     Number       Type             X           Y           Z
 ---------------------------------------------------------------------
      1         14           0       -1.203110   -0.529256   -0.000019
      2          8           0       -1.552430    1.091741    0.000019
      3          1           0       -0.773448    1.660735   -0.000001
      4         14           0        1.162656   -0.583045    0.000019
      5          8           0        1.429722    1.071057   -0.000020
      6          1           0        2.327935    1.410677    0.000002
      7          1           0        1.779669   -1.217712   -1.194344
      8          1           0        1.779630   -1.217647    1.194436
      9          1           0       -1.782860   -1.183086   -1.197911
     10          1           0       -1.782909   -1.183140    1.197819
 ---------------------------------------------------------------------

 SCF Done:  E(RHF) =  -731.399152913     A.U. after    2 cycles

 The electronic state is 1-A.
 Alpha  occ. eigenvalues --  -69.56133 -69.55369 -20.56227 -20.53878  -6.22824
 Alpha  occ. eigenvalues --   -6.22056  -3.98287  -3.98126  -3.98117  -3.97518
 Alpha  occ. eigenvalues --   -3.97389  -3.97357  -1.44515  -1.42274  -0.79390
 Alpha  occ. eigenvalues --   -0.74430  -0.66113  -0.63563  -0.56499  -0.54968
 Alpha  occ. eigenvalues --   -0.53908  -0.53480  -0.46655  -0.44485  -0.40583
 Alpha virt. eigenvalues --    0.02885   0.04167   0.04550   0.06127   0.06665
 Alpha virt. eigenvalues --    0.07275   0.07764   0.08003   0.09014   0.09757
 Alpha virt. eigenvalues --    0.10562   0.11540   0.13631   0.14180   0.14846

 Mulliken charges:
               1
     1  Si   1.052951
     2  O   -1.517564
     3  H    0.586996
     4  Si   1.280874
     5  O   -1.292794
     6  H    0.415990
     7  H   -0.155656
     8  H   -0.155652
     9  H   -0.107571
    10  H   -0.107574
 Sum of Mulliken charges =  -0.00000

 Dipole moment (field-independent basis, Debye):
    X=              2.6817    Y=             -0.3789    Z=              0.0000  Tot=              2.7083

 Test job not archived.
 1\1\GINC-SE082\SP\RHF\Aug-CC-pVDZ\H6O2Si2\OHZDE\09-Apr-2025\0\\#t hf a
 ug-cc-pvdz iop(5/13=1,5/36=2,99/5=2) pseudo=read geom=check guess=(rea
 d,tcheck) scf=(maxcycle=1)\\title\\0,1\Si,0,-1.20311,-0.529256,-0.0000
 19\O,0,-1.55243,1.091741,0.000019\H,0,-0.773448,1.660735,-0.000001\Si,
 0,1.162656,-0.583045,0.000019\O,0,1.429722,1.071057,-0.00002\H,0,2.327
 935,1.410677,0.000002\H,0,1.779669,-1.217712,-1.194344\H,0,1.77963,-1.
 217647,1.194436\H,0,-1.78286,-1.183086,-1.197911\H,0,-1.782909,-1.1831
 4,1.197819\\Version=ES64L-G16RevC.01\State=1-A\HF=-731.3991529\RMSD=5.

 Normal termination of Gaussian 16 at Wed Apr  9 00:07:33 2025.
