 Gaussian 16, Revision C.01,

 ----------------------------------------------------------------------
 #t hf aug-cc-pvdz symm=none int=(grid=ultrafine) guess=(read,tcheck) s
 table=(opt,rrhf)
 ----------------------------------------------------------------------
 -----
 title
 -----
 Symbolic Z-matrix:
 Charge =  0 Multiplicity = 1

 SCF Done:  E(RHF) =  -396.608658766     A.U. after   15 cycles
 Normal termination of Gaussian 16 at Tue Apr  8 22:43:52 2025.
 Gaussian 16:  ES64L-G16RevC.01  3-Jul-2019

 ----------------------------------------------------------------------
 #t hf aug-cc-pvdz iop(5/13=1,5/36=2,99/5=2) pseudo=read geom=check gue
 ss=(read,tcheck) scf=(maxcycle=1)
 ----------------------------------------------------------------------
 -----
 title
 -----
 Structure from the checkpoint file:  "BDE49_expt_1489_mol1.chk"
 Charge =  0 Multiplicity = 1

                         Standard orientation:
 ---------------------------------------------------------------------
 Center     Atomic      Atomic             Coordinates (Angstroms)
 Number     Number       Type             X           Y           Z
 ---------------------------------------------------------------------
      1          8           0        0.115700   -0.625566   -0.286518
      2          7           0        1.374969   -0.063217    0.040582
      3          8           0        1.395224    0.895010    0.777828
      4          8           0        2.286366   -0.646308   -0.474836
      5          6           0       -1.053897    0.062907    0.269817
      6          6           0       -1.389012    1.289724   -0.567031
      7          1           0       -0.575421    2.015453   -0.543927
      8          1           0       -2.284756    1.774888   -0.170274
      9          1           0       -1.582068    1.002804   -1.603640
     10          6           0       -2.140860   -1.002115    0.265541
     11          1           0       -0.806801    0.352517    1.292167
     12          1           0       -3.057251   -0.589308    0.694097
     13          1           0       -1.838512   -1.866920    0.858164
     14          1           0       -2.355676   -1.335103   -0.752419
 ---------------------------------------------------------------------

 SCF Done:  E(RHF) =  -397.004765239     A.U. after    2 cycles

 The electronic state is 1-A.
 Alpha  occ. eigenvalues --  -20.64605 -20.61340 -20.61334 -15.85620 -11.32589
 Alpha  occ. eigenvalues --  -11.25222 -11.24710  -1.72974  -1.55396  -1.51433
 Alpha  occ. eigenvalues --   -1.09985  -0.97197  -0.95352  -0.84829  -0.81601
 Alpha  occ. eigenvalues --   -0.79653  -0.77566  -0.66123  -0.64753  -0.61066
 Alpha  occ. eigenvalues --   -0.57438  -0.57089  -0.54646  -0.53135  -0.51191
 Alpha  occ. eigenvalues --   -0.50355  -0.49315  -0.47484
 Alpha virt. eigenvalues --    0.03272   0.03942   0.04153   0.05001   0.06415
 Alpha virt. eigenvalues --    0.06866   0.07131   0.07867   0.10885   0.12576
 Alpha virt. eigenvalues --    0.13438   0.14017   0.14919   0.15326   0.15795

 Mulliken charges:
               1
     1  O   -1.377126
     2  N    2.847644
     3  O   -1.166672
     4  O   -1.186595
     5  C   -0.019985
     6  C   -0.334388
     7  H    0.148021
     8  H    0.198873
     9  H    0.256215
    10  C   -0.181271
    11  H    0.242543
    12  H    0.201693
    13  H    0.179919
    14  H    0.191128
 Sum of Mulliken charges =  -0.00000

 Dipole moment (field-independent basis, Debye):
    X=             -3.8401    Y=              0.3867    Z=              0.4259  Tot=              3.8830

 Test job not archived.
 1\1\GINC-SE250\SP\RHF\Aug-CC-pVDZ\C3H7N1O3\OHZDE\08-Apr-2025\0\\#t hf
 aug-cc-pvdz iop(5/13=1,5/36=2,99/5=2) pseudo=read geom=check guess=(re
 ad,tcheck) scf=(maxcycle=1)\\title\\0,1\O,0,0.1157,-0.625566,-0.286518
 \N,0,1.374969,-0.063217,0.040582\O,0,1.395224,0.89501,0.777828\O,0,2.2
 86366,-0.646308,-0.474836\C,0,-1.053897,0.062907,0.269817\C,0,-1.38901
 2,1.289724,-0.567031\H,0,-0.575421,2.015453,-0.543927\H,0,-2.284756,1.
 774888,-0.170274\H,0,-1.582068,1.002804,-1.60364\C,0,-2.14086,-1.00211
 5,0.265541\H,0,-0.806801,0.352517,1.292167\H,0,-3.057251,-0.589308,0.6

 Normal termination of Gaussian 16 at Tue Apr  8 22:43:56 2025.
