 Gaussian 16, Revision C.01,

 ----------------------------------------------------------------------
 #t hf aug-cc-pvdz symm=none int=(grid=ultrafine) guess=(read,tcheck) s
 table=(opt,rrhf)
 ----------------------------------------------------------------------
 -----
 title
 -----
 Symbolic Z-matrix:
 Charge =  0 Multiplicity = 1

 SCF Done:  E(RHF) =  -1591.30156660     A.U. after   13 cycles
 Normal termination of Gaussian 16 at Tue Apr  8 22:59:38 2025.
 Gaussian 16:  ES64L-G16RevC.01  3-Jul-2019

 ----------------------------------------------------------------------
 #t hf aug-cc-pvdz iop(5/13=1,5/36=2,99/5=2) pseudo=read geom=check gue
 ss=(read,tcheck) scf=(maxcycle=1)
 ----------------------------------------------------------------------
 -----
 title
 -----
 Structure from the checkpoint file:  "BDE49_expt_1966_mol1.chk"
 Charge =  0 Multiplicity = 1

                         Standard orientation:
 ---------------------------------------------------------------------
 Center     Atomic      Atomic             Coordinates (Angstroms)
 Number     Number       Type             X           Y           Z
 ---------------------------------------------------------------------
      1         16           0        2.153419    0.675555    0.257417
      2         16           0        0.883903   -0.781165   -0.556828
      3          1           0        1.793973    1.689767   -0.554258
      4         16           0       -0.883902   -0.781165    0.556828
      5         16           0       -2.153419    0.675554   -0.257418
      6          1           0       -1.793981    1.689764    0.554263
 ---------------------------------------------------------------------

 SCF Done:  E(RHF) =  -1591.54502085     A.U. after    2 cycles

 The electronic state is 1-A.
 Alpha  occ. eigenvalues --  -94.01656 -94.01646 -93.99696 -93.99695  -8.29445
 Alpha  occ. eigenvalues --   -8.29423  -8.27653  -8.27653  -6.27194  -6.27164
 Alpha  occ. eigenvalues --   -6.26978  -6.26962  -6.26706  -6.26706  -6.25465
 Alpha  occ. eigenvalues --   -6.25465  -6.25296  -6.25296  -6.25049  -6.25049
 Alpha  occ. eigenvalues --   -1.14312  -1.07436  -0.97123  -0.84659  -0.60680
 Alpha  occ. eigenvalues --   -0.60153  -0.54871  -0.52461  -0.49134  -0.42462
 Alpha  occ. eigenvalues --   -0.40326  -0.38362  -0.38127
 Alpha virt. eigenvalues --    0.03326   0.04290   0.05524   0.05857   0.07960
 Alpha virt. eigenvalues --    0.10445   0.10548   0.11602   0.11622   0.12238
 Alpha virt. eigenvalues --    0.12576   0.13176   0.14339   0.16006   0.16601

 Mulliken charges:
               1
     1  S   -0.372932
     2  S   -0.051145
     3  H    0.424077
     4  S   -0.051145
     5  S   -0.372932
     6  H    0.424077
 Sum of Mulliken charges =  -0.00000

 Dipole moment (field-independent basis, Debye):
    X=             -0.0000    Y=              1.9466    Z=              0.0000  Tot=              1.9466

 Test job not archived.
 1\1\GINC-SE393\SP\RHF\Aug-CC-pVDZ\H2S4\OHZDE\08-Apr-2025\0\\#t hf aug-
 cc-pvdz iop(5/13=1,5/36=2,99/5=2) pseudo=read geom=check guess=(read,t
 check) scf=(maxcycle=1)\\title\\0,1\S,0,2.153419,0.675555,0.257417\S,0
 ,0.883903,-0.781165,-0.556828\H,0,1.793973,1.689767,-0.554258\S,0,-0.8
 83902,-0.781165,0.556828\S,0,-2.153419,0.675554,-0.257418\H,0,-1.79398
 1,1.689764,0.554263\\Version=ES64L-G16RevC.01\State=1-A\HF=-1591.54502
 08\RMSD=3.340e-03\Dipole=-0.0000019,0.7658528,0.0000017\Quadrupole=-1.
 6108339,3.0041006,-1.3932667,-0.0000148,-0.7677654,0.0000086\PG=C01 [X

 Normal termination of Gaussian 16 at Tue Apr  8 22:59:40 2025.
