 Gaussian 16, Revision C.01,

 ----------------------------------------------------------------------
 #t hf aug-cc-pvdz symm=none int=(grid=ultrafine) guess=(read,tcheck) s
 table=(opt,rrhf)
 ----------------------------------------------------------------------
 -----
 title
 -----
 Symbolic Z-matrix:
 Charge =  0 Multiplicity = 1

 SCF Done:  E(RHF) =  -766.136732755     A.U. after   15 cycles
 Normal termination of Gaussian 16 at Wed Apr  9 00:25:12 2025.
 Gaussian 16:  ES64L-G16RevC.01  3-Jul-2019

 ----------------------------------------------------------------------
 #t hf aug-cc-pvdz iop(5/13=1,5/36=2,99/5=2) pseudo=read geom=check gue
 ss=(read,tcheck) scf=(maxcycle=1)
 ----------------------------------------------------------------------
 -----
 title
 -----
 Structure from the checkpoint file:  "BDE49_nonexpt_2704_mol1.chk"
 Charge =  0 Multiplicity = 1

                         Standard orientation:
 ---------------------------------------------------------------------
 Center     Atomic      Atomic             Coordinates (Angstroms)
 Number     Number       Type             X           Y           Z
 ---------------------------------------------------------------------
      1          6           0       -1.065744    1.205584    0.259788
      2          6           0       -2.396062    1.205858   -0.149745
      3          6           0       -3.064023   -0.000001   -0.353953
      4          6           0       -2.396061   -1.205859   -0.149743
      5          6           0       -1.065743   -1.205583    0.259789
      6          6           0        1.056630    0.000002    0.910920
      7          6           0       -0.390541    0.000001    0.480777
      8         16           0        2.014437   -0.000002   -0.635003
      9          9           0        3.566075    0.000001    0.010766
     10          1           0        1.308954   -0.891911    1.485567
     11          1           0        1.308954    0.891917    1.485563
     12          1           0       -0.546092    2.144790    0.416685
     13          1           0       -2.910755    2.146549   -0.308625
     14          1           0       -4.100622   -0.000002   -0.671100
     15          1           0       -2.910753   -2.146550   -0.308622
     16          1           0       -0.546091   -2.144789    0.416688
 ---------------------------------------------------------------------

 SCF Done:  E(RHF) =  -766.564381008     A.U. after    2 cycles

 The electronic state is 1-A.
 Alpha  occ. eigenvalues --  -94.02798 -26.45849 -11.29112 -11.27049 -11.25906
 Alpha  occ. eigenvalues --  -11.25896 -11.25744 -11.25635 -11.25630  -8.30045
 Alpha  occ. eigenvalues --   -6.27846  -6.27524  -6.27242  -1.55626  -1.17837
 Alpha  occ. eigenvalues --   -1.09656  -1.03223  -1.00723  -0.89669  -0.85300
 Alpha  occ. eigenvalues --   -0.82056  -0.72472  -0.67864  -0.66608  -0.65116
 Alpha  occ. eigenvalues --   -0.64119  -0.63558  -0.61492  -0.59359  -0.58885
 Alpha  occ. eigenvalues --   -0.53207  -0.52119  -0.51727  -0.48391  -0.37809
 Alpha  occ. eigenvalues --   -0.35703  -0.35561
 Alpha virt. eigenvalues --    0.03034   0.03361   0.03760   0.04828   0.05062
 Alpha virt. eigenvalues --    0.06700   0.07374   0.08456   0.08579   0.09006
 Alpha virt. eigenvalues --    0.09409   0.10420   0.12119   0.12846   0.13828

 Mulliken charges:
               1
     1  C   -0.182194
     2  C    0.286960
     3  C   -0.049115
     4  C    0.286961
     5  C   -0.182196
     6  C   -0.855512
     7  C    1.635124
     8  S    0.886453
     9  F   -0.676831
    10  H    0.036540
    11  H    0.036538
    12  H   -0.286662
    13  H   -0.219295
    14  H   -0.210812
    15  H   -0.219296
    16  H   -0.286662
 Sum of Mulliken charges =  -0.00000

 Dipole moment (field-independent basis, Debye):
    X=             -2.9526    Y=              0.0000    Z=              0.9639  Tot=              3.1059

 Test job not archived.
 1\1\GINC-SE125\SP\RHF\Aug-CC-pVDZ\C7H7F1S1\OHZDE\09-Apr-2025\0\\#t hf
 aug-cc-pvdz iop(5/13=1,5/36=2,99/5=2) pseudo=read geom=check guess=(re
 ad,tcheck) scf=(maxcycle=1)\\title\\0,1\C,0,-1.065744,1.205584,0.25978
 8\C,0,-2.396062,1.205858,-0.149745\C,0,-3.064023,-0.000001,-0.353953\C
 ,0,-2.396061,-1.205859,-0.149743\C,0,-1.065743,-1.205583,0.259789\C,0,
 1.05663,0.000002,0.91092\C,0,-0.390541,0.000001,0.480777\S,0,2.014437,
 -0.000002,-0.635003\F,0,3.566075,0.000001,0.010766\H,0,1.308954,-0.891
 911,1.485567\H,0,1.308954,0.891917,1.485563\H,0,-0.546092,2.14479,0.41

 Normal termination of Gaussian 16 at Wed Apr  9 00:25:23 2025.
