 Gaussian 16, Revision C.01,

 ----------------------------------------------------------------------
 #t hf aug-cc-pvdz symm=none int=(grid=ultrafine) guess=(read,tcheck) s
 table=(opt,rrhf)
 ----------------------------------------------------------------------
 -----
 title
 -----
 Symbolic Z-matrix:
 Charge =  0 Multiplicity = 1

 SCF Done:  E(RHF) =  -726.651996114     A.U. after   12 cycles
 Normal termination of Gaussian 16 at Tue Apr  8 23:41:14 2025.
 Gaussian 16:  ES64L-G16RevC.01  3-Jul-2019

 ----------------------------------------------------------------------
 #t hf aug-cc-pvdz iop(5/13=1,5/36=2,99/5=2) pseudo=read geom=check gue
 ss=(read,tcheck) scf=(maxcycle=1)
 ----------------------------------------------------------------------
 -----
 title
 -----
 Structure from the checkpoint file:  "BDE49_nonexpt_1664_mol1.chk"
 Charge =  0 Multiplicity = 1

                         Standard orientation:
 ---------------------------------------------------------------------
 Center     Atomic      Atomic             Coordinates (Angstroms)
 Number     Number       Type             X           Y           Z
 ---------------------------------------------------------------------
      1         14           0        0.054239    0.958722    0.163669
      2          6           0       -1.603974    0.248820   -0.414228
      3         15           0        1.722454   -0.565354   -0.183412
      4          7           0       -1.905826   -1.000242    0.307937
      5          1           0       -1.624117    0.167000   -1.512899
      6          1           0       -2.363086    0.992443   -0.147276
      7          1           0       -1.320215   -1.755918   -0.033160
      8          1           0       -2.865913   -1.286270    0.142653
      9          1           0        1.460611   -1.306334    0.999066
     10          1           0        2.719699    0.237687    0.428897
     11          1           0       -0.039079    1.378968    1.581107
     12          1           0        0.400561    2.139396   -0.668756
 ---------------------------------------------------------------------

 SCF Done:  E(RHF) =  -726.838623234     A.U. after    2 cycles

 The electronic state is 1-A.
 Alpha  occ. eigenvalues --  -84.26181 -69.53330 -15.49634 -11.25461  -6.73465
 Alpha  occ. eigenvalues --   -6.20378  -4.25815  -4.25649  -4.25114  -3.95720
 Alpha  occ. eigenvalues --   -3.95684  -3.95654  -1.17915  -0.91816  -0.86079
 Alpha  occ. eigenvalues --   -0.71034  -0.68144  -0.64489  -0.57331  -0.51421
 Alpha  occ. eigenvalues --   -0.49724  -0.47350  -0.43457  -0.41165  -0.34289
 Alpha virt. eigenvalues --    0.03393   0.04421   0.04599   0.05169   0.06410
 Alpha virt. eigenvalues --    0.06851   0.07388   0.08134   0.09175   0.10061
 Alpha virt. eigenvalues --    0.10581   0.11868   0.12663   0.12865   0.14359

 Mulliken charges:
               1
     1  Si   1.269945
     2  C   -0.806194
     3  P   -1.208093
     4  N    0.038607
     5  H    0.081943
     6  H   -0.005123
     7  H    0.109727
     8  H    0.139797
     9  H    0.367089
    10  H    0.318643
    11  H   -0.129261
    12  H   -0.177081
 Sum of Mulliken charges =  -0.00000

 Dipole moment (field-independent basis, Debye):
    X=             -0.9142    Y=             -0.1981    Z=             -0.9986  Tot=              1.3683

 Test job not archived.
 1\1\GINC-SE461\SP\RHF\Aug-CC-pVDZ\C1H8N1P1Si1\OHZDE\08-Apr-2025\0\\#t
 hf aug-cc-pvdz iop(5/13=1,5/36=2,99/5=2) pseudo=read geom=check guess=
 (read,tcheck) scf=(maxcycle=1)\\title\\0,1\Si,0,0.054239,0.958722,0.16
 3669\C,0,-1.603974,0.24882,-0.414228\P,0,1.722454,-0.565354,-0.183412\
 N,0,-1.905826,-1.000242,0.307937\H,0,-1.624117,0.167,-1.512899\H,0,-2.
 363086,0.992443,-0.147276\H,0,-1.320215,-1.755918,-0.03316\H,0,-2.8659
 13,-1.28627,0.142653\H,0,1.460611,-1.306334,0.999066\H,0,2.719699,0.23
 7687,0.428897\H,0,-0.039079,1.378968,1.581107\H,0,0.400561,2.139396,-0

 Normal termination of Gaussian 16 at Tue Apr  8 23:41:18 2025.
