 Gaussian 16, Revision C.01,

 ----------------------------------------------------------------------
 #t hf aug-cc-pvdz symm=none int=(grid=ultrafine) guess=(read,tcheck) s
 table=(opt,rrhf)
 ----------------------------------------------------------------------
 -----
 title
 -----
 Symbolic Z-matrix:
 Charge =  0 Multiplicity = 1

 SCF Done:  E(RHF) =  -366.939316881     A.U. after   11 cycles

 1\1\GINC-SE343\Stability\RHF\Aug-CC-pVDZ\C2H4Si1\OHZDE\08-Apr-2025\0\\
 #t hf aug-cc-pvdz symm=none int=(grid=ultrafine) guess=(read,tcheck) s
 table=(opt,rrhf)\\title\\0,1\Si,0,-1.060244,0.000004,-0.000005\C,0,0.7
 67531,-0.000007,0.000015\C,0,1.975354,-0.000018,0.000016\H,0,3.039395,
 0.000105,-0.000085\H,0,-1.551052,-1.211015,-0.691302\H,0,-1.551078,1.2
 04192,-0.703111\H,0,-1.551152,0.006816,1.394381\\Version=ES64L-G16RevC
 .01\HF=-366.9393169\RMSD=2.075e-09\Dipole=0.1609492,0.0000712,-0.00004
 85\Quadrupole=3.6779459,-1.8389721,-1.8389738,0.0002883,-0.000257,-0.0

 Normal termination of Gaussian 16 at Tue Apr  8 23:57:20 2025.
 Gaussian 16:  ES64L-G16RevC.01  3-Jul-2019

 ----------------------------------------------------------------------
 #t hf aug-cc-pvdz iop(5/13=1,5/36=2,99/5=2) pseudo=read geom=check gue
 ss=(read,tcheck) scf=(maxcycle=1)
 ----------------------------------------------------------------------
 -----
 title
 -----
 Structure from the checkpoint file:  "BDE49_nonexpt_2045_mol1.chk"
 Charge =  0 Multiplicity = 1

                         Standard orientation:
 ---------------------------------------------------------------------
 Center     Atomic      Atomic             Coordinates (Angstroms)
 Number     Number       Type             X           Y           Z
 ---------------------------------------------------------------------
      1         14           0        1.060244   -0.000004   -0.000005
      2          6           0       -0.767531    0.000007    0.000015
      3          6           0       -1.975354    0.000018    0.000016
      4          1           0       -3.039395   -0.000105   -0.000086
      5          1           0        1.551052    1.214105   -0.685862
      6          1           0        1.551078   -1.201025   -0.708506
      7          1           0        1.551152   -0.013072    1.394337
 ---------------------------------------------------------------------

 SCF Done:  E(RHF) =  -367.052073905     A.U. after    2 cycles

 The electronic state is 1-A.
 Alpha  occ. eigenvalues --  -69.55051 -11.25713 -11.23363  -6.22009  -3.97460
 Alpha  occ. eigenvalues --   -3.97376  -3.97376  -1.03400  -0.80146  -0.72938
 Alpha  occ. eigenvalues --   -0.57199  -0.50972  -0.50972  -0.41275  -0.41275
 Alpha virt. eigenvalues --    0.03323   0.04341   0.05384   0.05384   0.05771
 Alpha virt. eigenvalues --    0.08989   0.08989   0.10573   0.10573   0.12462
 Alpha virt. eigenvalues --    0.14362   0.15658   0.15658   0.16724   0.17899

 Mulliken charges:
               1
     1  Si   0.873734
     2  C   -1.079704
     3  C    1.124102
     4  H   -0.280644
     5  H   -0.212499
     6  H   -0.212492
     7  H   -0.212498
 Sum of Mulliken charges =   0.00000

 Dipole moment (field-independent basis, Debye):
    X=             -0.3879    Y=             -0.0002    Z=             -0.0001  Tot=              0.3879

 Test job not archived.
 1\1\GINC-SE343\SP\RHF\Aug-CC-pVDZ\C2H4Si1\OHZDE\08-Apr-2025\0\\#t hf a
 ug-cc-pvdz iop(5/13=1,5/36=2,99/5=2) pseudo=read geom=check guess=(rea
 d,tcheck) scf=(maxcycle=1)\\title\\0,1\Si,0,-1.060244,0.000004,-0.0000
 05\C,0,0.767531,-0.000007,0.000015\C,0,1.975354,-0.000018,0.000016\H,0
 ,3.039395,0.000105,-0.000085\H,0,-1.551052,-1.211015,-0.691302\H,0,-1.
 551078,1.204192,-0.703111\H,0,-1.551152,0.006816,1.394381\\Version=ES6
 4L-G16RevC.01\State=1-A\HF=-367.0520739\RMSD=2.373e-02\Dipole=0.152630
 9,0.0000708,-0.0000487\Quadrupole=3.7955692,-1.8977799,-1.8977893,0.00

 Normal termination of Gaussian 16 at Tue Apr  8 23:57:22 2025.
