 Gaussian 16, Revision C.01,

 ----------------------------------------------------------------------
 #t hf aug-cc-pvdz symm=none int=(grid=ultrafine) guess=(read,tcheck) s
 table=(opt,rrhf)
 ----------------------------------------------------------------------
 -----
 title
 -----
 Symbolic Z-matrix:
 Charge =  0 Multiplicity = 1

 SCF Done:  E(RHF) =  -545.097271894     A.U. after   13 cycles
 Normal termination of Gaussian 16 at Wed Apr  9 00:34:23 2025.
 Gaussian 16:  ES64L-G16RevC.01  3-Jul-2019

 ----------------------------------------------------------------------
 #t hf aug-cc-pvdz iop(5/13=1,5/36=2,99/5=2) pseudo=read geom=check gue
 ss=(read,tcheck) scf=(maxcycle=1)
 ----------------------------------------------------------------------
 -----
 title
 -----
 Structure from the checkpoint file:  "BDE49_nonexpt_426_mol1.chk"
 Charge =  0 Multiplicity = 1

                         Standard orientation:
 ---------------------------------------------------------------------
 Center     Atomic      Atomic             Coordinates (Angstroms)
 Number     Number       Type             X           Y           Z
 ---------------------------------------------------------------------
      1          9           0        2.200947   -0.939985    0.762337
      2          5           0        1.879213    0.112086    0.034828
      3          9           0        2.845907    0.926674   -0.360545
      4          8           0        0.601652    0.459684   -0.279081
      5          6           0       -0.467863   -0.434558   -0.233463
      6          8           0       -0.322140   -1.612458   -0.441538
      7          7           0       -1.636537    0.204898    0.018841
      8          6           0       -1.773818    1.632666    0.275832
      9          1           0       -2.141630    1.803155    1.293816
     10          1           0       -2.492636    2.067997   -0.425975
     11          1           0       -0.818748    2.132119    0.154494
     12          6           0       -2.862121   -0.582838    0.059429
     13          1           0       -3.575490   -0.210372   -0.682879
     14          1           0       -3.323968   -0.517079    1.050125
     15          1           0       -2.622809   -1.620163   -0.157566
 ---------------------------------------------------------------------

 SCF Done:  E(RHF) =  -545.624373956     A.U. after    2 cycles

 The electronic state is 1-A.
 Alpha  occ. eigenvalues --  -26.48398 -26.48361 -20.60554 -20.53052 -15.54900
 Alpha  occ. eigenvalues --  -11.43388 -11.28853 -11.28062  -7.76157  -1.64165
 Alpha  occ. eigenvalues --   -1.59937  -1.55678  -1.46554  -1.27574  -1.00183
 Alpha  occ. eigenvalues --   -0.99571  -0.85954  -0.79969  -0.77428  -0.75525
 Alpha  occ. eigenvalues --   -0.72081  -0.70672  -0.69511  -0.68019  -0.63952
 Alpha  occ. eigenvalues --   -0.63767  -0.63445  -0.61133  -0.59443  -0.58836
 Alpha  occ. eigenvalues --   -0.58281  -0.56028  -0.51633  -0.46249  -0.42137
 Alpha virt. eigenvalues --    0.02925   0.04241   0.04366   0.05193   0.05531
 Alpha virt. eigenvalues --    0.06155   0.06495   0.06929   0.07582   0.09483
 Alpha virt. eigenvalues --    0.11710   0.12870   0.13110   0.14138   0.14584

 Mulliken charges:
               1
     1  F   -0.534597
     2  B    1.501489
     3  F   -0.673301
     4  O   -1.407254
     5  C    1.192055
     6  O   -1.058565
     7  N    0.721659
     8  C   -0.328345
     9  H    0.180472
    10  H    0.166783
    11  H    0.054873
    12  C   -0.240449
    13  H    0.202111
    14  H    0.206281
    15  H    0.016787
 Sum of Mulliken charges =  -0.00000

 Dipole moment (field-independent basis, Debye):
    X=             -3.2072    Y=              2.6271    Z=              0.7801  Tot=              4.2186

 Test job not archived.
 1\1\GINC-SE366\SP\RHF\Aug-CC-pVDZ\C3H6B1F2N1O2\OHZDE\09-Apr-2025\0\\#t
  hf aug-cc-pvdz iop(5/13=1,5/36=2,99/5=2) pseudo=read geom=check guess
 =(read,tcheck) scf=(maxcycle=1)\\title\\0,1\F,0,2.200947,-0.939985,0.7
 62337\B,0,1.879213,0.112086,0.034828\F,0,2.845907,0.926674,-0.360545\O
 ,0,0.601652,0.459684,-0.279081\C,0,-0.467863,-0.434558,-0.233463\O,0,-
 0.32214,-1.612458,-0.441538\N,0,-1.636537,0.204898,0.018841\C,0,-1.773
 818,1.632666,0.275832\H,0,-2.14163,1.803155,1.293816\H,0,-2.492636,2.0
 67997,-0.425975\H,0,-0.818748,2.132119,0.154494\C,0,-2.862121,-0.58283

 Normal termination of Gaussian 16 at Wed Apr  9 00:34:29 2025.
