 Gaussian 16, Revision C.01,

 ----------------------------------------------------------------------
 #t hf aug-cc-pvdz symm=none int=(grid=ultrafine) guess=(read,tcheck) s
 table=opt
 ----------------------------------------------------------------------
 -----
 title
 -----
 Symbolic Z-matrix:
 Charge =  0 Multiplicity = 2

 SCF Done:  E(UHF) =  -265.587108012     A.U. after   17 cycles
 Normal termination of Gaussian 16 at Tue Apr  8 23:04:17 2025.
 Gaussian 16:  ES64L-G16RevC.01  3-Jul-2019

 ----------------------------------------------------------------------
 #t hf aug-cc-pvdz iop(5/13=1,5/36=2,99/5=2) pseudo=read geom=check gue
 ss=(read,tcheck) scf=(maxcycle=1)
 ----------------------------------------------------------------------
 -----
 title
 -----
 Structure from the checkpoint file:  "BDE49_expt_347_mol2.chk"
 Charge =  0 Multiplicity = 2

                         Standard orientation:
 ---------------------------------------------------------------------
 Center     Atomic      Atomic             Coordinates (Angstroms)
 Number     Number       Type             X           Y           Z
 ---------------------------------------------------------------------
      1          7           0       -0.922905   -1.104434   -0.235586
      2          6           0        0.438432   -1.295508    0.272577
      3          6           0        1.412016   -0.197499   -0.174064
      4          1           0        0.808948   -2.273105   -0.048348
      5          1           0        0.387447   -1.306478    1.367222
      6          7           0        0.855836    1.114722    0.164832
      7          1           0        1.580604   -0.291339   -1.260422
      8          1           0        2.377819   -0.312507    0.327336
      9          6           0       -0.484780    1.343488   -0.156730
     10          6           0       -1.433433    0.223188    0.154182
     11          1           0       -0.816192    2.371862   -0.052590
     12          1           0       -2.396350    0.391397   -0.335067
     13          1           0       -1.640537    0.172004    1.238316
     14          1           0       -0.896696   -1.148786   -1.252078
     15          1           0        1.471036    1.882920   -0.064883
 ---------------------------------------------------------------------

 SCF Done:  E(UHF) =  -265.870163445     A.U. after    2 cycles

 The electronic state is 2-A.
 Alpha  occ. eigenvalues --  -15.50060 -15.48182 -11.26090 -11.25389 -11.25177
 Alpha  occ. eigenvalues --  -11.24862  -1.24552  -1.17817  -1.03039  -0.92424
 Alpha  occ. eigenvalues --   -0.87936  -0.78746  -0.73332  -0.65217  -0.64229
 Alpha  occ. eigenvalues --   -0.63140  -0.60677  -0.58326  -0.55809  -0.51385
 Alpha  occ. eigenvalues --   -0.50694  -0.47459  -0.40343  -0.30078
 Alpha virt. eigenvalues --    0.03583   0.04444   0.04612   0.04869   0.05558
 Alpha virt. eigenvalues --    0.05602   0.06099   0.07278   0.08361   0.12324
 Alpha virt. eigenvalues --    0.12718   0.13128   0.14132   0.14566   0.15369

  Beta  occ. eigenvalues --  -15.49520 -15.48138 -11.26092 -11.25415 -11.25382
  Beta  occ. eigenvalues --  -11.22619  -1.23232  -1.17061  -1.01482  -0.91350
  Beta  occ. eigenvalues --   -0.86465  -0.76849  -0.72625  -0.64661  -0.63078
  Beta  occ. eigenvalues --   -0.62409  -0.58685  -0.56380  -0.54916  -0.50850
  Beta  occ. eigenvalues --   -0.50377  -0.42660  -0.39707
  Beta virt. eigenvalues --    0.03494   0.04434   0.04620   0.04893   0.05437
  Beta virt. eigenvalues --    0.05608   0.06076   0.07186   0.08383   0.11062
  Beta virt. eigenvalues --    0.12734   0.12878   0.13738   0.14210   0.15093

 Mulliken charges and spin densities:
               1          2
     1  N    0.264973  -0.006703
     2  C   -0.530152   0.009614
     3  C   -0.289928  -0.025461
     4  H    0.088071  -0.000981
     5  H    0.135272   0.000529
     6  N    0.418595   0.083510
     7  H    0.057400  -0.003009
     8  H    0.065167   0.003589
     9  C   -0.159246   1.199202
    10  C   -0.666630  -0.210194
    11  H   -0.139103  -0.065979
    12  H    0.093627  -0.006229
    13  H    0.165849   0.033144
    14  H    0.316565   0.005703
    15  H    0.179539  -0.016735
 Sum of Mulliken charges =  -0.00000   1.00000

 Dipole moment (field-independent basis, Debye):
    X=              1.3708    Y=              0.8917    Z=             -0.8102  Tot=              1.8250
                          Isotropic Fermi Contact Couplings
        Atom                 a.u.       MegaHertz       Gauss      10(-4) cm-1
     1  N(14)              0.01489       4.81033       1.71644       1.60455
     2  C(13)              0.00143       1.61176       0.57512       0.53762
     3  C(13)              0.00392       4.41178       1.57423       1.47161
     4  H(1)              -0.00012      -0.53247      -0.19000      -0.17761
     5  H(1)              -0.00013      -0.57326      -0.20455      -0.19122
     6  N(14)              0.03569      11.53158       4.11475       3.84652
     7  H(1)               0.00168       7.53112       2.68729       2.51211
     8  H(1)              -0.00062      -2.79094      -0.99588      -0.93096

 Normal termination of Gaussian 16 at Tue Apr  8 23:04:22 2025.
