 Gaussian 16, Revision C.01,

 ----------------------------------------------------------------------
 #t hf aug-cc-pvdz symm=none int=(grid=ultrafine) guess=(read,tcheck) s
 table=opt
 ----------------------------------------------------------------------
 -----
 title
 -----
 Symbolic Z-matrix:
 Charge =  0 Multiplicity = 2

 SCF Done:  E(UHF) =  -912.758133447     A.U. after   19 cycles
 Normal termination of Gaussian 16 at Tue Apr  8 22:59:53 2025.
 Gaussian 16:  ES64L-G16RevC.01  3-Jul-2019

 ----------------------------------------------------------------------
 #t hf aug-cc-pvdz iop(5/13=1,5/36=2,99/5=2) pseudo=read geom=check gue
 ss=(read,tcheck) scf=(maxcycle=1)
 ----------------------------------------------------------------------
 -----
 title
 -----
 Structure from the checkpoint file:  "BDE49_expt_1969_mol2.chk"
 Charge =  0 Multiplicity = 2

                         Standard orientation:
 ---------------------------------------------------------------------
 Center     Atomic      Atomic             Coordinates (Angstroms)
 Number     Number       Type             X           Y           Z
 ---------------------------------------------------------------------
      1         16           0       -1.747307    0.000001   -0.621586
      2         16           0       -0.556214   -0.000005    0.968978
      3          6           0        1.206445    0.000002    0.348487
      4          6           0        1.519717   -1.275549   -0.430015
      5          1           0        0.917716   -1.327728   -1.340146
      6          1           0        1.321987   -2.169615    0.164839
      7          1           0        2.575130   -1.282223   -0.718879
      8          6           0        1.519706    1.275555   -0.430015
      9          1           0        1.751499    0.000004    1.299361
     10          1           0        0.917705    1.327729   -1.340146
     11          1           0        2.575119    1.282238   -0.718879
     12          1           0        1.321970    2.169619    0.164839
 ---------------------------------------------------------------------

 SCF Done:  E(UHF) =  -913.006069435     A.U. after    2 cycles

 The electronic state is 2-A.
 Alpha  occ. eigenvalues --  -93.99125 -93.97687 -11.28977 -11.24158 -11.24151
 Alpha  occ. eigenvalues --   -8.27060  -8.25719  -6.24919  -6.24743  -6.24555
 Alpha  occ. eigenvalues --   -6.24503  -6.23215  -6.22811  -1.14283  -1.05898
 Alpha  occ. eigenvalues --   -0.95256  -0.90368  -0.78088  -0.65156  -0.62039
 Alpha  occ. eigenvalues --   -0.59672  -0.56264  -0.53329  -0.52111  -0.49677
 Alpha  occ. eigenvalues --   -0.49397  -0.47684  -0.37457  -0.35971
 Alpha virt. eigenvalues --    0.03331   0.04070   0.04138   0.05447   0.06801
 Alpha virt. eigenvalues --    0.07093   0.07791   0.08392   0.08941   0.12523
 Alpha virt. eigenvalues --    0.13956   0.14420   0.14833   0.14972   0.15954

  Beta  occ. eigenvalues --  -93.98862 -93.96904 -11.29037 -11.24133 -11.24126
  Beta  occ. eigenvalues --   -8.26753  -8.24822  -6.24642  -6.24372  -6.23728
  Beta  occ. eigenvalues --   -6.22783  -6.22327  -6.21102  -1.12822  -1.03671
  Beta  occ. eigenvalues --   -0.95171  -0.86350  -0.75645  -0.65131  -0.61749
  Beta  occ. eigenvalues --   -0.59083  -0.56038  -0.52709  -0.51712  -0.48970
  Beta  occ. eigenvalues --   -0.46559  -0.39637  -0.35801
  Beta virt. eigenvalues --    0.00782   0.03334   0.04103   0.04166   0.05469
  Beta virt. eigenvalues --    0.06877   0.07110   0.08073   0.08620   0.09006
  Beta virt. eigenvalues --    0.12605   0.13977   0.14925   0.15014   0.15062

 Mulliken charges and spin densities:
               1          2
     1  S   -0.122389   0.872698
     2  S    0.112698   0.200937
     3  C   -0.755723  -0.081729
     4  C   -0.254757   0.011440
     5  H    0.214687  -0.005276
     6  H    0.146996   0.000088
     7  H    0.169663  -0.001903
     8  C   -0.254755   0.011440
     9  H    0.212234  -0.000604
    10  H    0.214687  -0.005276
    11  H    0.169663  -0.001903
    12  H    0.146995   0.000088
 Sum of Mulliken charges =  -0.00000   1.00000

 Dipole moment (field-independent basis, Debye):
    X=              2.6347    Y=              0.0000    Z=             -0.1067  Tot=              2.6368
                          Isotropic Fermi Contact Couplings
        Atom                 a.u.       MegaHertz       Gauss      10(-4) cm-1
     1  S(33)              0.18129      62.26756      22.21862      20.77022
     2  S(33)              0.10654      36.59520      13.05808      12.20685
     3  C(13)             -0.00985     -11.07702      -3.95255      -3.69490
     4  C(13)              0.00346       3.88481       1.38620       1.29583
     5  H(1)              -0.00020      -0.90890      -0.32432      -0.30318
     6  H(1)              -0.00015      -0.68180      -0.24328      -0.22742
     7  H(1)              -0.00029      -1.31220      -0.46823      -0.43770
     8  C(13)              0.00346       3.88470       1.38616       1.29580

 Normal termination of Gaussian 16 at Tue Apr  8 22:59:58 2025.
