 Gaussian 16, Revision C.01,

 ----------------------------------------------------------------------
 #t hf aug-cc-pvdz symm=none int=(grid=ultrafine) guess=(read,tcheck) s
 table=(opt,rrhf)
 ----------------------------------------------------------------------
 -----
 title
 -----
 Symbolic Z-matrix:
 Charge =  0 Multiplicity = 1

 SCF Done:  E(RHF) =  -701.343921639     A.U. after   16 cycles
 Normal termination of Gaussian 16 at Tue Apr  8 23:18:50 2025.
 Gaussian 16:  ES64L-G16RevC.01  3-Jul-2019

 ----------------------------------------------------------------------
 #t hf aug-cc-pvdz iop(5/13=1,5/36=2,99/5=2) pseudo=read geom=check gue
 ss=(read,tcheck) scf=(maxcycle=1)
 ----------------------------------------------------------------------
 -----
 title
 -----
 Structure from the checkpoint file:  "BDE49_nonexpt_1067_mol1.chk"
 Charge =  0 Multiplicity = 1

                         Standard orientation:
 ---------------------------------------------------------------------
 Center     Atomic      Atomic             Coordinates (Angstroms)
 Number     Number       Type             X           Y           Z
 ---------------------------------------------------------------------
      1         17           0       -1.651232   -0.400236   -0.088344
      2          8           0       -0.485042    0.692786    0.544333
      3          6           0        1.583734   -0.016100   -0.089409
      4          7           0        2.454731   -0.738563    0.159560
      5          8           0        0.658220    0.816033   -0.429160
 ---------------------------------------------------------------------

 SCF Done:  E(RHF) =  -701.640949059     A.U. after    2 cycles

 The electronic state is 1-A.
 Alpha  occ. eigenvalues -- -105.68090 -20.76062 -20.73639 -15.54656 -11.36905
 Alpha  occ. eigenvalues --  -10.72291  -7.89284  -7.88690  -7.88645  -1.68078
 Alpha  occ. eigenvalues --   -1.43653  -1.25718  -1.07287  -0.85104  -0.74343
 Alpha  occ. eigenvalues --   -0.73931  -0.65360  -0.63283  -0.62762  -0.55129
 Alpha  occ. eigenvalues --   -0.50811  -0.50714  -0.50080
 Alpha virt. eigenvalues --    0.00383   0.06042   0.06768   0.09307   0.09846
 Alpha virt. eigenvalues --    0.10517   0.13425   0.13664   0.14647   0.18120
 Alpha virt. eigenvalues --    0.18477   0.18927   0.20414   0.22167   0.22992

 Mulliken charges:
               1
     1  Cl   0.503850
     2  O   -0.439796
     3  C   -0.095657
     4  N    0.602288
     5  O   -0.570685
 Sum of Mulliken charges =  -0.00000

 Dipole moment (field-independent basis, Debye):
    X=             -3.3632    Y=              1.2236    Z=             -0.5913  Tot=              3.6274

 Test job not archived.
 1\1\GINC-SE143\SP\RHF\Aug-CC-pVDZ\C1Cl1N1O2\OHZDE\08-Apr-2025\0\\#t hf
  aug-cc-pvdz iop(5/13=1,5/36=2,99/5=2) pseudo=read geom=check guess=(r
 ead,tcheck) scf=(maxcycle=1)\\title\\0,1\Cl,0,-1.651232,-0.400236,-0.0
 88344\O,0,-0.485042,0.692786,0.544333\C,0,1.583734,-0.0161,-0.089409\N
 ,0,2.454731,-0.738563,0.15956\O,0,0.65822,0.816033,-0.42916\\Version=E
 S64L-G16RevC.01\State=1-A\HF=-701.6409491\RMSD=1.214e-02\Dipole=-1.323
 187,0.4814204,-0.2326396\Quadrupole=-2.9232624,0.997916,1.9253464,4.27
 38712,-0.7544126,0.6333282\PG=C01 [X(C1Cl1N1O2)]\\@

 Normal termination of Gaussian 16 at Tue Apr  8 23:18:52 2025.
