 Gaussian 16, Revision C.01,

 ----------------------------------------------------------------------
 #t hf aug-cc-pvdz symm=none int=(grid=ultrafine) guess=(read,tcheck) s
 table=opt
 ----------------------------------------------------------------------
 -----
 title
 -----
 Symbolic Z-matrix:
 Charge =  0 Multiplicity = 2

 SCF Done:  E(UHF) =  -535.898567685     A.U. after   17 cycles

 1\1\GINC-SE090\Stability\UHF\Aug-CC-pVDZ\C5H10P1\OHZDE\08-Apr-2025\0\\
 #t hf aug-cc-pvdz symm=none int=(grid=ultrafine) guess=(read,tcheck) s
 table=opt\\title\\0,2\C,0,-0.389839,-0.000051,-0.404275\C,0,0.409525,-
 1.203712,0.144217\C,0,0.409494,1.203768,0.143943\C,0,1.889853,0.778633
 ,-0.006984\H,0,0.162361,1.347955,1.201209\H,0,0.178322,2.136875,-0.374
 144\C,0,1.889807,-0.778657,-0.007302\H,0,2.506238,1.191635,0.794677\H,
 0,2.297818,1.158755,-0.947043\H,0,2.506657,-1.192073,0.793788\H,0,2.29
 7143,-1.158389,-0.947797\H,0,0.178187,-2.13702,-0.373435\H,0,0.162667,

 Normal termination of Gaussian 16 at Tue Apr  8 23:37:36 2025.
 Gaussian 16:  ES64L-G16RevC.01  3-Jul-2019

 ----------------------------------------------------------------------
 #t hf aug-cc-pvdz iop(5/13=1,5/36=2,99/5=2) pseudo=read geom=check gue
 ss=(read,tcheck) scf=(maxcycle=1)
 ----------------------------------------------------------------------
 -----
 title
 -----
 Structure from the checkpoint file:  "BDE49_nonexpt_1528_mol2.chk"
 Charge =  0 Multiplicity = 2

                         Standard orientation:
 ---------------------------------------------------------------------
 Center     Atomic      Atomic             Coordinates (Angstroms)
 Number     Number       Type             X           Y           Z
 ---------------------------------------------------------------------
      1          6           0       -0.389839   -0.000051   -0.404275
      2          6           0        0.409525   -1.203712    0.144217
      3          6           0        0.409494    1.203768    0.143943
      4          6           0        1.889853    0.778633   -0.006984
      5          1           0        0.162361    1.347955    1.201209
      6          1           0        0.178322    2.136875   -0.374144
      7          6           0        1.889807   -0.778657   -0.007302
      8          1           0        2.506238    1.191635    0.794677
      9          1           0        2.297818    1.158755   -0.947043
     10          1           0        2.506657   -1.192073    0.793788
     11          1           0        2.297143   -1.158389   -0.947797
     12          1           0        0.178187   -2.137020   -0.373435
     13          1           0        0.162667   -1.347446    1.201613
     14         15           0       -2.212001   -0.000008   -0.030362
     15          1           0       -0.309912   -0.000191   -1.499042
     16          1           0       -2.052503    0.000133    1.388014
 ---------------------------------------------------------------------

 SCF Done:  E(UHF) =  -536.153868673     A.U. after    2 cycles

 The electronic state is 2-A.
 Alpha  occ. eigenvalues --  -84.27067 -11.24181 -11.23459 -11.23433 -11.23007
 Alpha  occ. eigenvalues --  -11.22998  -6.74228  -4.27019  -4.26386  -4.25824
 Alpha  occ. eigenvalues --   -1.12877  -0.98071  -0.96871  -0.84255  -0.78452
 Alpha  occ. eigenvalues --   -0.76270  -0.66632  -0.62677  -0.58663  -0.57477
 Alpha  occ. eigenvalues --   -0.49708  -0.49325  -0.49042  -0.48556  -0.46607
 Alpha  occ. eigenvalues --   -0.45116  -0.37058  -0.31508
 Alpha virt. eigenvalues --    0.03665   0.03832   0.04098   0.04442   0.06370
 Alpha virt. eigenvalues --    0.06404   0.06568   0.06614   0.07260   0.09436
 Alpha virt. eigenvalues --    0.10559   0.12015   0.12331   0.13774   0.14450

  Beta  occ. eigenvalues --  -84.26392 -11.24341 -11.23359 -11.23333 -11.22998
  Beta  occ. eigenvalues --  -11.22990  -6.73371  -4.25873  -4.25415  -4.23724
  Beta  occ. eigenvalues --   -1.12652  -0.97369  -0.96640  -0.81190  -0.78210
  Beta  occ. eigenvalues --   -0.73943  -0.66578  -0.62263  -0.58551  -0.56985
  Beta  occ. eigenvalues --   -0.49321  -0.48839  -0.48419  -0.48416  -0.46569
  Beta  occ. eigenvalues --   -0.44693  -0.35130
  Beta virt. eigenvalues --    0.03364   0.03670   0.03846   0.04538   0.05065
  Beta virt. eigenvalues --    0.06395   0.06441   0.06587   0.07336   0.08151
  Beta virt. eigenvalues --    0.09511   0.10648   0.12396   0.12971   0.13931

 Mulliken charges and spin densities:
               1          2
     1  C   -0.346110  -0.088361
     2  C   -0.303505   0.002350
     3  C   -0.303756   0.002315
     4  C   -0.211639   0.007874
     5  H    0.127280  -0.011682
     6  H    0.081086  -0.008009
     7  C   -0.211905   0.007875
     8  H    0.123530   0.000066
     9  H    0.118140   0.001305
    10  H    0.123362   0.000067
    11  H    0.117990   0.001307
    12  H    0.081153  -0.008009
    13  H    0.127324  -0.011673
    14  P    0.275993   1.300699
    15  H    0.054820  -0.007261
    16  H    0.146237  -0.188862
 Sum of Mulliken charges =  -0.00000   1.00000

 Dipole moment (field-independent basis, Debye):
    X=              1.3179    Y=             -0.0000    Z=              0.0617  Tot=              1.3194
                          Isotropic Fermi Contact Couplings
        Atom                 a.u.       MegaHertz       Gauss      10(-4) cm-1
     1  C(13)             -0.03038     -34.15412     -12.18704     -11.39259
     2  C(13)              0.02239      25.16963       8.98115       8.39569
     3  C(13)              0.02239      25.17173       8.98190       8.39638
     4  C(13)              0.00036       0.40477       0.14443       0.13502
     5  H(1)              -0.00043      -1.94366      -0.69355      -0.64834
     6  H(1)              -0.00063      -2.80681      -1.00154      -0.93625
     7  C(13)              0.00036       0.40353       0.14399       0.13460
     8  H(1)               0.00029       1.31506       0.46925       0.43866

 Normal termination of Gaussian 16 at Tue Apr  8 23:37:42 2025.
