 Gaussian 16, Revision C.01,

 ----------------------------------------------------------------------
 #t hf aug-cc-pvdz symm=none int=(grid=ultrafine) guess=(read,tcheck) s
 table=(opt,rrhf)
 ----------------------------------------------------------------------
 -----
 title
 -----
 Symbolic Z-matrix:
 Charge =  0 Multiplicity = 1

 SCF Done:  E(RHF) =  -433.613711352     A.U. after   12 cycles
 Normal termination of Gaussian 16 at Wed Apr  9 00:45:15 2025.
 Gaussian 16:  ES64L-G16RevC.01  3-Jul-2019

 ----------------------------------------------------------------------
 #t hf aug-cc-pvdz iop(5/13=1,5/36=2,99/5=2) pseudo=read geom=check gue
 ss=(read,tcheck) scf=(maxcycle=1)
 ----------------------------------------------------------------------
 -----
 title
 -----
 Structure from the checkpoint file:  "BDE49_nonexpt_777_mol1.chk"
 Charge =  0 Multiplicity = 1

                         Standard orientation:
 ---------------------------------------------------------------------
 Center     Atomic      Atomic             Coordinates (Angstroms)
 Number     Number       Type             X           Y           Z
 ---------------------------------------------------------------------
      1          5           0       -0.721939    2.004001   -0.248018
      2         14           0       -0.491232    0.075101    0.294318
      3          6           0        1.097354   -0.738437   -0.347974
      4          6           0        2.399589   -0.044268    0.085361
      5          1           0        1.044515   -0.783226   -1.442895
      6          1           0        1.100527   -1.781824   -0.010026
      7          1           0        2.437965    0.991941   -0.262237
      8          1           0        3.279946   -0.556340   -0.314702
      9          6           0       -1.991602   -0.993279   -0.132388
     10          1           0       -2.907042   -0.563362    0.282978
     11          1           0       -1.881559   -2.004957    0.268483
     12          1           0       -2.124812   -1.077137   -1.215147
     13          1           0        2.497584   -0.026491    1.174728
     14          1           0        0.195336    2.705882   -0.549939
     15          1           0       -1.799640    2.518787   -0.228422
     16          1           0       -0.387924    0.161215    1.786831
 ---------------------------------------------------------------------

 SCF Done:  E(RHF) =  -433.811300440     A.U. after    2 cycles

 The electronic state is 1-A.
 Alpha  occ. eigenvalues --  -69.50080 -11.22645 -11.21543 -11.21266  -7.59851
 Alpha  occ. eigenvalues --   -6.17312  -3.92663  -3.92623  -3.92612  -1.02057
 Alpha  occ. eigenvalues --   -0.94576  -0.84197  -0.73382  -0.64349  -0.60600
 Alpha  occ. eigenvalues --   -0.57212  -0.56010  -0.55861  -0.51722  -0.49699
 Alpha  occ. eigenvalues --   -0.49583  -0.45073  -0.42293  -0.40096
 Alpha virt. eigenvalues --    0.02428   0.03616   0.03678   0.03905   0.05233
 Alpha virt. eigenvalues --    0.05750   0.06144   0.06531   0.06863   0.08591
 Alpha virt. eigenvalues --    0.08901   0.09200   0.09647   0.10759   0.11087

 Mulliken charges:
               1
     1  B   -1.297195
     2  Si   1.471886
     3  C   -0.430351
     4  C   -0.495287
     5  H    0.125422
     6  H    0.014234
     7  H    0.114126
     8  H    0.101482
     9  C   -0.595808
    10  H   -0.024052
    11  H    0.014457
    12  H    0.106885
    13  H    0.140617
    14  H    0.501110
    15  H    0.475070
    16  H   -0.222594
 Sum of Mulliken charges =  -0.00000

 Dipole moment (field-independent basis, Debye):
    X=              0.0212    Y=             -0.4036    Z=             -0.5764  Tot=              0.7039

 Test job not archived.
 1\1\GINC-SE049\SP\RHF\Aug-CC-pVDZ\C3H11B1Si1\OHZDE\09-Apr-2025\0\\#t h
 f aug-cc-pvdz iop(5/13=1,5/36=2,99/5=2) pseudo=read geom=check guess=(
 read,tcheck) scf=(maxcycle=1)\\title\\0,1\B,0,-0.721939,2.004001,-0.24
 8018\Si,0,-0.491232,0.075101,0.294318\C,0,1.097354,-0.738437,-0.347974
 \C,0,2.399589,-0.044268,0.085361\H,0,1.044515,-0.783226,-1.442895\H,0,
 1.100527,-1.781824,-0.010026\H,0,2.437965,0.991941,-0.262237\H,0,3.279
 946,-0.55634,-0.314702\C,0,-1.991602,-0.993279,-0.132388\H,0,-2.907042
 ,-0.563362,0.282978\H,0,-1.881559,-2.004957,0.268483\H,0,-2.124812,-1.

 Normal termination of Gaussian 16 at Wed Apr  9 00:45:20 2025.
