 Gaussian 16, Revision C.01,

 ----------------------------------------------------------------------
 #t hf aug-cc-pvdz symm=none int=(grid=ultrafine) guess=(read,tcheck) s
 table=(opt,rrhf)
 ----------------------------------------------------------------------
 -----
 title
 -----
 Symbolic Z-matrix:
 Charge =  0 Multiplicity = 1

 SCF Done:  E(RHF) =  -304.730673653     A.U. after   12 cycles
 Normal termination of Gaussian 16 at Tue Apr  8 23:01:47 2025.
 Gaussian 16:  ES64L-G16RevC.01  3-Jul-2019

 ----------------------------------------------------------------------
 #t hf aug-cc-pvdz iop(5/13=1,5/36=2,99/5=2) pseudo=read geom=check gue
 ss=(read,tcheck) scf=(maxcycle=1)
 ----------------------------------------------------------------------
 -----
 title
 -----
 Structure from the checkpoint file:  "BDE49_expt_243_mol1.chk"
 Charge =  0 Multiplicity = 1

                         Standard orientation:
 ---------------------------------------------------------------------
 Center     Atomic      Atomic             Coordinates (Angstroms)
 Number     Number       Type             X           Y           Z
 ---------------------------------------------------------------------
      1          6           0       -1.896073    0.561250    0.000014
      2          6           0       -0.695124   -0.347350    0.000026
      3          1           0       -2.805868   -0.036769    0.000125
      4          1           0       -1.870800    1.217890   -0.873910
      5          1           0       -1.870694    1.218072    0.873796
      6          6           0        0.695124    0.347350   -0.000045
      7          6           0        1.896073   -0.561250    0.000002
      8          1           0        1.870772   -1.217897    0.873919
      9          1           0        2.805868    0.036769   -0.000076
     10          1           0        1.870722   -1.218065   -0.873787
     11          8           0       -0.754757   -1.555172    0.000075
     12          8           0        0.754757    1.555172   -0.000080
 ---------------------------------------------------------------------

 SCF Done:  E(RHF) =  -305.037815667     A.U. after    2 cycles

 The electronic state is 1-A.
 Alpha  occ. eigenvalues --  -20.56887 -20.56884 -11.36144 -11.36123 -11.25334
 Alpha  occ. eigenvalues --  -11.25330  -1.50526  -1.49342  -1.04460  -1.02653
 Alpha  occ. eigenvalues --   -0.87910  -0.73652  -0.70459  -0.67131  -0.63785
 Alpha  occ. eigenvalues --   -0.61797  -0.59806  -0.59230  -0.55879  -0.52473
 Alpha  occ. eigenvalues --   -0.50897  -0.50096  -0.40561
 Alpha virt. eigenvalues --    0.03635   0.03876   0.04875   0.05501   0.06259
 Alpha virt. eigenvalues --    0.06423   0.06425   0.08786   0.11385   0.12163
 Alpha virt. eigenvalues --    0.12653   0.13406   0.15144   0.15460   0.15534

 Mulliken charges:
               1
     1  C   -0.493213
     2  C    1.167397
     3  H    0.127517
     4  H    0.272523
     5  H    0.272511
     6  C    1.167397
     7  C   -0.493213
     8  H    0.272517
     9  H    0.127517
    10  H    0.272516
    11  O   -1.346735
    12  O   -1.346735
 Sum of Mulliken charges =  -0.00000

 Dipole moment (field-independent basis, Debye):
    X=              0.0000    Y=              0.0000    Z=             -0.0000  Tot=              0.0000

 Test job not archived.
 1\1\GINC-SE195\SP\RHF\Aug-CC-pVDZ\C4H6O2\OHZDE\08-Apr-2025\0\\#t hf au
 g-cc-pvdz iop(5/13=1,5/36=2,99/5=2) pseudo=read geom=check guess=(read
 ,tcheck) scf=(maxcycle=1)\\title\\0,1\C,0,1.896073,0.56125,-0.000014\C
 ,0,0.695124,-0.34735,-0.000026\H,0,2.805868,-0.036768,-0.000125\H,0,1.
 8708,1.21789,0.87391\H,0,1.870694,1.218072,-0.873796\C,0,-0.695124,0.3
 4735,0.000045\C,0,-1.896073,-0.56125,-0.000002\H,0,-1.870772,-1.217897
 ,-0.873919\H,0,-2.805868,0.036768,0.000076\H,0,-1.870722,-1.218065,0.8
 73787\O,0,0.754757,-1.555172,-0.000075\O,0,-0.754757,1.555172,0.00008\

 Normal termination of Gaussian 16 at Tue Apr  8 23:01:51 2025.
