 Gaussian 16, Revision C.01,

 ----------------------------------------------------------------------
 #t hf aug-cc-pvdz symm=none int=(grid=ultrafine) guess=(read,tcheck) s
 table=(opt,rrhf)
 ----------------------------------------------------------------------
 -----
 title
 -----
 Symbolic Z-matrix:
 Charge =  0 Multiplicity = 1

 SCF Done:  E(RHF) =  -733.361789823     A.U. after   12 cycles
 Normal termination of Gaussian 16 at Tue Apr  8 22:49:05 2025.
 Gaussian 16:  ES64L-G16RevC.01  3-Jul-2019

 ----------------------------------------------------------------------
 #t hf aug-cc-pvdz iop(5/13=1,5/36=2,99/5=2) pseudo=read geom=check gue
 ss=(read,tcheck) scf=(maxcycle=1)
 ----------------------------------------------------------------------
 -----
 title
 -----
 Structure from the checkpoint file:  "BDE49_expt_1667_mol1.chk"
 Charge =  0 Multiplicity = 1

                         Standard orientation:
 ---------------------------------------------------------------------
 Center     Atomic      Atomic             Coordinates (Angstroms)
 Number     Number       Type             X           Y           Z
 ---------------------------------------------------------------------
      1          6           0       -1.939256    0.408905    0.374776
      2          6           0       -0.566644    0.782060   -0.176812
      3          6           0        0.602838   -0.052608    0.353442
      4          1           0       -0.402192    1.836644    0.082935
      5          1           0       -0.600926    0.733592   -1.270890
      6          6           0       -3.045530    1.362572   -0.049020
      7          1           0       -2.825022    2.366641    0.327937
      8          1           0       -4.011394    1.050010    0.349985
      9          1           0       -3.121110    1.412152   -1.137665
     10         17           0       -2.396642   -1.295675   -0.166010
     11          1           0       -1.901281    0.326194    1.462158
     12          6           0        1.958669    0.400291   -0.200151
     13          1           0        0.439465   -1.105342    0.103281
     14          1           0        0.620361    0.005926    1.449418
     15          6           0        3.138430   -0.426367    0.324002
     16          1           0        2.121468    1.457632    0.047182
     17          1           0        1.938751    0.344364   -1.296184
     18          6           0        4.490057    0.027385   -0.234570
     19          1           0        2.975995   -1.481974    0.076035
     20          1           0        3.158737   -0.371457    1.419169
     21          1           0        4.512967   -0.049924   -1.326070
     22          1           0        5.308952   -0.581406    0.158056
     23          1           0        4.696761    1.069991    0.026822
 ---------------------------------------------------------------------

 SCF Done:  E(RHF) =  -733.745920097     A.U. after    2 cycles

 The electronic state is 1-A.
 Alpha  occ. eigenvalues -- -105.54198 -11.30795 -11.24242 -11.24139 -11.22933
 Alpha  occ. eigenvalues --  -11.22799 -11.22760 -11.22305 -10.59003  -7.75927
 Alpha  occ. eigenvalues --   -7.75591  -7.75581  -1.13189  -1.07827  -1.01603
 Alpha  occ. eigenvalues --   -0.98270  -0.93132  -0.84664  -0.79551  -0.79233
 Alpha  occ. eigenvalues --   -0.66809  -0.64029  -0.61917  -0.61014  -0.59211
 Alpha  occ. eigenvalues --   -0.57827  -0.54882  -0.54454  -0.52969  -0.50821
 Alpha  occ. eigenvalues --   -0.49897  -0.48274  -0.47527  -0.47051  -0.46495
 Alpha  occ. eigenvalues --   -0.43305  -0.43267
 Alpha virt. eigenvalues --    0.03170   0.03330   0.03555   0.04292   0.05072
 Alpha virt. eigenvalues --    0.05256   0.05621   0.06722   0.07648   0.07743
 Alpha virt. eigenvalues --    0.08309   0.09397   0.10574   0.10852   0.11262

 Mulliken charges:
               1
     1  C   -0.451668
     2  C   -0.295399
     3  C   -0.146332
     4  H    0.180373
     5  H    0.134241
     6  C   -0.230444
     7  H    0.198185
     8  H    0.133130
     9  H    0.220885
    10  Cl  -0.146224
    11  H    0.159699
    12  C   -0.303613
    13  H    0.147717
    14  H    0.107659
    15  C   -0.192092
    16  H    0.106071
    17  H    0.114163
    18  C   -0.409820
    19  H    0.119663
    20  H    0.117477
    21  H    0.160686
    22  H    0.114468
    23  H    0.161175
 Sum of Mulliken charges =  -0.00000

 Dipole moment (field-independent basis, Debye):
    X=              0.8156    Y=              2.2676    Z=              0.6306  Tot=              2.4910

 Test job not archived.
 1\1\GINC-SE093\SP\RHF\Aug-CC-pVDZ\C7H15Cl1\OHZDE\08-Apr-2025\0\\#t hf
 aug-cc-pvdz iop(5/13=1,5/36=2,99/5=2) pseudo=read geom=check guess=(re
 ad,tcheck) scf=(maxcycle=1)\\title\\0,1\C,0,-1.939256,0.408905,0.37477
 6\C,0,-0.566644,0.78206,-0.176812\C,0,0.602838,-0.052608,0.353442\H,0,
 -0.402192,1.836644,0.082935\H,0,-0.600926,0.733592,-1.27089\C,0,-3.045
 53,1.362572,-0.04902\H,0,-2.825022,2.366641,0.327937\H,0,-4.011394,1.0
 5001,0.349985\H,0,-3.12111,1.412152,-1.137665\Cl,0,-2.396642,-1.295675
 ,-0.16601\H,0,-1.901281,0.326194,1.462158\C,0,1.958669,0.400291,-0.200

 Normal termination of Gaussian 16 at Tue Apr  8 22:49:17 2025.
