 Gaussian 16, Revision C.01,

 ----------------------------------------------------------------------
 #t hf aug-cc-pvdz symm=none int=(grid=ultrafine) guess=(read,tcheck) s
 table=(opt,rrhf)
 ----------------------------------------------------------------------
 -----
 title
 -----
 Symbolic Z-matrix:
 Charge =  0 Multiplicity = 1

 SCF Done:  E(RHF) =  -1499.30469125     A.U. after   10 cycles
 Normal termination of Gaussian 16 at Wed Apr  9 00:08:56 2025.
 Gaussian 16:  ES64L-G16RevC.01  3-Jul-2019

 ----------------------------------------------------------------------
 #t hf aug-cc-pvdz iop(5/13=1,5/36=2,99/5=2) pseudo=read geom=check gue
 ss=(read,tcheck) scf=(maxcycle=1)
 ----------------------------------------------------------------------
 -----
 title
 -----
 Structure from the checkpoint file:  "BDE49_nonexpt_2314_mol1.chk"
 Charge =  0 Multiplicity = 1

                         Standard orientation:
 ---------------------------------------------------------------------
 Center     Atomic      Atomic             Coordinates (Angstroms)
 Number     Number       Type             X           Y           Z
 ---------------------------------------------------------------------
      1         14           0       -0.877006    0.785742    0.000000
      2         14           0        0.877006   -0.785742    0.000000
      3          1           0        0.850704   -1.631093    1.210914
      4         17           0        2.681591    0.272502    0.000000
      5          1           0        0.850704   -1.631093   -1.210914
      6         17           0       -2.681591   -0.272502   -0.000001
      7          1           0       -0.850704    1.631093   -1.210914
      8          1           0       -0.850705    1.631093    1.210914
 ---------------------------------------------------------------------

 SCF Done:  E(RHF) =  -1499.52817618     A.U. after    2 cycles

 The electronic state is 1-A.
 Alpha  occ. eigenvalues -- -105.56793-105.56793 -69.58992 -69.58992 -10.61776
 Alpha  occ. eigenvalues --  -10.61775  -7.78663  -7.78661  -7.78351  -7.78349
 Alpha  occ. eigenvalues --   -7.78347  -7.78346  -6.25764  -6.25753  -4.01176
 Alpha  occ. eigenvalues --   -4.01176  -4.01045  -4.01010  -4.01000  -4.00968
 Alpha  occ. eigenvalues --   -1.06336  -1.05958  -0.78635  -0.71233  -0.56036
 Alpha  occ. eigenvalues --   -0.55508  -0.53687  -0.53468  -0.52416  -0.48813
 Alpha  occ. eigenvalues --   -0.46590  -0.46568  -0.41724
 Alpha virt. eigenvalues --    0.03829   0.04064   0.04125   0.05879   0.06677
 Alpha virt. eigenvalues --    0.07512   0.07530   0.08770   0.09484   0.09976
 Alpha virt. eigenvalues --    0.10660   0.11267   0.12151   0.13619   0.14334

 Mulliken charges:
               1
     1  Si   0.780060
     2  Si   0.780060
     3  H   -0.112225
     4  Cl  -0.555610
     5  H   -0.112225
     6  Cl  -0.555610
     7  H   -0.112225
     8  H   -0.112225
 Sum of Mulliken charges =  -0.00000

 Dipole moment (field-independent basis, Debye):
    X=              0.0000    Y=             -0.0000    Z=              0.0000  Tot=              0.0000

 Test job not archived.
 1\1\GINC-SE016\SP\RHF\Aug-CC-pVDZ\Cl2H4Si2\OHZDE\09-Apr-2025\0\\#t hf
 aug-cc-pvdz iop(5/13=1,5/36=2,99/5=2) pseudo=read geom=check guess=(re
 ad,tcheck) scf=(maxcycle=1)\\title\\0,1\Si,0,0.877006,-0.785742,0.\Si,
 0,-0.877006,0.785742,0.\H,0,-0.850704,1.631093,1.210914\Cl,0,-2.681591
 ,-0.272502,0.\H,0,-0.850704,1.631093,-1.210914\Cl,0,2.681591,0.272502,
 -0.000001\H,0,0.850704,-1.631093,-1.210914\H,0,0.850705,-1.631093,1.21
 0914\\Version=ES64L-G16RevC.01\State=1-A\HF=-1499.5281762\RMSD=3.404e-
 03\Dipole=-0.0000006,0.,0.0000005\Quadrupole=-4.9259825,2.9954963,1.93

 Normal termination of Gaussian 16 at Wed Apr  9 00:08:59 2025.
