 Gaussian 16, Revision C.01,

 ----------------------------------------------------------------------
 #t hf aug-cc-pvdz symm=none int=(grid=ultrafine) guess=(read,tcheck) s
 table=(opt,rrhf)
 ----------------------------------------------------------------------
 -----
 title
 -----
 Symbolic Z-matrix:
 Charge =  0 Multiplicity = 1

 SCF Done:  E(RHF) =  -407.382215950     A.U. after   12 cycles
 Normal termination of Gaussian 16 at Wed Apr  9 00:41:46 2025.
 Gaussian 16:  ES64L-G16RevC.01  3-Jul-2019

 ----------------------------------------------------------------------
 #t hf aug-cc-pvdz iop(5/13=1,5/36=2,99/5=2) pseudo=read geom=check gue
 ss=(read,tcheck) scf=(maxcycle=1)
 ----------------------------------------------------------------------
 -----
 title
 -----
 Structure from the checkpoint file:  "BDE49_nonexpt_672_mol1.chk"
 Charge =  0 Multiplicity = 1

                         Standard orientation:
 ---------------------------------------------------------------------
 Center     Atomic      Atomic             Coordinates (Angstroms)
 Number     Number       Type             X           Y           Z
 ---------------------------------------------------------------------
      1          8           0        0.262216   -0.196054   -0.497865
      2          5           0        1.534101   -0.224796   -0.006555
      3          8           0        2.492925   -0.960955   -0.656583
      4          6           0       -0.784313    0.571663    0.134495
      5          6           0       -0.741317    2.006421   -0.381117
      6          1           0        0.215160    2.471563   -0.134122
      7          1           0       -1.537460    2.603582    0.072421
      8          1           0       -0.869319    2.024914   -1.467046
      9          6           0       -2.110411   -0.127490   -0.160478
     10          6           0       -2.197168   -1.546371    0.405408
     11          1           0       -2.252772   -0.148204   -1.247049
     12          1           0       -2.917005    0.488661    0.252257
     13          1           0       -1.409480   -2.177902   -0.010226
     14          1           0       -3.160125   -2.006465    0.168862
     15          1           0       -2.087343   -1.545061    1.494562
     16          1           0       -0.604501    0.570909    1.215260
     17          1           0        2.134869   -1.397391   -1.434888
     18          8           0        1.872414    0.466875    1.126466
     19          1           0        2.796277    0.335107    1.356753
 ---------------------------------------------------------------------

 SCF Done:  E(RHF) =  -407.805516099     A.U. after    2 cycles

 The electronic state is 1-A.
 Alpha  occ. eigenvalues --  -20.55271 -20.55098 -20.53828 -11.28887 -11.22806
 Alpha  occ. eigenvalues --  -11.22341 -11.22076  -7.65872  -1.49258  -1.44035
 Alpha  occ. eigenvalues --   -1.43693  -1.06887  -0.98744  -0.87347  -0.80368
 Alpha  occ. eigenvalues --   -0.77044  -0.73706  -0.69548  -0.63176  -0.61457
 Alpha  occ. eigenvalues --   -0.59708  -0.58029  -0.56498  -0.55764  -0.55125
 Alpha  occ. eigenvalues --   -0.53569  -0.50695  -0.50226  -0.49216  -0.49086
 Alpha  occ. eigenvalues --   -0.46078  -0.44218
 Alpha virt. eigenvalues --    0.03656   0.03837   0.03930   0.04140   0.05805
 Alpha virt. eigenvalues --    0.06224   0.06507   0.06660   0.06962   0.08986
 Alpha virt. eigenvalues --    0.09261   0.09400   0.10114   0.10627   0.11745

 Mulliken charges:
               1
     1  O   -1.511253
     2  B    2.074789
     3  O   -1.457074
     4  C    0.562459
     5  C   -0.354108
     6  H    0.094409
     7  H    0.182998
     8  H    0.248271
     9  C   -0.271985
    10  C   -0.306409
    11  H    0.158847
    12  H    0.176135
    13  H    0.206793
    14  H    0.115613
    15  H    0.159161
    16  H    0.163069
    17  H    0.525072
    18  O   -1.204926
    19  H    0.438139
 Sum of Mulliken charges =  -0.00000

 Dipole moment (field-independent basis, Debye):
    X=             -0.4711    Y=              0.0583    Z=             -0.1404  Tot=              0.4951

 Test job not archived.
 1\1\GINC-SE459\SP\RHF\Aug-CC-pVDZ\C4H11B1O3\OHZDE\09-Apr-2025\0\\#t hf
  aug-cc-pvdz iop(5/13=1,5/36=2,99/5=2) pseudo=read geom=check guess=(r
 ead,tcheck) scf=(maxcycle=1)\\title\\0,1\O,0,0.262216,-0.196054,-0.497
 865\B,0,1.534101,-0.224796,-0.006555\O,0,2.492925,-0.960955,-0.656583\
 C,0,-0.784313,0.571663,0.134495\C,0,-0.741317,2.006421,-0.381117\H,0,0
 .21516,2.471563,-0.134122\H,0,-1.53746,2.603582,0.072421\H,0,-0.869319
 ,2.024914,-1.467046\C,0,-2.110411,-0.12749,-0.160478\C,0,-2.197168,-1.
 546371,0.405408\H,0,-2.252772,-0.148204,-1.247049\H,0,-2.917005,0.4886

 Normal termination of Gaussian 16 at Wed Apr  9 00:41:54 2025.
