 Gaussian 16, Revision C.01,

 ----------------------------------------------------------------------
 #t hf aug-cc-pvdz symm=none int=(grid=ultrafine) guess=(read,tcheck) s
 table=(opt,rrhf)
 ----------------------------------------------------------------------
 -----
 title
 -----
 Symbolic Z-matrix:
 Charge =  0 Multiplicity = 1

 SCF Done:  E(RHF) =  -1032.50128592     A.U. after   12 cycles

 1\1\GINC-SE174\Stability\RHF\Aug-CC-pVDZ\C2Cl1F5\OHZDE\08-Apr-2025\0\\
 #t hf aug-cc-pvdz symm=none int=(grid=ultrafine) guess=(read,tcheck) s
 table=(opt,rrhf)\\title\\0,1\C,0,0.445969,0.462187,0.\C,0,-0.946133,-0
 .229235,0.\Cl,0,1.768073,-0.725526,-0.000003\F,0,0.537271,1.24027,1.08
 8424\F,0,0.537269,1.240274,-1.08842\F,0,-1.091537,-0.988035,-1.088055\
 F,0,-1.897718,0.710668,0.000003\F,0,-1.091535,-0.988039,1.088053\\Vers
 ion=ES64L-G16RevC.01\HF=-1032.5012859\RMSD=6.854e-09\Dipole=0.1934461,
 -0.1484814,-0.000003\Quadrupole=0.8121438,-0.1250134,-0.6871304,-0.739

 Normal termination of Gaussian 16 at Tue Apr  8 22:47:35 2025.
 Gaussian 16:  ES64L-G16RevC.01  3-Jul-2019

 ----------------------------------------------------------------------
 #t hf aug-cc-pvdz iop(5/13=1,5/36=2,99/5=2) pseudo=read geom=check gue
 ss=(read,tcheck) scf=(maxcycle=1)
 ----------------------------------------------------------------------
 -----
 title
 -----
 Structure from the checkpoint file:  "BDE49_expt_1630_mol1.chk"
 Charge =  0 Multiplicity = 1

                         Standard orientation:
 ---------------------------------------------------------------------
 Center     Atomic      Atomic             Coordinates (Angstroms)
 Number     Number       Type             X           Y           Z
 ---------------------------------------------------------------------
      1          6           0        0.445969    0.462187    0.000000
      2          6           0       -0.946133   -0.229235    0.000000
      3         17           0        1.768073   -0.725526   -0.000003
      4          9           0        0.537271    1.240270    1.088424
      5          9           0        0.537269    1.240274   -1.088420
      6          9           0       -1.091537   -0.988035   -1.088055
      7          9           0       -1.897718    0.710668    0.000003
      8          9           0       -1.091535   -0.988039    1.088053
 ---------------------------------------------------------------------

 SCF Done:  E(RHF) =  -1033.09595028     A.U. after    2 cycles

 The electronic state is 1-A.
 Alpha  occ. eigenvalues -- -105.62050 -26.54240 -26.54237 -26.54178 -26.54175
 Alpha  occ. eigenvalues --  -26.54049 -11.56658 -11.54020 -10.66934  -7.83881
 Alpha  occ. eigenvalues --   -7.83439  -7.83428  -1.75708  -1.71662  -1.65676
 Alpha  occ. eigenvalues --   -1.65112  -1.64426  -1.16313  -1.05109  -0.93679
 Alpha  occ. eigenvalues --   -0.87590  -0.85680  -0.84953  -0.80920  -0.78735
 Alpha  occ. eigenvalues --   -0.73179  -0.71808  -0.71412  -0.70300  -0.67437
 Alpha  occ. eigenvalues --   -0.67112  -0.65886  -0.65263  -0.64012  -0.56796
 Alpha  occ. eigenvalues --   -0.51791  -0.51740
 Alpha virt. eigenvalues --    0.06902   0.07834   0.08579   0.09478   0.10529
 Alpha virt. eigenvalues --    0.12067   0.12401   0.13033   0.14586   0.16549
 Alpha virt. eigenvalues --    0.19029   0.20310   0.22582   0.25716   0.26342

 Mulliken charges:
               1
     1  C    1.160391
     2  C    2.308655
     3  Cl  -0.080918
     4  F   -0.683737
     5  F   -0.683736
     6  F   -0.668986
     7  F   -0.682683
     8  F   -0.668986
 Sum of Mulliken charges =  -0.00000

 Dipole moment (field-independent basis, Debye):
    X=              0.3471    Y=             -0.2365    Z=             -0.0000  Tot=              0.4200

 Test job not archived.
 1\1\GINC-SE174\SP\RHF\Aug-CC-pVDZ\C2Cl1F5\OHZDE\08-Apr-2025\0\\#t hf a
 ug-cc-pvdz iop(5/13=1,5/36=2,99/5=2) pseudo=read geom=check guess=(rea
 d,tcheck) scf=(maxcycle=1)\\title\\0,1\C,0,0.445969,0.462187,0.\C,0,-0
 .946133,-0.229235,0.\Cl,0,1.768073,-0.725526,-0.000003\F,0,0.537271,1.
 24027,1.088424\F,0,0.537269,1.240274,-1.08842\F,0,-1.091537,-0.988035,
 -1.088055\F,0,-1.897718,0.710668,0.000003\F,0,-1.091535,-0.988039,1.08
 8053\\Version=ES64L-G16RevC.01\State=1-A\HF=-1033.0959503\RMSD=4.561e-
 03\Dipole=0.1365538,-0.0930309,-0.0000027\Quadrupole=0.6866605,-0.0690

 Normal termination of Gaussian 16 at Tue Apr  8 22:47:39 2025.
