 Gaussian 16, Revision C.01,

 ----------------------------------------------------------------------
 #t hf aug-cc-pvdz symm=none int=(grid=ultrafine) guess=(read,tcheck) s
 table=(opt,rrhf)
 ----------------------------------------------------------------------
 -----
 title
 -----
 Symbolic Z-matrix:
 Charge =  0 Multiplicity = 1

 SCF Done:  E(RHF) =  -1201.07056647     A.U. after   16 cycles
 Normal termination of Gaussian 16 at Wed Apr  9 00:21:00 2025.
 Gaussian 16:  ES64L-G16RevC.01  3-Jul-2019

 ----------------------------------------------------------------------
 #t hf aug-cc-pvdz iop(5/13=1,5/36=2,99/5=2) pseudo=read geom=check gue
 ss=(read,tcheck) scf=(maxcycle=1)
 ----------------------------------------------------------------------
 -----
 title
 -----
 Structure from the checkpoint file:  "BDE49_nonexpt_2602_mol1.chk"
 Charge =  0 Multiplicity = 1

                         Standard orientation:
 ---------------------------------------------------------------------
 Center     Atomic      Atomic             Coordinates (Angstroms)
 Number     Number       Type             X           Y           Z
 ---------------------------------------------------------------------
      1         17           0        3.310378   -0.269204    0.999520
      2         16           0        2.378932    0.023832   -0.886761
      3          6           0        0.669960    0.113223   -0.474530
      4          6           0        0.070185    1.349627   -0.173678
      5          6           0       -1.283899    1.425727    0.086940
      6          6           0       -2.074638    0.265030    0.056311
      7          6           0       -0.123420   -1.039193   -0.499204
      8          1           0        0.336685   -1.993463   -0.724165
      9          6           0       -1.487541   -0.972312   -0.239720
     10          1           0       -2.078290   -1.877444   -0.269013
     11          1           0        0.681718    2.243011   -0.148705
     12          8           0       -3.388459    0.446563    0.324208
     13          6           0       -4.257122   -0.683217    0.319733
     14          1           0       -4.284830   -1.159867   -0.665381
     15          1           0       -5.244485   -0.294996    0.561191
     16          1           0       -3.959686   -1.416528    1.076059
     17          1           0       -1.763928    2.368633    0.317569
 ---------------------------------------------------------------------

 SCF Done:  E(RHF) =  -1201.55695901     A.U. after    2 cycles

 The electronic state is 1-A.
 Alpha  occ. eigenvalues -- -105.56701 -94.00773 -20.59337 -11.33550 -11.31161
 Alpha  occ. eigenvalues --  -11.27781 -11.27555 -11.27232 -11.25706 -11.25240
 Alpha  occ. eigenvalues --  -10.61361  -8.28364  -7.78291  -7.77867  -7.77838
 Alpha  occ. eigenvalues --   -6.26170  -6.25940  -6.25665  -1.51926  -1.18277
 Alpha  occ. eigenvalues --   -1.10719  -1.04712  -1.03581  -0.97593  -0.91668
 Alpha  occ. eigenvalues --   -0.86521  -0.81856  -0.74595  -0.70267  -0.67441
 Alpha  occ. eigenvalues --   -0.66392  -0.64386  -0.62314  -0.60923  -0.56523
 Alpha  occ. eigenvalues --   -0.55213  -0.54520  -0.52683  -0.50813  -0.49549
 Alpha  occ. eigenvalues --   -0.47777  -0.44454  -0.37367  -0.36838  -0.33936
 Alpha virt. eigenvalues --    0.02789   0.03400   0.03778   0.04191   0.04746
 Alpha virt. eigenvalues --    0.05489   0.05916   0.08144   0.08519   0.08889
 Alpha virt. eigenvalues --    0.09097   0.09547   0.12153   0.12325   0.13171

 Mulliken charges:
               1
     1  Cl  -0.286828
     2  S    0.140478
     3  C    0.989544
     4  C   -0.119448
     5  C    0.351249
     6  C    1.498518
     7  C   -0.238937
     8  H   -0.170258
     9  C    0.156512
    10  H   -0.423341
    11  H   -0.182234
    12  O   -1.850268
    13  C    0.087079
    14  H    0.181784
    15  H   -0.030318
    16  H    0.182435
    17  H   -0.285967
 Sum of Mulliken charges =  -0.00000

 Dipole moment (field-independent basis, Debye):
    X=             -4.5154    Y=             -0.9333    Z=             -0.5864  Tot=              4.6480

 Test job not archived.
 1\1\GINC-SE072\SP\RHF\Aug-CC-pVDZ\C7H7Cl1O1S1\OHZDE\09-Apr-2025\0\\#t
 hf aug-cc-pvdz iop(5/13=1,5/36=2,99/5=2) pseudo=read geom=check guess=
 (read,tcheck) scf=(maxcycle=1)\\title\\0,1\Cl,0,3.310378,-0.269204,0.9
 9952\S,0,2.378932,0.023832,-0.886761\C,0,0.66996,0.113223,-0.47453\C,0
 ,0.070185,1.349627,-0.173678\C,0,-1.283899,1.425727,0.08694\C,0,-2.074
 638,0.26503,0.056311\C,0,-0.12342,-1.039193,-0.499204\H,0,0.336685,-1.
 993463,-0.724165\C,0,-1.487541,-0.972312,-0.23972\H,0,-2.07829,-1.8774
 44,-0.269013\H,0,0.681718,2.243011,-0.148705\O,0,-3.388459,0.446563,0.

 Normal termination of Gaussian 16 at Wed Apr  9 00:21:10 2025.
