 Gaussian 16, Revision C.01,

 ----------------------------------------------------------------------
 #t hf aug-cc-pvdz symm=none int=(grid=ultrafine) guess=(read,tcheck) s
 table=opt
 ----------------------------------------------------------------------
 -----
 title
 -----
 Symbolic Z-matrix:
 Charge =  0 Multiplicity = 2

 SCF Done:  E(UHF) =  -478.297768698     A.U. after   17 cycles
 Normal termination of Gaussian 16 at Tue Apr  8 23:51:19 2025.
 Gaussian 16:  ES64L-G16RevC.01  3-Jul-2019

 ----------------------------------------------------------------------
 #t hf aug-cc-pvdz iop(5/13=1,5/36=2,99/5=2) pseudo=read geom=check gue
 ss=(read,tcheck) scf=(maxcycle=1)
 ----------------------------------------------------------------------
 -----
 title
 -----
 Structure from the checkpoint file:  "BDE49_nonexpt_1888_mol2.chk"
 Charge =  0 Multiplicity = 2

                         Standard orientation:
 ---------------------------------------------------------------------
 Center     Atomic      Atomic             Coordinates (Angstroms)
 Number     Number       Type             X           Y           Z
 ---------------------------------------------------------------------
      1         14           0        1.383575   -0.116895    0.000000
      2          8           0       -0.018194    0.844578   -0.000004
      3          1           0        1.428141   -0.941925    1.231219
      4          1           0        1.428117   -0.941954   -1.231200
      5          6           0       -1.275670    0.350499   -0.000002
      6          8           0       -1.552730   -0.813919    0.000003
      7          1           0       -2.004893    1.172143   -0.000005
 ---------------------------------------------------------------------

 SCF Done:  E(UHF) =  -478.507484388     A.U. after    2 cycles

 The electronic state is 2-A.
 Alpha  occ. eigenvalues --  -69.59081 -20.59164 -20.55718 -11.40969  -6.25690
 Alpha  occ. eigenvalues --   -4.01590  -4.00835  -4.00646  -1.54550  -1.46124
 Alpha  occ. eigenvalues --   -0.90526  -0.75129  -0.72962  -0.67169  -0.64269
 Alpha  occ. eigenvalues --   -0.54645  -0.52527  -0.47456  -0.46614  -0.36458
 Alpha virt. eigenvalues --    0.03410   0.04217   0.05534   0.05771   0.07200
 Alpha virt. eigenvalues --    0.09111   0.09791   0.10764   0.13774   0.14063
 Alpha virt. eigenvalues --    0.15394   0.15808   0.17525   0.18567   0.18654

  Beta  occ. eigenvalues --  -69.58493 -20.59050 -20.55752 -11.40883  -6.24770
  Beta  occ. eigenvalues --   -4.00449  -4.00267  -3.99424  -1.54391  -1.45991
  Beta  occ. eigenvalues --   -0.89495  -0.73677  -0.71822  -0.65370  -0.64081
  Beta  occ. eigenvalues --   -0.53862  -0.51723  -0.46911  -0.46574
  Beta virt. eigenvalues --    0.01814   0.03766   0.04524   0.05652   0.06282
  Beta virt. eigenvalues --    0.08787   0.09325   0.09960   0.10881   0.14540
  Beta virt. eigenvalues --    0.14845   0.15598   0.15909   0.18609   0.20290

 Mulliken charges and spin densities:
               1          2
     1  Si   1.134155   0.980374
     2  O   -1.326339  -0.082608
     3  H   -0.173486   0.047353
     4  H   -0.173487   0.047353
     5  C    1.363260   0.017849
     6  O   -0.925576  -0.010188
     7  H    0.101473  -0.000134
 Sum of Mulliken charges =  -0.00000   1.00000

 Dipole moment (field-independent basis, Debye):
    X=              0.9540    Y=              1.4857    Z=             -0.0000  Tot=              1.7656
                          Isotropic Fermi Contact Couplings
        Atom                 a.u.       MegaHertz       Gauss      10(-4) cm-1
     1  Si(29)             0.72327    -642.79086    -229.36376    -214.41195
     2  O(17)              0.07254     -43.97225     -15.69039     -14.66756
     3  H(1)               0.01307      58.44018      20.85291      19.49355
     4  H(1)               0.01307      58.43934      20.85261      19.49327
     5  C(13)              0.01829      20.55648       7.33506       6.85690
     6  O(17)             -0.00191       1.15856       0.41340       0.38645
     7  H(1)               0.00001       0.03225       0.01151       0.01076
 --------------------------------------------------------

 Normal termination of Gaussian 16 at Tue Apr  8 23:51:22 2025.
