 Gaussian 16, Revision C.01,

 ----------------------------------------------------------------------
 #t hf aug-cc-pvdz symm=none int=(grid=ultrafine) guess=(read,tcheck) s
 table=(opt,rrhf)
 ----------------------------------------------------------------------
 -----
 title
 -----
 Symbolic Z-matrix:
 Charge =  0 Multiplicity = 1

 SCF Done:  E(RHF) =  -450.728933563     A.U. after   12 cycles
 Normal termination of Gaussian 16 at Tue Apr  8 22:31:24 2025.
 Gaussian 16:  ES64L-G16RevC.01  3-Jul-2019

 ----------------------------------------------------------------------
 #t hf aug-cc-pvdz iop(5/13=1,5/36=2,99/5=2) pseudo=read geom=check gue
 ss=(read,tcheck) scf=(maxcycle=1)
 ----------------------------------------------------------------------
 -----
 title
 -----
 Structure from the checkpoint file:  "BDE49_expt_1050_mol1.chk"
 Charge =  0 Multiplicity = 1

                         Standard orientation:
 ---------------------------------------------------------------------
 Center     Atomic      Atomic             Coordinates (Angstroms)
 Number     Number       Type             X           Y           Z
 ---------------------------------------------------------------------
      1          6           0        0.417746    0.016815    0.007496
      2          6           0       -0.897902    0.770720   -0.084447
      3          9           0        1.456797    0.835247   -0.258716
      4          9           0        0.448899   -0.993062   -0.899481
      5          9           0        0.621882   -0.529279    1.216630
      6          8           0       -2.004813   -0.076019    0.109500
      7          1           0       -0.911117    1.282410   -1.055030
      8          1           0       -0.915415    1.521034    0.706486
      9          1           0       -2.002230   -0.736652   -0.591641
 ---------------------------------------------------------------------

 SCF Done:  E(RHF) =  -451.153929097     A.U. after    2 cycles

 The electronic state is 1-A.
 Alpha  occ. eigenvalues --  -26.51279 -26.51147 -26.50861 -20.58481 -11.52178
 Alpha  occ. eigenvalues --  -11.33208  -1.71675  -1.61813  -1.61587  -1.48783
 Alpha  occ. eigenvalues --   -1.05289  -0.91502  -0.81770  -0.81537  -0.79889
 Alpha  occ. eigenvalues --   -0.72041  -0.69525  -0.68170  -0.64861  -0.64210
 Alpha  occ. eigenvalues --   -0.62586  -0.62448  -0.61362  -0.54078  -0.48564
 Alpha virt. eigenvalues --    0.03523   0.04721   0.05483   0.07996   0.11082
 Alpha virt. eigenvalues --    0.11421   0.12020   0.12120   0.15337   0.16484
 Alpha virt. eigenvalues --    0.20384   0.20613   0.21135   0.25173   0.25799

 Mulliken charges:
               1
     1  C    2.304642
     2  C    0.390137
     3  F   -0.736803
     4  F   -0.765664
     5  F   -0.722408
     6  O   -1.059078
     7  H    0.175993
     8  H    0.110914
     9  H    0.302268
 Sum of Mulliken charges =  -0.00000

 Dipole moment (field-independent basis, Debye):
    X=             -0.8697    Y=              0.8970    Z=             -1.2772  Tot=              1.7867

 Test job not archived.
 1\1\GINC-SE074\SP\RHF\Aug-CC-pVDZ\C2H3F3O1\OHZDE\08-Apr-2025\0\\#t hf
 aug-cc-pvdz iop(5/13=1,5/36=2,99/5=2) pseudo=read geom=check guess=(re
 ad,tcheck) scf=(maxcycle=1)\\title\\0,1\C,0,0.417746,0.016815,0.007496
 \C,0,-0.897902,0.77072,-0.084447\F,0,1.456797,0.835247,-0.258716\F,0,0
 .448899,-0.993062,-0.899481\F,0,0.621882,-0.529279,1.21663\O,0,-2.0048
 13,-0.07602,0.1095\H,0,-0.911118,1.28241,-1.05503\H,0,-0.915416,1.5210
 34,0.706486\H,0,-2.00223,-0.736653,-0.591641\\Version=ES64L-G16RevC.01
 \State=1-A\HF=-451.1539291\RMSD=6.399e-03\Dipole=-0.3421809,0.3529113,

 Normal termination of Gaussian 16 at Tue Apr  8 22:31:26 2025.
