 Gaussian 16, Revision C.01,

 ----------------------------------------------------------------------
 #t hf aug-cc-pvdz symm=none int=(grid=ultrafine) guess=(read,tcheck) s
 table=(opt,rrhf)
 ----------------------------------------------------------------------
 -----
 title
 -----
 Symbolic Z-matrix:
 Charge =  0 Multiplicity = 1

 SCF Done:  E(RHF) =  -706.617621184     A.U. after   14 cycles
 Normal termination of Gaussian 16 at Tue Apr  8 23:05:54 2025.
 Gaussian 16:  ES64L-G16RevC.01  3-Jul-2019

 ----------------------------------------------------------------------
 #t hf aug-cc-pvdz iop(5/13=1,5/36=2,99/5=2) pseudo=read geom=check gue
 ss=(read,tcheck) scf=(maxcycle=1)
 ----------------------------------------------------------------------
 -----
 title
 -----
 Structure from the checkpoint file:  "BDE49_expt_388_mol1.chk"
 Charge =  0 Multiplicity = 1

                         Standard orientation:
 ---------------------------------------------------------------------
 Center     Atomic      Atomic             Coordinates (Angstroms)
 Number     Number       Type             X           Y           Z
 ---------------------------------------------------------------------
      1          8           0       -0.509135    1.293689   -0.503477
      2          6           0       -1.558623    1.252959    0.456886
      3          6           0       -2.347159   -0.027188    0.198620
      4          1           0       -2.157302    2.152017    0.300460
      5          1           0       -1.163072    1.259952    1.480277
      6         16           0       -1.048171   -1.277939   -0.123899
      7          1           0       -2.998317    0.073648   -0.670494
      8          1           0       -2.933031   -0.333595    1.065833
      9          6           0        0.193732    0.065623   -0.562088
     10          6           0        1.438703    0.033071    0.338430
     11          1           0        0.487665   -0.070291   -1.606066
     12          6           0        2.170107   -1.309150    0.215762
     13          6           0        2.368397    1.204835   -0.011296
     14          1           0        1.100185    0.149118    1.374547
     15          1           0        2.752873    1.107932   -1.032424
     16          1           0        3.226804    1.227514    0.665700
     17          1           0        1.844181    2.158646    0.061301
     18          1           0        2.492875   -1.485394   -0.816173
     19          1           0        1.537425   -2.145319    0.522705
     20          1           0        3.062581   -1.317617    0.846659
 ---------------------------------------------------------------------

 SCF Done:  E(RHF) =  -707.007404132     A.U. after    2 cycles

 The electronic state is 1-A.
 Alpha  occ. eigenvalues --  -93.93765 -20.55787 -11.31910 -11.29921 -11.27033
 Alpha  occ. eigenvalues --  -11.24013 -11.22529 -11.22184  -8.21878  -6.19669
 Alpha  occ. eigenvalues --   -6.19557  -6.19322  -1.47916  -1.09590  -1.07570
 Alpha  occ. eigenvalues --   -0.99239  -0.93263  -0.85746  -0.83078  -0.77367
 Alpha  occ. eigenvalues --   -0.69807  -0.67395  -0.63321  -0.62192  -0.58923
 Alpha  occ. eigenvalues --   -0.57168  -0.55826  -0.54389  -0.53930  -0.50037
 Alpha  occ. eigenvalues --   -0.49863  -0.48295  -0.47481  -0.43708  -0.41892
 Alpha  occ. eigenvalues --   -0.34817
 Alpha virt. eigenvalues --    0.03505   0.03659   0.04027   0.04232   0.05492
 Alpha virt. eigenvalues --    0.05665   0.05887   0.06813   0.07454   0.08619
 Alpha virt. eigenvalues --    0.08956   0.09477   0.10646   0.12350   0.13426

 Mulliken charges:
               1
     1  O   -1.493509
     2  C    0.388205
     3  C   -0.715648
     4  H   -0.006357
     5  H    0.190719
     6  S    0.459624
     7  H    0.138151
     8  H    0.175329
     9  C    1.226133
    10  C   -1.524772
    11  H    0.023559
    12  C   -0.012440
    13  C   -0.152326
    14  H    0.167005
    15  H    0.242648
    16  H    0.148015
    17  H    0.178908
    18  H    0.228965
    19  H    0.183989
    20  H    0.153801
 Sum of Mulliken charges =  -0.00000

 Dipole moment (field-independent basis, Debye):
    X=             -0.3857    Y=              0.9705    Z=              0.9749  Tot=              1.4287

 Test job not archived.
 1\1\GINC-SE069\SP\RHF\Aug-CC-pVDZ\C6H12O1S1\OHZDE\08-Apr-2025\0\\#t hf
  aug-cc-pvdz iop(5/13=1,5/36=2,99/5=2) pseudo=read geom=check guess=(r
 ead,tcheck) scf=(maxcycle=1)\\title\\0,1\O,0,-0.509135,1.293689,-0.503
 477\C,0,-1.558623,1.252959,0.456886\C,0,-2.347159,-0.027188,0.19862\H,
 0,-2.157302,2.152017,0.30046\H,0,-1.163072,1.259952,1.480277\S,0,-1.04
 8171,-1.277939,-0.123899\H,0,-2.998317,0.073648,-0.670494\H,0,-2.93303
 1,-0.333595,1.065833\C,0,0.193732,0.065623,-0.562088\C,0,1.438703,0.03
 3071,0.33843\H,0,0.487665,-0.070291,-1.606066\C,0,2.170107,-1.30915,0.

 Normal termination of Gaussian 16 at Tue Apr  8 23:06:04 2025.
