 Gaussian 16, Revision C.01,

 ----------------------------------------------------------------------
 #t hf aug-cc-pvdz symm=none int=(grid=ultrafine) guess=(read,tcheck) s
 table=(opt,rrhf)
 ----------------------------------------------------------------------
 -----
 title
 -----
 Symbolic Z-matrix:
 Charge =  0 Multiplicity = 1

 SCF Done:  E(RHF) =  -1119.20332476     A.U. after   19 cycles
 Normal termination of Gaussian 16 at Tue Apr  8 23:00:23 2025.
 Gaussian 16:  ES64L-G16RevC.01  3-Jul-2019

 ----------------------------------------------------------------------
 #t hf aug-cc-pvdz iop(5/13=1,5/36=2,99/5=2) pseudo=read geom=check gue
 ss=(read,tcheck) scf=(maxcycle=1)
 ----------------------------------------------------------------------
 -----
 title
 -----
 Structure from the checkpoint file:  "BDE49_expt_1759_mol1.chk"
 Charge =  0 Multiplicity = 1

                         Standard orientation:
 ---------------------------------------------------------------------
 Center     Atomic      Atomic             Coordinates (Angstroms)
 Number     Number       Type             X           Y           Z
 ---------------------------------------------------------------------
      1          7           0        1.058248    0.532592   -0.394422
      2          7           0        1.437548    1.786627   -0.765937
      3          8           0        2.630656    1.936564   -0.919578
      4          6           0        2.030775   -0.577672   -0.413227
      5          8           0        1.993069   -1.389507   -1.312258
      6          7           0        2.880732   -0.593436    0.636830
      7          6           0       -0.341420    0.299262   -0.243487
      8          6           0       -1.150343    1.326205    0.255638
      9          6           0       -2.515871    1.124944    0.412524
     10          6           0       -3.067413   -0.112096    0.094076
     11          6           0       -2.271499   -1.142370   -0.392320
     12          6           0       -0.907247   -0.935684   -0.571517
     13          1           0       -3.144780    1.918474    0.794280
     14          1           0       -2.713874   -2.096977   -0.645295
     15          1           0       -0.289177   -1.718969   -0.986489
     16          6           0        3.963047   -1.574828    0.633112
     17          1           0        3.962708   -2.130604    1.574674
     18          1           0        4.928337   -1.071035    0.519722
     19          1           0        3.814669   -2.260646   -0.196120
     20          6           0        2.938794    0.419634    1.683936
     21          1           0        3.156054   -0.072547    2.634524
     22          1           0        1.984581    0.931921    1.775207
     23          1           0        3.720365    1.155566    1.474722
     24          1           0       -0.710561    2.280593    0.510116
     25         17           0       -4.788632   -0.373946    0.312450
 ---------------------------------------------------------------------

 SCF Done:  E(RHF) =  -1119.93384192     A.U. after    2 cycles

 The electronic state is 1-A.
 Alpha  occ. eigenvalues -- -105.57802 -20.60440 -20.53790 -15.69879 -15.59563
 Alpha  occ. eigenvalues --  -15.55545 -11.41934 -11.31829 -11.31633 -11.29044
 Alpha  occ. eigenvalues --  -11.28215 -11.27166 -11.27016 -11.26958 -11.26528
 Alpha  occ. eigenvalues --  -10.62591  -7.79559  -7.79160  -7.79142  -1.61029
 Alpha  occ. eigenvalues --   -1.49745  -1.32763  -1.27772  -1.19428  -1.11032
 Alpha  occ. eigenvalues --   -1.05574  -1.03453  -1.01444  -1.00268  -0.94943
 Alpha  occ. eigenvalues --   -0.87943  -0.86210  -0.80048  -0.79106  -0.77168
 Alpha  occ. eigenvalues --   -0.72228  -0.69324  -0.68798  -0.68323  -0.68151
 Alpha  occ. eigenvalues --   -0.66752  -0.64969  -0.62907  -0.62307  -0.59429
 Alpha  occ. eigenvalues --   -0.58766  -0.57171  -0.56706  -0.56350  -0.55684
 Alpha  occ. eigenvalues --   -0.54401  -0.52290  -0.48466  -0.47142  -0.46141
 Alpha  occ. eigenvalues --   -0.44492  -0.42023  -0.37400  -0.34500
 Alpha virt. eigenvalues --    0.03001   0.03589   0.04070   0.04134   0.04518
 Alpha virt. eigenvalues --    0.04766   0.05114   0.06276   0.07059   0.07571
 Alpha virt. eigenvalues --    0.07632   0.08266   0.08986   0.09498   0.10072

 Mulliken charges:
               1
     1  N    1.185215
     2  N    1.157587
     3  O   -1.143538
     4  C   -0.115687
     5  O   -1.427362
     6  N    0.918678
     7  C   -1.947274
     8  C    0.734826
     9  C    0.440931
    10  C    0.047608
    11  C    0.461133
    12  C    0.727126
    13  H   -0.172398
    14  H   -0.179992
    15  H   -0.346550
    16  C   -0.201395
    17  H    0.176626
    18  H    0.248745
    19  H    0.006939
    20  C   -0.239312
    21  H    0.089726
    22  H    0.000332
    23  H    0.224101
    24  H   -0.316258
    25  Cl  -0.329807
 Sum of Mulliken charges =  -0.00000

 Dipole moment (field-independent basis, Debye):
    X=              1.9580    Y=             -0.4404    Z=              3.4498  Tot=              3.9911

 Test job not archived.
 1\1\GINC-SE159\SP\RHF\Aug-CC-pVDZ\C9H10Cl1N3O2\OHZDE\08-Apr-2025\0\\#t
  hf aug-cc-pvdz iop(5/13=1,5/36=2,99/5=2) pseudo=read geom=check guess
 =(read,tcheck) scf=(maxcycle=1)\\title\\0,1\N,0,1.058248,0.532592,-0.3
 94422\N,0,1.437548,1.786627,-0.765937\O,0,2.630656,1.936564,-0.919578\
 C,0,2.030775,-0.577672,-0.413227\O,0,1.993069,-1.389507,-1.312258\N,0,
 2.880732,-0.593436,0.63683\C,0,-0.34142,0.299262,-0.243487\C,0,-1.1503
 43,1.326205,0.255638\C,0,-2.515871,1.124944,0.412524\C,0,-3.067413,-0.
 112096,0.094076\C,0,-2.271499,-1.14237,-0.39232\C,0,-0.907247,-0.93568

 Normal termination of Gaussian 16 at Tue Apr  8 23:00:49 2025.
