 Gaussian 16, Revision C.01,

 ----------------------------------------------------------------------
 #t hf aug-cc-pvdz symm=none int=(grid=ultrafine) guess=(read,tcheck) s
 table=(opt,rrhf)
 ----------------------------------------------------------------------
 -----
 title
 -----
 Symbolic Z-matrix:
 Charge =  0 Multiplicity = 1

 SCF Done:  E(RHF) =  -802.406767351     A.U. after   16 cycles
 Normal termination of Gaussian 16 at Tue Apr  8 22:35:05 2025.
 Gaussian 16:  ES64L-G16RevC.01  3-Jul-2019

 ----------------------------------------------------------------------
 #t hf aug-cc-pvdz iop(5/13=1,5/36=2,99/5=2) pseudo=read geom=check gue
 ss=(read,tcheck) scf=(maxcycle=1)
 ----------------------------------------------------------------------
 -----
 title
 -----
 Structure from the checkpoint file:  "BDE49_expt_1080_mol1.chk"
 Charge =  0 Multiplicity = 1

                         Standard orientation:
 ---------------------------------------------------------------------
 Center     Atomic      Atomic             Coordinates (Angstroms)
 Number     Number       Type             X           Y           Z
 ---------------------------------------------------------------------
      1          6           0        0.133363    0.201007    0.000130
      2          6           0       -1.291511    0.607800    0.000200
      3          8           0       -1.710625    1.716244   -0.000057
      4          6           0        0.567103   -1.128932    0.000105
      5          6           0        1.928587   -1.412248    0.000045
      6          6           0        2.860668   -0.376403    0.000004
      7          6           0        2.432376    0.951422    0.000024
      8          1           0        2.261865   -2.443224    0.000028
      9          1           0        3.920845   -0.602928   -0.000044
     10          1           0       -0.157102   -1.931318    0.000137
     11          6           0        1.075477    1.242075    0.000085
     12          1           0        3.156519    1.757556   -0.000008
     13          1           0        0.724158    2.265898    0.000102
     14         17           0       -2.497510   -0.781427   -0.000195
 ---------------------------------------------------------------------

 SCF Done:  E(RHF) =  -802.825782347     A.U. after    2 cycles

 The electronic state is 1-A.
 Alpha  occ. eigenvalues -- -105.57318 -20.58059 -11.42320 -11.28275 -11.27795
 Alpha  occ. eigenvalues --  -11.27734 -11.27656 -11.26674 -11.26650 -10.62154
 Alpha  occ. eigenvalues --   -7.79074  -7.78711  -7.78711  -1.53078  -1.18933
 Alpha  occ. eigenvalues --   -1.09494  -1.05163  -1.04223  -0.90418  -0.86418
 Alpha  occ. eigenvalues --   -0.79713  -0.74094  -0.69019  -0.68886  -0.64938
 Alpha  occ. eigenvalues --   -0.63603  -0.62851  -0.61207  -0.55472  -0.53255
 Alpha  occ. eigenvalues --   -0.53124  -0.47724  -0.47009  -0.44901  -0.37772
 Alpha  occ. eigenvalues --   -0.37223
 Alpha virt. eigenvalues --    0.02718   0.03317   0.04055   0.04107   0.05804
 Alpha virt. eigenvalues --    0.06253   0.08601   0.09399   0.09771   0.10246
 Alpha virt. eigenvalues --    0.11156   0.12669   0.12975   0.13257   0.13492

 Mulliken charges:
               1
     1  C    2.047838
     2  C    0.290735
     3  O   -1.318390
     4  C    0.288240
     5  C    0.169794
     6  C   -0.155517
     7  C    0.538696
     8  H   -0.220352
     9  H   -0.201950
    10  H   -0.183094
    11  C   -0.490847
    12  H   -0.209368
    13  H   -0.333997
    14  Cl  -0.221790
 Sum of Mulliken charges =  -0.00000

 Dipole moment (field-independent basis, Debye):
    X=              4.0542    Y=             -1.1544    Z=              0.0005  Tot=              4.2153

 Test job not archived.
 1\1\GINC-SE435\SP\RHF\Aug-CC-pVDZ\C7H5Cl1O1\OHZDE\08-Apr-2025\0\\#t hf
  aug-cc-pvdz iop(5/13=1,5/36=2,99/5=2) pseudo=read geom=check guess=(r
 ead,tcheck) scf=(maxcycle=1)\\title\\0,1\C,0,0.133363,0.201007,0.00013
 \C,0,-1.291511,0.6078,0.0002\O,0,-1.710625,1.716244,-0.000057\C,0,0.56
 7103,-1.128932,0.000105\C,0,1.928587,-1.412248,0.000045\C,0,2.860668,-
 0.376403,0.000004\C,0,2.432376,0.951422,0.000024\H,0,2.261865,-2.44322
 4,0.000028\H,0,3.920845,-0.602928,-0.000044\H,0,-0.157102,-1.931318,0.
 000137\C,0,1.075477,1.242075,0.000085\H,0,3.156519,1.757556,-0.000008\

 Normal termination of Gaussian 16 at Tue Apr  8 22:35:11 2025.
