 Gaussian 16, Revision C.01,

 ----------------------------------------------------------------------
 #t hf aug-cc-pvdz symm=none int=(grid=ultrafine) guess=(read,tcheck) s
 table=(opt,rrhf)
 ----------------------------------------------------------------------
 -----
 title
 -----
 Symbolic Z-matrix:
 Charge =  0 Multiplicity = 1

 SCF Done:  E(RHF) =  -792.768690936     A.U. after   16 cycles
 Normal termination of Gaussian 16 at Wed Apr  9 00:53:53 2025.
 Gaussian 16:  ES64L-G16RevC.01  3-Jul-2019

 ----------------------------------------------------------------------
 #t hf aug-cc-pvdz iop(5/13=1,5/36=2,99/5=2) pseudo=read geom=check gue
 ss=(read,tcheck) scf=(maxcycle=1)
 ----------------------------------------------------------------------
 -----
 title
 -----
 Structure from the checkpoint file:  "BDE49_nonexpt_969_mol1.chk"
 Charge =  0 Multiplicity = 1

                         Standard orientation:
 ---------------------------------------------------------------------
 Center     Atomic      Atomic             Coordinates (Angstroms)
 Number     Number       Type             X           Y           Z
 ---------------------------------------------------------------------
      1          9           0       -3.294588    0.037818   -0.261242
      2          7           0       -2.008760    0.104983   -0.852063
      3          6           0       -1.149057   -0.082361    0.091607
      4          7           0       -1.390220   -0.379389    1.387649
      5          1           0       -2.349000   -0.274606    1.683839
      6          1           0       -0.666383   -0.206154    2.067594
      7          6           0        0.281665   -0.007836   -0.404387
      8          9           0        0.386224   -0.046114   -1.714697
      9          7           0        1.013634    1.290870    0.092861
     10          8           0        1.898564    1.685322   -0.626184
     11          8           0        0.630692    1.758300    1.144626
     12          7           0        1.144101   -1.187242    0.179436
     13          8           0        1.384148   -1.121046    1.370136
     14          8           0        1.472062   -2.036070   -0.606889
 ---------------------------------------------------------------------

 SCF Done:  E(RHF) =  -793.511920704     A.U. after    2 cycles

 The electronic state is 1-A.
 Alpha  occ. eigenvalues --  -26.57426 -26.50396 -20.66468 -20.65845 -20.65402
 Alpha  occ. eigenvalues --  -20.65352 -15.85991 -15.85740 -15.63406 -15.58241
 Alpha  occ. eigenvalues --  -11.53922 -11.41431  -1.75569  -1.73831  -1.71500
 Alpha  occ. eigenvalues --   -1.61875  -1.58642  -1.58272  -1.33415  -1.22051
 Alpha  occ. eigenvalues --   -1.19675  -1.06214  -0.97444  -0.90451  -0.88807
 Alpha  occ. eigenvalues --   -0.87466  -0.85097  -0.81482  -0.80832  -0.80588
 Alpha  occ. eigenvalues --   -0.79534  -0.78673  -0.74911  -0.72960  -0.71214
 Alpha  occ. eigenvalues --   -0.69571  -0.66533  -0.61598  -0.56542  -0.56344
 Alpha  occ. eigenvalues --   -0.56116  -0.54849  -0.53771  -0.51239  -0.50483
 Alpha  occ. eigenvalues --   -0.47069
 Alpha virt. eigenvalues --   -0.00449   0.00701   0.02939   0.05790   0.06858
 Alpha virt. eigenvalues --    0.07681   0.08786   0.10001   0.10163   0.10997
 Alpha virt. eigenvalues --    0.11938   0.12499   0.12855   0.14993   0.15789

 Mulliken charges:
               1
     1  F   -0.714076
     2  N    1.511590
     3  C   -2.125934
     4  N    0.802095
     5  H    0.123719
     6  H    0.234971
     7  C    1.022550
     8  F   -0.895963
     9  N    2.889825
    10  O   -1.399170
    11  O   -1.396756
    12  N    2.720811
    13  O   -1.432581
    14  O   -1.341080
 Sum of Mulliken charges =  -0.00000

 Dipole moment (field-independent basis, Debye):
    X=             -0.7524    Y=             -0.2792    Z=              2.5076  Tot=              2.6329

 Test job not archived.
 1\1\GINC-SE095\SP\RHF\Aug-CC-pVDZ\C2H2F2N4O4\OHZDE\09-Apr-2025\0\\#t h
 f aug-cc-pvdz iop(5/13=1,5/36=2,99/5=2) pseudo=read geom=check guess=(
 read,tcheck) scf=(maxcycle=1)\\title\\0,1\F,0,-3.294588,0.037818,-0.26
 1242\N,0,-2.00876,0.104983,-0.852063\C,0,-1.149057,-0.082361,0.091607\
 N,0,-1.39022,-0.379389,1.387649\H,0,-2.349,-0.274606,1.683839\H,0,-0.6
 66383,-0.206154,2.067594\C,0,0.281665,-0.007836,-0.404387\F,0,0.386224
 ,-0.046114,-1.714697\N,0,1.013634,1.29087,0.092861\O,0,1.898564,1.6853
 22,-0.626184\O,0,0.630692,1.7583,1.144626\N,0,1.144101,-1.187242,0.179

 Normal termination of Gaussian 16 at Wed Apr  9 00:54:00 2025.
