 Gaussian 16, Revision C.01,

 ----------------------------------------------------------------------
 #t hf aug-cc-pvdz symm=none int=(grid=ultrafine) guess=(read,tcheck) s
 table=(opt,rrhf)
 ----------------------------------------------------------------------
 -----
 title
 -----
 Symbolic Z-matrix:
 Charge =  0 Multiplicity = 1

 SCF Done:  E(RHF) =  -173.311179885     A.U. after   12 cycles
 Normal termination of Gaussian 16 at Tue Apr  8 22:37:30 2025.
 Gaussian 16:  ES64L-G16RevC.01  3-Jul-2019

 ----------------------------------------------------------------------
 #t hf aug-cc-pvdz iop(5/13=1,5/36=2,99/5=2) pseudo=read geom=check gue
 ss=(read,tcheck) scf=(maxcycle=1)
 ----------------------------------------------------------------------
 -----
 title
 -----
 Structure from the checkpoint file:  "BDE49_expt_1191_mol1.chk"
 Charge =  0 Multiplicity = 1

                         Standard orientation:
 ---------------------------------------------------------------------
 Center     Atomic      Atomic             Coordinates (Angstroms)
 Number     Number       Type             X           Y           Z
 ---------------------------------------------------------------------
      1          6           0       -0.544576   -0.517315   -0.053482
      2          6           0        0.598245    0.494098    0.033611
      3          7           0        1.897572   -0.178045   -0.094965
      4          1           0        0.489851    1.078653    0.963636
      5          1           0        0.508527    1.206292   -0.794367
      6          1           0        2.056797   -0.775691    0.711529
      7          1           0        2.648090    0.505724   -0.095635
      8          6           0       -1.928723    0.132062    0.018808
      9          1           0       -0.438575   -1.244819    0.761620
     10          1           0       -0.433501   -1.080739   -0.985091
     11          1           0       -2.063873    0.682966    0.954968
     12          1           0       -2.722324   -0.617076   -0.041196
     13          1           0       -2.077671    0.837938   -0.804336
 ---------------------------------------------------------------------

 SCF Done:  E(RHF) =  -173.506688850     A.U. after    2 cycles

 The electronic state is 1-A.
 Alpha  occ. eigenvalues --  -15.48143 -11.25230 -11.22360 -11.22263  -1.17491
 Alpha  occ. eigenvalues --   -1.03681  -0.90334  -0.80404  -0.68462  -0.65028
 Alpha  occ. eigenvalues --   -0.62017  -0.57547  -0.54251  -0.50789  -0.48838
 Alpha  occ. eigenvalues --   -0.47646  -0.42344
 Alpha virt. eigenvalues --    0.03591   0.04171   0.04427   0.04752   0.06667
 Alpha virt. eigenvalues --    0.06921   0.07023   0.08183   0.09657   0.11399
 Alpha virt. eigenvalues --    0.13459   0.14826   0.15630   0.16754   0.17050

 Mulliken charges:
               1
     1  C   -0.344074
     2  C   -0.693955
     3  N    0.222257
     4  H    0.072024
     5  H    0.054796
     6  H    0.132351
     7  H    0.129117
     8  C   -0.318942
     9  H    0.146792
    10  H    0.182967
    11  H    0.150710
    12  H    0.112564
    13  H    0.153394
 Sum of Mulliken charges =  -0.00000

 Dipole moment (field-independent basis, Debye):
    X=             -0.0789    Y=              0.7225    Z=              1.1591  Tot=              1.3681

 Test job not archived.
 1\1\GINC-SE343\SP\RHF\Aug-CC-pVDZ\C3H9N1\OHZDE\08-Apr-2025\0\\#t hf au
 g-cc-pvdz iop(5/13=1,5/36=2,99/5=2) pseudo=read geom=check guess=(read
 ,tcheck) scf=(maxcycle=1)\\title\\0,1\C,0,0.544576,0.517315,-0.053482\
 C,0,-0.598245,-0.494098,0.033611\N,0,-1.897572,0.178045,-0.094965\H,0,
 -0.489851,-1.078653,0.963636\H,0,-0.508527,-1.206292,-0.794367\H,0,-2.
 056797,0.775691,0.711529\H,0,-2.64809,-0.505724,-0.095635\C,0,1.928723
 ,-0.132062,0.018808\H,0,0.438575,1.244819,0.76162\H,0,0.433501,1.08073
 9,-0.985091\H,0,2.063873,-0.682966,0.954968\H,0,2.722324,0.617076,-0.0

 Normal termination of Gaussian 16 at Tue Apr  8 22:37:33 2025.
