 Gaussian 16, Revision C.01,

 ----------------------------------------------------------------------
 #t hf aug-cc-pvdz symm=none int=(grid=ultrafine) guess=(read,tcheck) s
 table=opt
 ----------------------------------------------------------------------
 -----
 title
 -----
 Symbolic Z-matrix:
 Charge =  0 Multiplicity = 2

 SCF Done:  E(UHF) =  -230.399491747     A.U. after   19 cycles
 Normal termination of Gaussian 16 at Tue Apr  8 22:39:39 2025.
 Gaussian 16:  ES64L-G16RevC.01  3-Jul-2019

 ----------------------------------------------------------------------
 #t hf aug-cc-pvdz iop(5/13=1,5/36=2,99/5=2) pseudo=read geom=check gue
 ss=(read,tcheck) scf=(maxcycle=1)
 ----------------------------------------------------------------------
 -----
 title
 -----
 Structure from the checkpoint file:  "BDE49_expt_1296_mol2.chk"
 Charge =  0 Multiplicity = 2

                         Standard orientation:
 ---------------------------------------------------------------------
 Center     Atomic      Atomic             Coordinates (Angstroms)
 Number     Number       Type             X           Y           Z
 ---------------------------------------------------------------------
      1          6           0       -2.270673   -0.100075    0.000023
      2          6           0       -0.784497   -0.465309   -0.000002
      3          1           0       -2.536926    0.488162    0.883548
      4          1           0       -2.894174   -0.997969    0.000007
      5          1           0       -2.536945    0.488208   -0.883465
      6          6           0        0.122713    0.773421    0.000020
      7          1           0       -0.546768   -1.078074   -0.874547
      8          1           0       -0.546749   -1.078119    0.874505
      9          6           0        1.611465    0.469004   -0.000005
     10          1           0       -0.061409    1.412924    0.871343
     11          1           0       -0.061428    1.412969   -0.871266
     12          8           0        2.138793   -0.588793   -0.000042
 ---------------------------------------------------------------------

 SCF Done:  E(UHF) =  -230.637912972     A.U. after    2 cycles

 The electronic state is 2-A.
 Alpha  occ. eigenvalues --  -20.58205 -11.34677 -11.27171 -11.24745 -11.23781
 Alpha  occ. eigenvalues --   -1.52049  -1.09552  -0.98722  -0.84939  -0.76827
 Alpha  occ. eigenvalues --   -0.68062  -0.66490  -0.64412  -0.58745  -0.57563
 Alpha  occ. eigenvalues --   -0.53819  -0.53154  -0.50840  -0.49579  -0.35790
 Alpha virt. eigenvalues --    0.03405   0.03880   0.04008   0.04905   0.06917
 Alpha virt. eigenvalues --    0.07098   0.07697   0.09063   0.11425   0.12149
 Alpha virt. eigenvalues --    0.12922   0.13784   0.15198   0.15646   0.16065

  Beta  occ. eigenvalues --  -20.57124 -11.32734 -11.26629 -11.24641 -11.23763
  Beta  occ. eigenvalues --   -1.49354  -1.08351  -0.97002  -0.83800  -0.73625
  Beta  occ. eigenvalues --   -0.66157  -0.63980  -0.59525  -0.58388  -0.53222
  Beta  occ. eigenvalues --   -0.53220  -0.51433  -0.49563  -0.48455
  Beta virt. eigenvalues --    0.03273   0.03829   0.04020   0.04636   0.06908
  Beta virt. eigenvalues --    0.06940   0.07725   0.08839   0.11039   0.11453
  Beta virt. eigenvalues --    0.12967   0.13053   0.14139   0.15219   0.15983

 Mulliken charges and spin densities:
               1          2
     1  C   -0.353721  -0.002368
     2  C   -0.245932  -0.013613
     3  H    0.159445   0.000361
     4  H    0.128439   0.001058
     5  H    0.159444   0.000361
     6  C   -0.392537   0.089673
     7  H    0.133808   0.003275
     8  H    0.133804   0.003275
     9  C    0.702980   0.821355
    10  H    0.244748  -0.025249
    11  H    0.244749  -0.025249
    12  O   -0.915226   0.147120
 Sum of Mulliken charges =   0.00000   1.00000

 Dipole moment (field-independent basis, Debye):
    X=             -2.5960    Y=              1.2054    Z=              0.0001  Tot=              2.8622
                          Isotropic Fermi Contact Couplings
        Atom                 a.u.       MegaHertz       Gauss      10(-4) cm-1
     1  C(13)              0.00465       5.22597       1.86476       1.74320
     2  C(13)              0.01572      17.66937       6.30487       5.89387
     3  H(1)               0.00004       0.18656       0.06657       0.06223
     4  H(1)               0.00163       7.30360       2.60611       2.43622
     5  H(1)               0.00004       0.18656       0.06657       0.06223
     6  C(13)              0.11315     127.20630      45.39037      42.43146
     7  H(1)              -0.00076      -3.41465      -1.21843      -1.13900
     8  H(1)              -0.00076      -3.41464      -1.21843      -1.13900

 Normal termination of Gaussian 16 at Tue Apr  8 22:39:43 2025.
