 Gaussian 16, Revision C.01,

 ----------------------------------------------------------------------
 #t hf aug-cc-pvdz symm=none int=(grid=ultrafine) guess=(read,tcheck) s
 table=(opt,rrhf)
 ----------------------------------------------------------------------
 -----
 title
 -----
 Symbolic Z-matrix:
 Charge =  0 Multiplicity = 1

 SCF Done:  E(RHF) =  -815.563749662     A.U. after   16 cycles
 Normal termination of Gaussian 16 at Tue Apr  8 23:19:57 2025.
 Gaussian 16:  ES64L-G16RevC.01  3-Jul-2019

 ----------------------------------------------------------------------
 #t hf aug-cc-pvdz iop(5/13=1,5/36=2,99/5=2) pseudo=read geom=check gue
 ss=(read,tcheck) scf=(maxcycle=1)
 ----------------------------------------------------------------------
 -----
 title
 -----
 Structure from the checkpoint file:  "BDE49_nonexpt_1131_mol1.chk"
 Charge =  0 Multiplicity = 1

                         Standard orientation:
 ---------------------------------------------------------------------
 Center     Atomic      Atomic             Coordinates (Angstroms)
 Number     Number       Type             X           Y           Z
 ---------------------------------------------------------------------
      1          9           0        2.352234    0.433358   -0.008132
      2          8           0        1.572120   -0.847049    0.002475
      3         15           0       -0.806544    0.102017   -0.056388
      4          8           0       -1.899835    0.176740   -1.006520
      5          8           0       -1.030186   -0.769569    1.248659
      6          1           0       -1.682505   -1.469878    1.117878
      7          8           0       -0.170086    1.419148    0.506432
      8          1           0        0.800731    1.444830    0.511227
      9          8           0        0.504216   -0.654948   -0.839808
 ---------------------------------------------------------------------

 SCF Done:  E(RHF) =  -816.058962284     A.U. after    2 cycles

 The electronic state is 1-A.
 Alpha  occ. eigenvalues --  -84.50099 -26.55019 -20.79801 -20.69837 -20.63360
 Alpha  occ. eigenvalues --  -20.62590 -20.54383  -6.94969  -4.49180  -4.48421
 Alpha  occ. eigenvalues --   -4.48108  -1.75392  -1.59150  -1.55715  -1.51683
 Alpha  occ. eigenvalues --   -1.43340  -1.27999  -0.90368  -0.81943  -0.78767
 Alpha  occ. eigenvalues --   -0.76162  -0.74795  -0.70024  -0.67992  -0.65178
 Alpha  occ. eigenvalues --   -0.64088  -0.60824  -0.60530  -0.57569  -0.55587
 Alpha  occ. eigenvalues --   -0.53912  -0.50309  -0.49755
 Alpha virt. eigenvalues --    0.03147   0.04734   0.07556   0.08321   0.09002
 Alpha virt. eigenvalues --    0.10821   0.12539   0.14412   0.16800   0.18000
 Alpha virt. eigenvalues --    0.18503   0.19774   0.21889   0.22772   0.23440

 Mulliken charges:
               1
     1  F   -0.362689
     2  O    0.110964
     3  P    3.938223
     4  O   -1.281347
     5  O   -1.262662
     6  H    0.369405
     7  O   -1.266179
     8  H    0.462982
     9  O   -0.708697
 Sum of Mulliken charges =  -0.00000

 Dipole moment (field-independent basis, Debye):
    X=              0.9198    Y=             -1.3842    Z=              2.2456  Tot=              2.7936

 Test job not archived.
 1\1\GINC-SE069\SP\RHF\Aug-CC-pVDZ\F1H2O5P1\OHZDE\08-Apr-2025\0\\#t hf
 aug-cc-pvdz iop(5/13=1,5/36=2,99/5=2) pseudo=read geom=check guess=(re
 ad,tcheck) scf=(maxcycle=1)\\title\\0,1\F,0,2.352234,0.433358,-0.00813
 2\O,0,1.57212,-0.847049,0.002475\P,0,-0.806544,0.102017,-0.056388\O,0,
 -1.899835,0.17674,-1.00652\O,0,-1.030186,-0.769569,1.248659\H,0,-1.682
 505,-1.469878,1.117878\O,0,-0.170086,1.419148,0.506432\H,0,0.800731,1.
 44483,0.511227\O,0,0.504216,-0.654948,-0.839808\\Version=ES64L-G16RevC
 .01\State=1-A\HF=-816.0589623\RMSD=1.014e-02\Dipole=0.3618751,-0.54456

 Normal termination of Gaussian 16 at Tue Apr  8 23:20:01 2025.
