 Gaussian 16, Revision C.01,

 ----------------------------------------------------------------------
 #t hf aug-cc-pvdz symm=none int=(grid=ultrafine) guess=(read,tcheck) s
 table=(opt,rrhf)
 ----------------------------------------------------------------------
 -----
 title
 -----
 Symbolic Z-matrix:
 Charge =  0 Multiplicity = 1

 SCF Done:  E(RHF) =  -673.852110178     A.U. after   14 cycles
 Normal termination of Gaussian 16 at Wed Apr  9 00:10:18 2025.
 Gaussian 16:  ES64L-G16RevC.01  3-Jul-2019

 ----------------------------------------------------------------------
 #t hf aug-cc-pvdz iop(5/13=1,5/36=2,99/5=2) pseudo=read geom=check gue
 ss=(read,tcheck) scf=(maxcycle=1)
 ----------------------------------------------------------------------
 -----
 title
 -----
 Structure from the checkpoint file:  "BDE49_nonexpt_2298_mol1.chk"
 Charge =  0 Multiplicity = 1

                         Standard orientation:
 ---------------------------------------------------------------------
 Center     Atomic      Atomic             Coordinates (Angstroms)
 Number     Number       Type             X           Y           Z
 ---------------------------------------------------------------------
      1          6           0        1.107419   -1.208100    0.000088
      2          6           0        2.499605   -1.246407    0.000105
      3          6           0        0.410982    0.011635   -0.000014
      4          6           0        1.163527    1.196387   -0.000101
      5          6           0        2.556992    1.163189   -0.000087
      6          6           0        3.227605   -0.057792    0.000017
      7          8           0       -1.824927    1.680529   -0.000339
      8          1           0        0.561351   -2.147693    0.000155
      9          1           0        3.016090   -2.200268    0.000185
     10          1           0        4.311894   -0.084286    0.000028
     11          1           0        3.119490    2.090748   -0.000158
     12          1           0        0.647906    2.150083   -0.000185
     13         14           0       -1.462916    0.055204   -0.000016
     14          1           0       -2.746145    1.946907   -0.000158
     15          6           0       -2.153903   -0.780285    1.532993
     16          1           0       -1.776033   -0.301980    2.440671
     17          1           0       -1.865953   -1.835904    1.568484
     18          1           0       -3.248176   -0.740429    1.556486
     19          6           0       -2.153900   -0.780910   -1.532683
     20          1           0       -1.865922   -1.836535   -1.567770
     21          1           0       -1.776059   -0.302944   -2.440552
     22          1           0       -3.248173   -0.741090   -1.556172
 ---------------------------------------------------------------------

 SCF Done:  E(RHF) =  -674.287539653     A.U. after    2 cycles

 The electronic state is 1-A.
 Alpha  occ. eigenvalues --  -69.53968 -20.53773 -11.24276 -11.24139 -11.23857
 Alpha  occ. eigenvalues --  -11.23741 -11.23655 -11.22045 -11.21074 -11.21066
 Alpha  occ. eigenvalues --   -6.20616  -3.96102  -3.95942  -3.95898  -1.42391
 Alpha  occ. eigenvalues --   -1.14583  -1.01244  -1.00967  -0.96139  -0.93024
 Alpha  occ. eigenvalues --   -0.82764  -0.82467  -0.74127  -0.69830  -0.64308
 Alpha  occ. eigenvalues --   -0.63034  -0.60603  -0.59097  -0.58737  -0.56620
 Alpha  occ. eigenvalues --   -0.56255  -0.55091  -0.54751  -0.51615  -0.50687
 Alpha  occ. eigenvalues --   -0.50073  -0.49346  -0.44001  -0.43040  -0.34051
 Alpha  occ. eigenvalues --   -0.33936
 Alpha virt. eigenvalues --    0.02831   0.03448   0.03777   0.04527   0.04813
 Alpha virt. eigenvalues --    0.04930   0.06308   0.06972   0.07246   0.07498
 Alpha virt. eigenvalues --    0.07971   0.09583   0.09749   0.10088   0.10480

 Mulliken charges:
               1
     1  C    0.757424
     2  C    0.203913
     3  C   -0.851761
     4  C    0.108584
     5  C    0.304350
     6  C    0.427327
     7  O   -1.885988
     8  H   -0.374413
     9  H   -0.232930
    10  H   -0.221046
    11  H   -0.226701
    12  H   -0.338579
    13  Si   3.384142
    14  H    0.389021
    15  C   -0.628908
    16  H   -0.099411
    17  H    0.025880
    18  H   -0.019258
    19  C   -0.628890
    20  H    0.025892
    21  H   -0.099407
    22  H   -0.019240
 Sum of Mulliken charges =  -0.00000

 Dipole moment (field-independent basis, Debye):
    X=             -1.1665    Y=             -0.6570    Z=              0.0005  Tot=              1.3388

 Test job not archived.
 1\1\GINC-SE338\SP\RHF\Aug-CC-pVDZ\C8H12O1Si1\OHZDE\09-Apr-2025\0\\#t h
 f aug-cc-pvdz iop(5/13=1,5/36=2,99/5=2) pseudo=read geom=check guess=(
 read,tcheck) scf=(maxcycle=1)\\title\\0,1\C,0,1.107419,-1.2081,0.00008
 8\C,0,2.499605,-1.246407,0.000105\C,0,0.410982,0.011635,-0.000014\C,0,
 1.163527,1.196387,-0.000101\C,0,2.556992,1.163189,-0.000087\C,0,3.2276
 05,-0.057792,0.000017\O,0,-1.824927,1.680529,-0.000339\H,0,0.561351,-2
 .147693,0.000155\H,0,3.01609,-2.200268,0.000185\H,0,4.311894,-0.084286
 ,0.000028\H,0,3.11949,2.090748,-0.000158\H,0,0.647906,2.150083,-0.0001

 Normal termination of Gaussian 16 at Wed Apr  9 00:10:30 2025.
