 Gaussian 16, Revision C.01,

 ----------------------------------------------------------------------
 #t hf aug-cc-pvdz symm=none int=(grid=ultrafine) guess=(read,tcheck) s
 table=(opt,rrhf)
 ----------------------------------------------------------------------
 -----
 title
 -----
 Symbolic Z-matrix:
 Charge =  0 Multiplicity = 1

 SCF Done:  E(RHF) =  -894.248548019     A.U. after   15 cycles
 Normal termination of Gaussian 16 at Tue Apr  8 23:25:05 2025.
 Gaussian 16:  ES64L-G16RevC.01  3-Jul-2019

 ----------------------------------------------------------------------
 #t hf aug-cc-pvdz iop(5/13=1,5/36=2,99/5=2) pseudo=read geom=check gue
 ss=(read,tcheck) scf=(maxcycle=1)
 ----------------------------------------------------------------------
 -----
 title
 -----
 Structure from the checkpoint file:  "BDE49_nonexpt_1196_mol1.chk"
 Charge =  0 Multiplicity = 1

                         Standard orientation:
 ---------------------------------------------------------------------
 Center     Atomic      Atomic             Coordinates (Angstroms)
 Number     Number       Type             X           Y           Z
 ---------------------------------------------------------------------
      1          6           0        2.372232    0.813687   -0.106459
      2          8           0        1.561213    1.589369   -0.511803
      3          8           0        2.267520   -0.564419   -0.243166
      4         16           0        0.847367   -1.183534   -0.923486
      5          6           0       -0.257878   -1.002298    0.487454
      6          8           0        0.095746   -0.498627    1.517858
      7          6           0        3.645806    1.129842    0.630167
      8          1           0        3.821661    2.202921    0.596110
      9          1           0        4.486733    0.586380    0.197375
     10          1           0        3.536702    0.805182    1.667662
     11          6           0       -1.650128   -1.526757    0.194105
     12          6           0       -2.728001   -0.466480    0.483463
     13          1           0       -1.796603   -2.399740    0.839267
     14          1           0       -1.714870   -1.875253   -0.843490
     15          6           0       -2.680020    0.736993   -0.465290
     16          1           0       -2.604402   -0.128647    1.516861
     17          1           0       -3.709851   -0.948019    0.421338
     18          6           0       -3.762276    1.774429   -0.155411
     19          1           0       -2.792900    0.387103   -1.498766
     20          1           0       -1.694292    1.210890   -0.408822
     21          1           0       -4.764365    1.341464   -0.237490
     22          1           0       -3.707688    2.620145   -0.845451
     23          1           0       -3.652242    2.167046    0.859905
 ---------------------------------------------------------------------

 SCF Done:  E(RHF) =  -894.812405022     A.U. after    2 cycles

 The electronic state is 1-A.
 Alpha  occ. eigenvalues --  -94.02744 -20.61640 -20.55773 -20.54766 -11.40274
 Alpha  occ. eigenvalues --  -11.38126 -11.26693 -11.25739 -11.24480 -11.23182
 Alpha  occ. eigenvalues --  -11.22476  -8.30276  -6.28099  -6.27838  -6.27612
 Alpha  occ. eigenvalues --   -1.54783  -1.49865  -1.46524  -1.11021  -1.06995
 Alpha  occ. eigenvalues --   -1.02674  -0.99002  -0.90224  -0.82602  -0.79639
 Alpha  occ. eigenvalues --   -0.74647  -0.70612  -0.69356  -0.67836  -0.65865
 Alpha  occ. eigenvalues --   -0.63828  -0.62683  -0.61915  -0.59428  -0.58860
 Alpha  occ. eigenvalues --   -0.56679  -0.54816  -0.54473  -0.53384  -0.52820
 Alpha  occ. eigenvalues --   -0.49469  -0.48967  -0.48092  -0.47844  -0.45251
 Alpha  occ. eigenvalues --   -0.40987  -0.39632
 Alpha virt. eigenvalues --    0.03214   0.03848   0.03989   0.04146   0.05291
 Alpha virt. eigenvalues --    0.05774   0.06084   0.06338   0.06959   0.07747
 Alpha virt. eigenvalues --    0.08310   0.09342   0.10254   0.10493   0.11440

 Mulliken charges:
               1
     1  C    1.908686
     2  O   -1.198727
     3  O   -1.406105
     4  S    0.896110
     5  C    1.103812
     6  O   -1.407893
     7  C   -0.642482
     8  H    0.200339
     9  H    0.211028
    10  H    0.261754
    11  C   -0.310412
    12  C   -0.366955
    13  H    0.278763
    14  H    0.221701
    15  C   -0.261089
    16  H    0.129577
    17  H    0.104727
    18  C   -0.439177
    19  H    0.117322
    20  H    0.136484
    21  H    0.160556
    22  H    0.126324
    23  H    0.175657
 Sum of Mulliken charges =  -0.00000

 Dipole moment (field-independent basis, Debye):
    X=             -0.3449    Y=             -1.3687    Z=             -0.2795  Tot=              1.4389

 Test job not archived.
 1\1\GINC-SE284\SP\RHF\Aug-CC-pVDZ\C7H12O3S1\OHZDE\08-Apr-2025\0\\#t hf
  aug-cc-pvdz iop(5/13=1,5/36=2,99/5=2) pseudo=read geom=check guess=(r
 ead,tcheck) scf=(maxcycle=1)\\title\\0,1\C,0,2.372232,0.813687,-0.1064
 59\O,0,1.561213,1.589369,-0.511803\O,0,2.26752,-0.564419,-0.243166\S,0
 ,0.847367,-1.183534,-0.923486\C,0,-0.257878,-1.002298,0.487454\O,0,0.0
 95746,-0.498627,1.517858\C,0,3.645806,1.129842,0.630167\H,0,3.821661,2
 .202921,0.59611\H,0,4.486733,0.58638,0.197375\H,0,3.536702,0.805182,1.
 667662\C,0,-1.650128,-1.526757,0.194105\C,0,-2.728001,-0.46648,0.48346

 Normal termination of Gaussian 16 at Tue Apr  8 23:25:20 2025.
