 Gaussian 16, Revision C.01,

 ----------------------------------------------------------------------
 #t hf aug-cc-pvdz symm=none int=(grid=ultrafine) guess=(read,tcheck) s
 table=opt
 ----------------------------------------------------------------------
 -----
 title
 -----
 Symbolic Z-matrix:
 Charge =  0 Multiplicity = 2

 SCF Done:  E(UHF) =  -398.092149068     A.U. after   13 cycles
 Normal termination of Gaussian 16 at Tue Apr  8 22:45:27 2025.
 Gaussian 16:  ES64L-G16RevC.01  3-Jul-2019

 ----------------------------------------------------------------------
 #t hf aug-cc-pvdz iop(5/13=1,5/36=2,99/5=2) pseudo=read geom=check gue
 ss=(read,tcheck) scf=(maxcycle=1)
 ----------------------------------------------------------------------
 -----
 title
 -----
 Structure from the checkpoint file:  "BDE49_expt_1545_mol3.chk"
 Charge =  0 Multiplicity = 2

                         Standard orientation:
 ---------------------------------------------------------------------
 Center     Atomic      Atomic             Coordinates (Angstroms)
 Number     Number       Type             X           Y           Z
 ---------------------------------------------------------------------
      1         16           0        0.000000    0.000000    0.079293
      2          1           0        0.000000    0.000000   -1.268684
 ---------------------------------------------------------------------

 SCF Done:  E(UHF) =  -398.146340762     A.U. after    2 cycles

 Unable to determine electronic state:  an orbital has unidentified symmetry.
 Alpha  occ. eigenvalues --  -93.98888  -8.26866  -6.26088  -6.24303  -6.23985
 Alpha  occ. eigenvalues --   -1.02504  -0.56099  -0.47750  -0.41078
 Alpha virt. eigenvalues --    0.03831   0.10635   0.10927   0.12040   0.18171
 Alpha virt. eigenvalues --    0.18423   0.28857   0.30776   0.35168   0.35184
 Alpha virt. eigenvalues --    0.44263   0.51445   0.53268   0.56155   0.80244

  Beta  occ. eigenvalues --  -93.97994  -8.25840  -6.23801  -6.23447  -6.22093
  Beta  occ. eigenvalues --   -0.93000  -0.54183  -0.38665
  Beta virt. eigenvalues --   -0.01485   0.03982   0.10800   0.12211   0.13966
  Beta virt. eigenvalues --    0.18876   0.19614   0.30916   0.31942   0.39308
  Beta virt. eigenvalues --    0.39338   0.45202   0.53471   0.53845   0.56952

 Mulliken charges and spin densities:
               1          2
     1  S   -0.310666   1.088412
     2  H    0.310666  -0.088412
 Sum of Mulliken charges =  -0.00000   1.00000

 Dipole moment (field-independent basis, Debye):
    X=             -0.0000    Y=             -0.0000    Z=             -0.9354  Tot=              0.9354
                          Isotropic Fermi Contact Couplings
        Atom                 a.u.       MegaHertz       Gauss      10(-4) cm-1
     1  S(33)              0.17135      58.85521      21.00100      19.63198
     2  H(1)              -0.01359     -60.74746     -21.67620     -20.26317
 --------------------------------------------------------
       Center         ----  Spin Dipole Couplings  ----
                      3XX-RR        3YY-RR        3ZZ-RR
 --------------------------------------------------------
     1   Atom        1.473630      0.552149     -2.025779
     2   Atom       -0.017235     -0.024210      0.041445

 Normal termination of Gaussian 16 at Tue Apr  8 22:45:29 2025.
