 Gaussian 16, Revision C.01,

 ----------------------------------------------------------------------
 #t hf aug-cc-pvdz symm=none int=(grid=ultrafine) guess=(read,tcheck) s
 table=(opt,rrhf)
 ----------------------------------------------------------------------
 -----
 title
 -----
 Symbolic Z-matrix:
 Charge =  0 Multiplicity = 1

 SCF Done:  E(RHF) =  -713.605418276     A.U. after   14 cycles
 Normal termination of Gaussian 16 at Wed Apr  9 00:32:46 2025.
 Gaussian 16:  ES64L-G16RevC.01  3-Jul-2019

 ----------------------------------------------------------------------
 #t hf aug-cc-pvdz iop(5/13=1,5/36=2,99/5=2) pseudo=read geom=check gue
 ss=(read,tcheck) scf=(maxcycle=1)
 ----------------------------------------------------------------------
 -----
 title
 -----
 Structure from the checkpoint file:  "BDE49_nonexpt_395_mol1.chk"
 Charge =  0 Multiplicity = 1

                         Standard orientation:
 ---------------------------------------------------------------------
 Center     Atomic      Atomic             Coordinates (Angstroms)
 Number     Number       Type             X           Y           Z
 ---------------------------------------------------------------------
      1          9           0       -2.216691    1.135746   -0.000036
      2          9           0       -2.216802   -1.135695   -0.000036
      3          5           0       -1.541114   -0.000008    0.000070
      4          7           0       -0.129272   -0.000080    0.000067
      5          6           0        1.063677    0.000064    0.000026
      6         16           0        2.633115   -0.000015   -0.000021
 ---------------------------------------------------------------------

 SCF Done:  E(RHF) =  -713.950853738     A.U. after    2 cycles

 The electronic state is 1-A.
 Alpha  occ. eigenvalues --  -93.97708 -26.50179 -26.50179 -15.56147 -11.42508
 Alpha  occ. eigenvalues --   -8.25996  -7.78401  -6.23883  -6.23452  -6.23424
 Alpha  occ. eigenvalues --   -1.65521  -1.61663  -1.31593  -1.10591  -0.94766
 Alpha  occ. eigenvalues --   -0.81444  -0.77701  -0.72475  -0.67904  -0.65582
 Alpha  occ. eigenvalues --   -0.65294  -0.63703  -0.62610  -0.61621  -0.41625
 Alpha  occ. eigenvalues --   -0.41158
 Alpha virt. eigenvalues --    0.04171   0.04467   0.05574   0.05578   0.05712
 Alpha virt. eigenvalues --    0.06986   0.08684   0.12089   0.12485   0.13975
 Alpha virt. eigenvalues --    0.14800   0.15194   0.16563   0.20353   0.21826

 Mulliken charges:
               1
     1  F   -0.588924
     2  F   -0.588940
     3  B    1.277887
     4  N    0.484808
     5  C   -0.972159
     6  S    0.387328
 Sum of Mulliken charges =  -0.00000

 Dipole moment (field-independent basis, Debye):
    X=              0.3969    Y=              0.0001    Z=              0.0003  Tot=              0.3969

 Test job not archived.
 1\1\GINC-SE322\SP\RHF\Aug-CC-pVDZ\C1B1F2N1S1\OHZDE\09-Apr-2025\0\\#t h
 f aug-cc-pvdz iop(5/13=1,5/36=2,99/5=2) pseudo=read geom=check guess=(
 read,tcheck) scf=(maxcycle=1)\\title\\0,1\F,0,-2.216691,1.135746,-0.00
 0036\F,0,-2.216802,-1.135695,-0.000036\B,0,-1.541114,-0.000008,0.00007
 \N,0,-0.129272,-0.00008,0.000067\C,0,1.063677,0.000064,0.000026\S,0,2.
 633115,-0.000015,-0.000021\\Version=ES64L-G16RevC.01\State=1-A\HF=-713
 .9508537\RMSD=1.401e-02\Dipole=0.1561373,0.0000504,0.0001275\Quadrupol
 e=-0.6310907,-1.162459,1.7935497,-0.0001496,-0.0005529,0.\PG=C01 [X(C1

 Normal termination of Gaussian 16 at Wed Apr  9 00:32:54 2025.
