 Gaussian 16, Revision C.01,

 ----------------------------------------------------------------------
 #t hf aug-cc-pvdz symm=none int=(grid=ultrafine) guess=(read,tcheck) s
 table=(opt,rrhf)
 ----------------------------------------------------------------------
 -----
 title
 -----
 Symbolic Z-matrix:
 Charge =  0 Multiplicity = 1

 SCF Done:  E(RHF) =  -870.737741443     A.U. after   11 cycles
 Normal termination of Gaussian 16 at Tue Apr  8 23:10:15 2025.
 Gaussian 16:  ES64L-G16RevC.01  3-Jul-2019

 ----------------------------------------------------------------------
 #t hf aug-cc-pvdz iop(5/13=1,5/36=2,99/5=2) pseudo=read geom=check gue
 ss=(read,tcheck) scf=(maxcycle=1)
 ----------------------------------------------------------------------
 -----
 title
 -----
 Structure from the checkpoint file:  "BDE49_expt_455_mol1.chk"
 Charge =  0 Multiplicity = 1

                         Standard orientation:
 ---------------------------------------------------------------------
 Center     Atomic      Atomic             Coordinates (Angstroms)
 Number     Number       Type             X           Y           Z
 ---------------------------------------------------------------------
      1          7           0       -0.000001   -0.000001    0.758081
      2         14           0        1.605305    0.008752    0.076777
      3          6           0        1.675345    1.151490   -1.417172
      4          1           0        0.993321    0.833200   -2.211495
      5          1           0        2.683623    1.163722   -1.843714
      6          1           0        1.414149    2.177622   -1.143279
      7          6           0        2.151955   -1.712091   -0.461191
      8          1           0        1.491922   -2.116938   -1.234267
      9          1           0        2.139106   -2.409758    0.381936
     10          1           0        3.168901   -1.697572   -0.867565
     11          6           0        2.775758    0.627991    1.414757
     12          1           0        2.525910    1.647546    1.723042
     13          1           0        3.810844    0.631010    1.059186
     14          1           0        2.740298   -0.010311    2.303939
     15         14           0       -1.605306   -0.008752    0.076776
     16          6           0       -2.151973    1.712099   -0.461150
     17          1           0       -2.139132    2.409745    0.381993
     18          1           0       -3.168918    1.697580   -0.867526
     19          1           0       -1.491941    2.116972   -1.234215
     20          6           0       -2.775755   -0.628035    1.414738
     21          1           0       -2.740302    0.010244    2.303936
     22          1           0       -2.525899   -1.647596    1.722998
     23          1           0       -3.810841   -0.631054    1.059166
     24          6           0       -1.675329   -1.151454   -1.417202
     25          1           0       -0.993306   -0.833137   -2.211514
     26          1           0       -2.683606   -1.163684   -1.843746
     27          1           0       -1.414124   -2.177590   -1.143333
     28          1           0        0.000000    0.000005    1.771476
 ---------------------------------------------------------------------

 SCF Done:  E(RHF) =  -871.132625086     A.U. after    2 cycles

 The electronic state is 1-A.
 Alpha  occ. eigenvalues --  -69.51927 -69.51927 -15.44810 -11.20491 -11.20487
 Alpha  occ. eigenvalues --  -11.20404 -11.20399 -11.20029 -11.20027  -6.18701
 Alpha  occ. eigenvalues --   -6.18620  -3.94082  -3.94039  -3.94014  -3.94012
 Alpha  occ. eigenvalues --   -3.93970  -3.93968  -1.11951  -0.96573  -0.96432
 Alpha  occ. eigenvalues --   -0.92648  -0.92503  -0.92203  -0.92065  -0.69654
 Alpha  occ. eigenvalues --   -0.67876  -0.59395  -0.57852  -0.56907  -0.56742
 Alpha  occ. eigenvalues --   -0.56072  -0.56069  -0.55319  -0.54484  -0.54032
 Alpha  occ. eigenvalues --   -0.53786  -0.53698  -0.53244  -0.52980  -0.49544
 Alpha  occ. eigenvalues --   -0.47989  -0.43545  -0.43541  -0.43455  -0.39013
 Alpha virt. eigenvalues --    0.03167   0.03410   0.03819   0.03871   0.04865
 Alpha virt. eigenvalues --    0.05043   0.05338   0.05548   0.05626   0.07876
 Alpha virt. eigenvalues --    0.07959   0.08110   0.08302   0.08825   0.09364

 Mulliken charges:
               1
     1  N    0.171470
     2  Si   2.093280
     3  C   -0.627190
     4  H   -0.049754
     5  H   -0.053626
     6  H    0.008205
     7  C   -0.584836
     8  H   -0.072873
     9  H   -0.054881
    10  H   -0.008370
    11  C   -0.582582
    12  H   -0.045037
    13  H   -0.056560
    14  H   -0.026496
    15  Si   2.093271
    16  C   -0.584833
    17  H   -0.054884
    18  H   -0.008374
    19  H   -0.072868
    20  C   -0.582582
    21  H   -0.026497
    22  H   -0.045036
    23  H   -0.056560
    24  C   -0.627186
    25  H   -0.049755
    26  H   -0.053630
    27  H    0.008211
    28  H   -0.050024
 Sum of Mulliken charges =  -0.00000

 Dipole moment (field-independent basis, Debye):
    X=              0.0000    Y=              0.0000    Z=              0.3330  Tot=              0.3330

 Test job not archived.
 1\1\GINC-SE082\SP\RHF\Aug-CC-pVDZ\C6H19N1Si2\OHZDE\08-Apr-2025\0\\#t h
 f aug-cc-pvdz iop(5/13=1,5/36=2,99/5=2) pseudo=read geom=check guess=(
 read,tcheck) scf=(maxcycle=1)\\title\\0,1\N,0,-0.000001,-0.000001,0.75
 8081\Si,0,1.605305,0.008752,0.076777\C,0,1.675345,1.15149,-1.417172\H,
 0,0.993321,0.8332,-2.211495\H,0,2.683623,1.163722,-1.843714\H,0,1.4141
 49,2.177622,-1.143279\C,0,2.151955,-1.712091,-0.461191\H,0,1.491922,-2
 .116938,-1.234267\H,0,2.139106,-2.409758,0.381936\H,0,3.168901,-1.6975
 72,-0.867565\C,0,2.775758,0.627991,1.414757\H,0,2.52591,1.647546,1.723

 Normal termination of Gaussian 16 at Tue Apr  8 23:10:37 2025.
