 Gaussian 16, Revision C.01,

 ----------------------------------------------------------------------
 #t hf aug-cc-pvdz symm=none int=(grid=ultrafine) guess=(read,tcheck) s
 table=opt
 ----------------------------------------------------------------------
 -----
 title
 -----
 Symbolic Z-matrix:
 Charge =  0 Multiplicity = 2

 SCF Done:  E(UHF) =  -351.367025374     A.U. after   21 cycles
 Normal termination of Gaussian 16 at Wed Apr  9 00:32:23 2025.
 Gaussian 16:  ES64L-G16RevC.01  3-Jul-2019

 ----------------------------------------------------------------------
 #t hf aug-cc-pvdz iop(5/13=1,5/36=2,99/5=2) pseudo=read geom=check gue
 ss=(read,tcheck) scf=(maxcycle=1)
 ----------------------------------------------------------------------
 -----
 title
 -----
 Structure from the checkpoint file:  "BDE49_nonexpt_378_mol2.chk"
 Charge =  0 Multiplicity = 2

                         Standard orientation:
 ---------------------------------------------------------------------
 Center     Atomic      Atomic             Coordinates (Angstroms)
 Number     Number       Type             X           Y           Z
 ---------------------------------------------------------------------
      1          9           0        2.480180   -0.372452    0.292042
      2          5           0        1.490830   -0.181693   -0.535701
      3          6           0        0.029062    0.266336   -0.136912
      4          8           0       -0.231847    1.434590    0.045536
      5          8           0       -0.869025   -0.734109   -0.122806
      6          6           0       -2.237952   -0.353361    0.144508
      7          1           0       -2.807893   -1.277844    0.100123
      8          1           0       -2.587518    0.353447   -0.609001
      9          1           0       -2.320047    0.103229    1.131594
 ---------------------------------------------------------------------

 SCF Done:  E(UHF) =  -351.699764416     A.U. after    2 cycles

 The electronic state is 2-A.
 Alpha  occ. eigenvalues --  -26.51141 -20.60749 -20.55625 -11.39230 -11.30911
 Alpha  occ. eigenvalues --   -7.71974  -1.64442  -1.55567  -1.46732  -1.00213
 Alpha  occ. eigenvalues --   -0.86201  -0.79682  -0.75381  -0.71026  -0.69796
 Alpha  occ. eigenvalues --   -0.68377  -0.67999  -0.60762  -0.57147  -0.54293
 Alpha  occ. eigenvalues --   -0.47860  -0.47011  -0.37778
 Alpha virt. eigenvalues --    0.03486   0.04158   0.04736   0.05330   0.06008
 Alpha virt. eigenvalues --    0.06946   0.07077   0.09144   0.12163   0.13570
 Alpha virt. eigenvalues --    0.14153   0.14810   0.15843   0.16241   0.17982

  Beta  occ. eigenvalues --  -26.50820 -20.60744 -20.55336 -11.39016 -11.30909
  Beta  occ. eigenvalues --   -7.70012  -1.63573  -1.55360  -1.46196  -0.99833
  Beta  occ. eigenvalues --   -0.84301  -0.78911  -0.74222  -0.69576  -0.68672
  Beta  occ. eigenvalues --   -0.68309  -0.67175  -0.60039  -0.56103  -0.53929
  Beta  occ. eigenvalues --   -0.46500  -0.45392
  Beta virt. eigenvalues --    0.03214   0.03758   0.04567   0.05009   0.06201
  Beta virt. eigenvalues --    0.06536   0.06973   0.08921   0.11663   0.12545
  Beta virt. eigenvalues --    0.13921   0.15082   0.15480   0.16146   0.17376

 Mulliken charges and spin densities:
               1          2
     1  F   -0.438234  -0.030868
     2  B    0.468161   0.964902
     3  C    1.505686  -0.023047
     4  O   -1.020403   0.077909
     5  O   -1.129188   0.010469
     6  C    0.279935   0.000996
     7  H    0.006749   0.000489
     8  H    0.163333   0.000194
     9  H    0.163961  -0.001043
 Sum of Mulliken charges =  -0.00000   1.00000

 Dipole moment (field-independent basis, Debye):
    X=             -1.4596    Y=             -1.6212    Z=             -0.0382  Tot=              2.1818
                          Isotropic Fermi Contact Couplings
        Atom                 a.u.       MegaHertz       Gauss      10(-4) cm-1
     1  F(19)              0.06555     275.81081      98.41616      92.00058
     2  B(11)              0.33912     486.41849     173.56621     162.25174
     3  C(13)              0.07193      80.86672      28.85526      26.97423
     4  O(17)              0.02173     -13.17206      -4.70012      -4.39373
     5  O(17)             -0.00036       0.21738       0.07757       0.07251
     6  C(13)              0.00010       0.11295       0.04030       0.03768
     7  H(1)               0.00007       0.31427       0.11214       0.10483
     8  H(1)               0.00015       0.65604       0.23409       0.21883

 Normal termination of Gaussian 16 at Wed Apr  9 00:32:26 2025.
