 Gaussian 16, Revision C.01,

 ----------------------------------------------------------------------
 #t hf aug-cc-pvdz symm=none int=(grid=ultrafine) guess=(read,tcheck) s
 table=(opt,rrhf)
 ----------------------------------------------------------------------
 -----
 title
 -----
 Symbolic Z-matrix:
 Charge =  0 Multiplicity = 1

 SCF Done:  E(RHF) =  -795.948727369     A.U. after   18 cycles
 Normal termination of Gaussian 16 at Tue Apr  8 22:55:03 2025.
 Gaussian 16:  ES64L-G16RevC.01  3-Jul-2019

 ----------------------------------------------------------------------
 #t hf aug-cc-pvdz iop(5/13=1,5/36=2,99/5=2) pseudo=read geom=check gue
 ss=(read,tcheck) scf=(maxcycle=1)
 ----------------------------------------------------------------------
 -----
 title
 -----
 Structure from the checkpoint file:  "BDE49_expt_1829_mol1.chk"
 Charge =  0 Multiplicity = 1

                         Standard orientation:
 ---------------------------------------------------------------------
 Center     Atomic      Atomic             Coordinates (Angstroms)
 Number     Number       Type             X           Y           Z
 ---------------------------------------------------------------------
      1          7           0       -2.911035    0.000016    0.885260
      2          8           0       -2.136779   -0.000371    1.754075
      3         16           0       -2.170237    0.000118   -0.917284
      4          6           0       -0.441453    0.000074   -0.564212
      5          6           0        0.249274   -1.207151   -0.397667
      6          6           0        1.604502   -1.200561   -0.089562
      7          6           0        2.305444    0.000003    0.071319
      8          6           0        1.604491    1.200609   -0.089222
      9          6           0        0.249263    1.207255   -0.397325
     10          1           0       -0.278931   -2.144958   -0.520256
     11          1           0        2.127322   -2.144217    0.027757
     12          6           0        3.769220   -0.000055    0.435783
     13          1           0       -0.278952    2.145097   -0.519608
     14          1           0        4.277469    0.884888    0.046704
     15          1           0        4.277620   -0.884522    0.045813
     16          1           0        3.899011   -0.000598    1.523642
     17          1           0        2.127288    2.144241    0.028391
 ---------------------------------------------------------------------

 SCF Done:  E(RHF) =  -796.400065361     A.U. after    2 cycles

 The electronic state is 1-A.
 Alpha  occ. eigenvalues --  -93.97585 -20.65794 -15.69930 -11.27553 -11.26725
 Alpha  occ. eigenvalues --  -11.26158 -11.26148 -11.24981 -11.24980 -11.24654
 Alpha  occ. eigenvalues --   -8.25482  -6.23245  -6.23081  -6.22865  -1.66451
 Alpha  occ. eigenvalues --   -1.17793  -1.09613  -1.03439  -1.03102  -0.96245
 Alpha  occ. eigenvalues --   -0.89898  -0.85342  -0.80942  -0.73518  -0.72134
 Alpha  occ. eigenvalues --   -0.67931  -0.67615  -0.65996  -0.64370  -0.61186
 Alpha  occ. eigenvalues --   -0.59425  -0.56270  -0.55752  -0.51716  -0.51315
 Alpha  occ. eigenvalues --   -0.49099  -0.40262  -0.38543  -0.35894  -0.34280
 Alpha virt. eigenvalues --    0.03218   0.03467   0.03884   0.04557   0.05486
 Alpha virt. eigenvalues --    0.05536   0.05908   0.06001   0.08407   0.08574
 Alpha virt. eigenvalues --    0.09040   0.09425   0.09851   0.12769   0.13227

 Mulliken charges:
               1
     1  N    0.657120
     2  O   -0.884278
     3  S    0.134888
     4  C    0.606483
     5  C   -0.457784
     6  C    0.788507
     7  C    0.107462
     8  C    0.788404
     9  C   -0.457802
    10  H   -0.214738
    11  H   -0.296889
    12  C   -0.812112
    13  H   -0.214716
    14  H    0.134645
    15  H    0.134793
    16  H    0.282903
    17  H   -0.296885
 Sum of Mulliken charges =  -0.00000

 Dipole moment (field-independent basis, Debye):
    X=              3.4712    Y=             -0.0002    Z=              0.1472  Tot=              3.4743

 Test job not archived.
 1\1\GINC-SE073\SP\RHF\Aug-CC-pVDZ\C7H7N1O1S1\OHZDE\08-Apr-2025\0\\#t h
 f aug-cc-pvdz iop(5/13=1,5/36=2,99/5=2) pseudo=read geom=check guess=(
 read,tcheck) scf=(maxcycle=1)\\title\\0,1\N,0,-2.911035,0.000016,0.885
 26\O,0,-2.136779,-0.000371,1.754075\S,0,-2.170237,0.000118,-0.917284\C
 ,0,-0.441453,0.000074,-0.564212\C,0,0.249274,-1.207151,-0.397667\C,0,1
 .604502,-1.200561,-0.089562\C,0,2.305444,0.000003,0.071319\C,0,1.60449
 1,1.200609,-0.089222\C,0,0.249263,1.207255,-0.397325\H,0,-0.278931,-2.
 144958,-0.520256\H,0,2.127322,-2.144217,0.027757\C,0,3.76922,-0.000055

 Normal termination of Gaussian 16 at Tue Apr  8 22:55:12 2025.
