 Gaussian 16, Revision C.01,

 ----------------------------------------------------------------------
 #t hf aug-cc-pvdz symm=none int=(grid=ultrafine) guess=(read,tcheck) s
 table=opt
 ----------------------------------------------------------------------
 -----
 title
 -----
 Symbolic Z-matrix:
 Charge =  0 Multiplicity = 2

 SCF Done:  E(UHF) =  -428.525053469     A.U. after   14 cycles
 Normal termination of Gaussian 16 at Tue Apr  8 23:56:20 2025.
 Gaussian 16:  ES64L-G16RevC.01  3-Jul-2019

 ----------------------------------------------------------------------
 #t hf aug-cc-pvdz iop(5/13=1,5/36=2,99/5=2) pseudo=read geom=check gue
 ss=(read,tcheck) scf=(maxcycle=1)
 ----------------------------------------------------------------------
 -----
 title
 -----
 Structure from the checkpoint file:  "BDE49_nonexpt_2016_mol2.chk"
 Charge =  0 Multiplicity = 2

                         Standard orientation:
 ---------------------------------------------------------------------
 Center     Atomic      Atomic             Coordinates (Angstroms)
 Number     Number       Type             X           Y           Z
 ---------------------------------------------------------------------
      1         14           0       -1.133423   -0.139679   -0.100838
      2          6           0        0.612578    0.594527    0.099901
      3          9           0        1.571992   -0.417373   -0.066912
      4          1           0        0.743607    1.020778    1.101780
      5          1           0        0.809604    1.382156   -0.633604
      6          1           0       -1.369553   -1.204629    0.906299
      7          1           0       -2.139130    0.946402    0.040066
 ---------------------------------------------------------------------

 SCF Done:  E(UHF) =  -428.688696266     A.U. after    2 cycles

 The electronic state is 2-A.
 Alpha  occ. eigenvalues --  -69.54807 -26.44839 -11.31711  -6.22005  -3.97953
 Alpha  occ. eigenvalues --   -3.97047  -3.97030  -1.56354  -0.95275  -0.74831
 Alpha  occ. eigenvalues --   -0.68748  -0.67271  -0.62681  -0.53502  -0.50216
 Alpha  occ. eigenvalues --   -0.46627  -0.34774
 Alpha virt. eigenvalues --    0.03530   0.04319   0.04712   0.06263   0.07561
 Alpha virt. eigenvalues --    0.08556   0.08943   0.11039   0.14050   0.15195
 Alpha virt. eigenvalues --    0.15683   0.16526   0.18164   0.19078   0.21664

  Beta  occ. eigenvalues --  -69.54231 -26.44862 -11.31686  -6.21128  -3.96645
  Beta  occ. eigenvalues --   -3.96637  -3.95759  -1.56393  -0.94670  -0.71329
  Beta  occ. eigenvalues --   -0.68444  -0.67171  -0.61742  -0.53079  -0.49313
  Beta  occ. eigenvalues --   -0.45934
  Beta virt. eigenvalues --    0.01957   0.03679   0.04536   0.05306   0.06837
  Beta virt. eigenvalues --    0.07746   0.09243   0.09754   0.11283   0.15002
  Beta virt. eigenvalues --    0.15974   0.16482   0.16933   0.20192   0.21077

 Mulliken charges and spin densities:
               1          2
     1  Si   0.852993   0.967269
     2  C    0.038144   0.002393
     3  F   -0.655845  -0.007851
     4  H    0.059485   0.005732
     5  H    0.068423   0.006276
     6  H   -0.183887   0.018865
     7  H   -0.179313   0.007316
 Sum of Mulliken charges =  -0.00000   1.00000

 Dipole moment (field-independent basis, Debye):
    X=             -0.9965    Y=              1.4027    Z=              0.2945  Tot=              1.7456
                          Isotropic Fermi Contact Couplings
        Atom                 a.u.       MegaHertz       Gauss      10(-4) cm-1
     1  Si(29)             0.61436    -545.99708    -194.82534    -182.12502
     2  C(13)              0.00011       0.11958       0.04267       0.03989
     3  F(19)             -0.00126      -5.30352      -1.89243      -1.76907
     4  H(1)               0.00804      35.92060      12.81736      11.98182
     5  H(1)               0.00035       1.58262       0.56472       0.52790
     6  H(1)               0.00501      22.39690       7.99177       7.47080
     7  H(1)               0.00201       9.00051       3.21161       3.00225
 --------------------------------------------------------

 Normal termination of Gaussian 16 at Tue Apr  8 23:56:22 2025.
