 Gaussian 16, Revision C.01,

 ----------------------------------------------------------------------
 #t hf aug-cc-pvdz symm=none int=(grid=ultrafine) guess=(read,tcheck) s
 table=opt
 ----------------------------------------------------------------------
 -----
 title
 -----
 Symbolic Z-matrix:
 Charge =  0 Multiplicity = 2

 SCF Done:  E(UHF) =  -1514.33834774     A.U. after   18 cycles
 Normal termination of Gaussian 16 at Tue Apr  8 23:25:29 2025.
 Gaussian 16:  ES64L-G16RevC.01  3-Jul-2019

 ----------------------------------------------------------------------
 #t hf aug-cc-pvdz iop(5/13=1,5/36=2,99/5=2) pseudo=read geom=check gue
 ss=(read,tcheck) scf=(maxcycle=1)
 ----------------------------------------------------------------------
 -----
 title
 -----
 Structure from the checkpoint file:  "BDE49_nonexpt_1243_mol2.chk"
 Charge =  0 Multiplicity = 2

                         Standard orientation:
 ---------------------------------------------------------------------
 Center     Atomic      Atomic             Coordinates (Angstroms)
 Number     Number       Type             X           Y           Z
 ---------------------------------------------------------------------
      1         15           0       -0.000002    1.401874   -0.000172
      2         16           0        1.703737   -0.041456   -0.168917
      3         16           0       -1.703765   -0.041388    0.168917
      4          8           0        1.349274   -1.067150   -1.139461
      5          8           0        2.853491    0.816374   -0.393069
      6          8           0       -1.349489   -1.066628    1.140009
      7          8           0       -2.853569    0.816539    0.392444
      8          6           0        1.869700   -0.822008    1.438348
      9          1           0        2.692805   -1.531872    1.331999
     10          1           0        0.934719   -1.327346    1.674093
     11          1           0        2.116609   -0.053303    2.169441
     12          6           0       -1.869406   -0.822693   -1.438014
     13          1           0       -0.934372   -1.328134   -1.673337
     14          1           0       -2.116175   -0.054332   -2.169516
     15          1           0       -2.692525   -1.532515   -1.331497
 ---------------------------------------------------------------------

 SCF Done:  E(UHF) =  -1514.88193747     A.U. after    2 cycles

 The electronic state is 2-A.
 Alpha  occ. eigenvalues --  -94.21219 -94.21218 -84.37776 -20.56207 -20.56206
 Alpha  occ. eigenvalues --  -20.55929 -20.55928 -11.30227 -11.30225  -8.46640
 Alpha  occ. eigenvalues --   -8.46632  -6.84830  -6.44725  -6.44724  -6.44476
 Alpha  occ. eigenvalues --   -6.44475  -6.44404  -6.44401  -4.37209  -4.36523
 Alpha  occ. eigenvalues --   -4.36059  -1.57464  -1.57325  -1.45788  -1.45665
 Alpha  occ. eigenvalues --   -1.08791  -1.08074  -0.97748  -0.87967  -0.81340
 Alpha  occ. eigenvalues --   -0.71839  -0.69682  -0.69362  -0.67976  -0.67752
 Alpha  occ. eigenvalues --   -0.65993  -0.62781  -0.62590  -0.61948  -0.58945
 Alpha  occ. eigenvalues --   -0.52324  -0.51610  -0.50417  -0.50020  -0.48772
 Alpha  occ. eigenvalues --   -0.48613  -0.41961  -0.40813  -0.40490
 Alpha virt. eigenvalues --    0.03189   0.03845   0.04619   0.04793   0.05708
 Alpha virt. eigenvalues --    0.06181   0.06743   0.07056   0.09093   0.10330
 Alpha virt. eigenvalues --    0.10365   0.11777   0.11870   0.13356   0.13854

  Beta  occ. eigenvalues --  -94.21260 -94.21260 -84.37041 -20.56190 -20.56189
  Beta  occ. eigenvalues --  -20.55978 -20.55977 -11.30230 -11.30228  -8.46693
  Beta  occ. eigenvalues --   -8.46685  -6.83907  -6.44747  -6.44746  -6.44582
  Beta  occ. eigenvalues --   -6.44580  -6.44477  -6.44476  -4.35906  -4.35581
  Beta  occ. eigenvalues --   -4.33700  -1.57480  -1.57363  -1.45816  -1.45689
  Beta  occ. eigenvalues --   -1.08362  -1.08083  -0.94469  -0.88123  -0.79162
  Beta  occ. eigenvalues --   -0.71722  -0.69383  -0.69277  -0.67877  -0.67787
  Beta  occ. eigenvalues --   -0.64272  -0.62777  -0.62271  -0.61944  -0.57654
  Beta  occ. eigenvalues --   -0.52460  -0.51523  -0.50439  -0.49882  -0.48683
  Beta  occ. eigenvalues --   -0.48456  -0.41226  -0.39682
  Beta virt. eigenvalues --   -0.02504   0.03281   0.04042   0.04818   0.05033
  Beta virt. eigenvalues --    0.05975   0.06731   0.06992   0.07089   0.09696
  Beta virt. eigenvalues --    0.11227   0.11448   0.12048   0.12050   0.13371

 Mulliken charges and spin densities:
               1          2
     1  P    0.720094   1.219694
     2  S    2.921290  -0.079975
     3  S    2.921258  -0.079980
     4  O   -1.582137  -0.008443
     5  O   -1.499245  -0.004279
     6  O   -1.582074  -0.008439
     7  O   -1.499245  -0.004275
     8  C   -0.866580  -0.016220
     9  H    0.251053   0.001114
    10  H    0.203462  -0.000702
    11  H    0.212076  -0.001341
    12  C   -0.866548  -0.016226
    13  H    0.203475  -0.000699
    14  H    0.212073  -0.001341
    15  H    0.251047   0.001113
 Sum of Mulliken charges =  -0.00000   1.00000

 Dipole moment (field-independent basis, Debye):
    X=              0.0010    Y=              0.1883    Z=              0.0004  Tot=              0.1883
                          Isotropic Fermi Contact Couplings
        Atom                 a.u.       MegaHertz       Gauss      10(-4) cm-1
     1  P(31)              0.17573     318.26802     113.56595     106.16279
     2  S(33)             -0.03990     -13.70618      -4.89071      -4.57189
     3  S(33)             -0.03990     -13.70479      -4.89021      -4.57142
     4  O(17)              0.00318      -1.92757      -0.68780      -0.64297
     5  O(17)             -0.00291       1.76148       0.62854       0.58757
     6  O(17)              0.00318      -1.93007      -0.68870      -0.64380
     7  O(17)             -0.00291       1.76216       0.62878       0.58779
     8  C(13)              0.00123       1.38298       0.49348       0.46131

 Normal termination of Gaussian 16 at Tue Apr  8 23:25:38 2025.
