 Gaussian 16, Revision C.01,

 ----------------------------------------------------------------------
 #t hf aug-cc-pvdz symm=none int=(grid=ultrafine) guess=(read,tcheck) s
 table=opt
 ----------------------------------------------------------------------
 -----
 title
 -----
 Symbolic Z-matrix:
 Charge =  0 Multiplicity = 2

 SCF Done:  E(UHF) =  -801.716575000     A.U. after   21 cycles
 Normal termination of Gaussian 16 at Tue Apr  8 23:11:38 2025.
 Gaussian 16:  ES64L-G16RevC.01  3-Jul-2019

 ----------------------------------------------------------------------
 #t hf aug-cc-pvdz iop(5/13=1,5/36=2,99/5=2) pseudo=read geom=check gue
 ss=(read,tcheck) scf=(maxcycle=1)
 ----------------------------------------------------------------------
 -----
 title
 -----
 Structure from the checkpoint file:  "BDE49_expt_685_mol2.chk"
 Charge =  0 Multiplicity = 2

                         Standard orientation:
 ---------------------------------------------------------------------
 Center     Atomic      Atomic             Coordinates (Angstroms)
 Number     Number       Type             X           Y           Z
 ---------------------------------------------------------------------
      1          6           0        1.275729   -0.122907   -0.007331
      2          7           0        0.006752    0.600486   -0.052671
      3          6           0       -1.287658   -0.098532   -0.002719
      4          8           0        0.050748    1.869123   -0.011509
      5          9           0        1.055911   -1.424446   -0.196651
      6          9           0        1.871541    0.051289    1.172458
      7          9           0        2.082272    0.335227   -0.957514
      8          9           0       -1.468906   -0.832459   -1.103804
      9          9           0       -1.338519   -0.913980    1.056156
     10          9           0       -2.244707    0.803508    0.087252
 ---------------------------------------------------------------------

 SCF Done:  E(UHF) =  -802.444079787     A.U. after    2 cycles

 The electronic state is 2-A.
 Alpha  occ. eigenvalues --  -26.55288 -26.55071 -26.54570 -26.54458 -26.54430
 Alpha  occ. eigenvalues --  -26.54243 -20.68036 -15.66901 -11.60020 -11.59833
 Alpha  occ. eigenvalues --   -1.77205  -1.75975  -1.66829  -1.66299  -1.65746
 Alpha  occ. eigenvalues --   -1.65697  -1.63271  -1.24714  -1.05054  -0.95358
 Alpha  occ. eigenvalues --   -0.91126  -0.88377  -0.87227  -0.85552  -0.85200
 Alpha  occ. eigenvalues --   -0.81297  -0.78111  -0.73352  -0.73011  -0.72628
 Alpha  occ. eigenvalues --   -0.71383  -0.69810  -0.68553  -0.68272  -0.67580
 Alpha  occ. eigenvalues --   -0.67196  -0.66644  -0.66037  -0.65553  -0.55907
 Alpha  occ. eigenvalues --   -0.51225
 Alpha virt. eigenvalues --    0.07861   0.08069   0.08610   0.08727   0.10221
 Alpha virt. eigenvalues --    0.10697   0.10751   0.14989   0.18612   0.18910
 Alpha virt. eigenvalues --    0.22587   0.23039   0.23988   0.24509   0.25988

  Beta  occ. eigenvalues --  -26.55299 -26.55083 -26.54521 -26.54441 -26.54392
  Beta  occ. eigenvalues --  -26.54201 -20.64367 -15.65785 -11.60133 -11.59938
  Beta  occ. eigenvalues --   -1.77068  -1.75950  -1.66684  -1.66286  -1.65631
  Beta  occ. eigenvalues --   -1.65584  -1.55284  -1.19424  -1.04852  -0.94777
  Beta  occ. eigenvalues --   -0.90923  -0.86642  -0.86542  -0.85428  -0.85193
  Beta  occ. eigenvalues --   -0.79132  -0.73135  -0.72915  -0.72878  -0.72518
  Beta  occ. eigenvalues --   -0.68524  -0.68376  -0.68126  -0.67615  -0.67165
  Beta  occ. eigenvalues --   -0.66470  -0.65997  -0.65511  -0.58217  -0.52610
  Beta virt. eigenvalues --    0.06319   0.07871   0.08071   0.08690   0.08802
  Beta virt. eigenvalues --    0.10236   0.10714   0.10763   0.15157   0.18761
  Beta virt. eigenvalues --    0.20335   0.22667   0.23190   0.24247   0.24720

 Mulliken charges and spin densities:
               1          2
     1  C    2.026995  -0.031854
     2  N    1.235463   0.183204
     3  C    2.247148  -0.041942
     4  O   -1.189341   0.876472
     5  F   -0.761430  -0.001024
     6  F   -0.734502   0.005809
     7  F   -0.725186   0.002258
     8  F   -0.722703   0.003328
     9  F   -0.758366   0.004581
    10  F   -0.618078  -0.000832
 Sum of Mulliken charges =  -0.00000   1.00000

 Dipole moment (field-independent basis, Debye):
    X=             -0.1309    Y=             -0.3848    Z=             -0.0242  Tot=              0.4072
                          Isotropic Fermi Contact Couplings
        Atom                 a.u.       MegaHertz       Gauss      10(-4) cm-1
     1  C(13)             -0.01948     -21.90458      -7.81610      -7.30658
     2  N(14)              0.10713      34.61367      12.35102      11.54588
     3  C(13)             -0.02182     -24.53287      -8.75394      -8.18328
     4  O(17)              0.27021    -163.80220     -58.44870     -54.63853
     5  F(19)             -0.00242     -10.20041      -3.63976      -3.40249
     6  F(19)              0.00404      17.00416       6.06751       5.67198
     7  F(19)              0.00023       0.98749       0.35236       0.32939
     8  F(19)              0.00670      28.18132      10.05579       9.40027

 Normal termination of Gaussian 16 at Tue Apr  8 23:11:48 2025.
