 Gaussian 16, Revision C.01,

 ----------------------------------------------------------------------
 #t hf aug-cc-pvdz symm=none int=(grid=ultrafine) guess=(read,tcheck) s
 table=(opt,rrhf)
 ----------------------------------------------------------------------
 -----
 title
 -----
 Symbolic Z-matrix:
 Charge =  0 Multiplicity = 1

 SCF Done:  E(RHF) =  -805.941010425     A.U. after   12 cycles
 Normal termination of Gaussian 16 at Wed Apr  9 00:14:16 2025.
 Gaussian 16:  ES64L-G16RevC.01  3-Jul-2019

 ----------------------------------------------------------------------
 #t hf aug-cc-pvdz iop(5/13=1,5/36=2,99/5=2) pseudo=read geom=check gue
 ss=(read,tcheck) scf=(maxcycle=1)
 ----------------------------------------------------------------------
 -----
 title
 -----
 Structure from the checkpoint file:  "BDE49_nonexpt_2466_mol1.chk"
 Charge =  0 Multiplicity = 1

                         Standard orientation:
 ---------------------------------------------------------------------
 Center     Atomic      Atomic             Coordinates (Angstroms)
 Number     Number       Type             X           Y           Z
 ---------------------------------------------------------------------
      1         16           0       -1.977548   -0.908890   -0.105480
      2         14           0       -0.894700    0.962619    0.126078
      3          6           0        0.877776    0.671087   -0.428654
      4          1           0       -3.146027   -0.431816    0.359064
      5          6           0        1.684923   -0.342490    0.404174
      6          1           0        1.375606    1.649938   -0.407473
      7          1           0        0.862259    0.367843   -1.482771
      8          6           0        3.131729   -0.492323   -0.077580
      9          1           0        1.191210   -1.319472    0.375305
     10          1           0        1.682890   -0.035058    1.456016
     11          1           0        3.167555   -0.834424   -1.116416
     12          1           0        3.679446   -1.216986    0.531311
     13          1           0        3.666419    0.461107   -0.024042
     14          1           0       -0.946453    1.392360    1.544202
     15          1           0       -1.532902    2.014430   -0.700244
 ---------------------------------------------------------------------

 SCF Done:  E(RHF) =  -806.171795561     A.U. after    2 cycles

 The electronic state is 1-A.
 Alpha  occ. eigenvalues --  -93.94079 -69.55170 -11.23959 -11.22910 -11.22729
 Alpha  occ. eigenvalues --   -8.22353  -6.22020  -6.20178  -6.20064  -6.19845
 Alpha  occ. eigenvalues --   -3.97417  -3.97312  -3.97301  -1.06575  -1.00107
 Alpha  occ. eigenvalues --   -0.93529  -0.81749  -0.70922  -0.64328  -0.58788
 Alpha  occ. eigenvalues --   -0.57132  -0.55731  -0.53740  -0.50610  -0.48822
 Alpha  occ. eigenvalues --   -0.48225  -0.44671  -0.44184  -0.37635
 Alpha virt. eigenvalues --    0.03516   0.03824   0.03992   0.04235   0.05904
 Alpha virt. eigenvalues --    0.06262   0.06727   0.07156   0.08774   0.09064
 Alpha virt. eigenvalues --    0.09741   0.10295   0.11226   0.12509   0.13263

 Mulliken charges:
               1
     1  S   -0.871064
     2  Si   1.276252
     3  C   -0.546583
     4  H    0.262957
     5  C   -0.388831
     6  H    0.071933
     7  H    0.144080
     8  C   -0.345850
     9  H    0.126448
    10  H    0.118377
    11  H    0.162855
    12  H    0.123434
    13  H    0.159557
    14  H   -0.128881
    15  H   -0.164682
 Sum of Mulliken charges =  -0.00000

 Dipole moment (field-independent basis, Debye):
    X=              0.7122    Y=              1.1458    Z=              0.2609  Tot=              1.3741

 Test job not archived.
 1\1\GINC-SE150\SP\RHF\Aug-CC-pVDZ\C3H10S1Si1\OHZDE\09-Apr-2025\0\\#t h
 f aug-cc-pvdz iop(5/13=1,5/36=2,99/5=2) pseudo=read geom=check guess=(
 read,tcheck) scf=(maxcycle=1)\\title\\0,1\S,0,-1.977548,-0.90889,-0.10
 548\Si,0,-0.8947,0.962619,0.126078\C,0,0.877776,0.671087,-0.428654\H,0
 ,-3.146027,-0.431816,0.359064\C,0,1.684923,-0.34249,0.404174\H,0,1.375
 606,1.649938,-0.407473\H,0,0.862259,0.367843,-1.482771\C,0,3.131729,-0
 .492323,-0.07758\H,0,1.19121,-1.319472,0.375305\H,0,1.68289,-0.035058,
 1.456016\H,0,3.167555,-0.834424,-1.116416\H,0,3.679446,-1.216986,0.531

 Normal termination of Gaussian 16 at Wed Apr  9 00:14:22 2025.
