 Gaussian 16, Revision C.01,

 ----------------------------------------------------------------------
 #t hf aug-cc-pvdz symm=none int=(grid=ultrafine) guess=(read,tcheck) s
 table=(opt,rrhf)
 ----------------------------------------------------------------------
 -----
 title
 -----
 Symbolic Z-matrix:
 Charge =  0 Multiplicity = 1

 SCF Done:  E(RHF) =  -1257.17155087     A.U. after   16 cycles
 Normal termination of Gaussian 16 at Tue Apr  8 23:32:58 2025.
 Gaussian 16:  ES64L-G16RevC.01  3-Jul-2019

 ----------------------------------------------------------------------
 #t hf aug-cc-pvdz iop(5/13=1,5/36=2,99/5=2) pseudo=read geom=check gue
 ss=(read,tcheck) scf=(maxcycle=1)
 ----------------------------------------------------------------------
 -----
 title
 -----
 Structure from the checkpoint file:  "BDE49_nonexpt_1360_mol1.chk"
 Charge =  0 Multiplicity = 1

                         Standard orientation:
 ---------------------------------------------------------------------
 Center     Atomic      Atomic             Coordinates (Angstroms)
 Number     Number       Type             X           Y           Z
 ---------------------------------------------------------------------
      1          9           0        1.574742    1.971067   -0.326099
      2         16           0        0.658561   -0.715957    0.483849
      3          8           0        0.862994   -2.085108    0.023091
      4          8           0        0.991981   -0.317359    1.843102
      5         15           0        1.817421    0.499765   -0.998256
      6          6           0       -1.045425   -0.260395    0.180211
      7          6           0       -1.584295    0.834738    0.855268
      8          1           0       -0.980824    1.376155    1.572094
      9          6           0       -2.903891    1.195850    0.600171
     10          1           0       -3.339647    2.041653    1.118793
     11          6           0       -3.664180    0.467189   -0.314337
     12          1           0       -4.692308    0.751746   -0.507059
     13          6           0       -3.112901   -0.628155   -0.978267
     14          1           0       -3.711074   -1.196818   -1.680508
     15          6           0       -1.792966   -0.998663   -0.736022
     16          1           0       -1.347186   -1.853720   -1.227893
     17          6           0        3.434640    0.101141   -0.231954
     18          1           0        3.653720   -0.953417   -0.418422
     19          1           0        3.417608    0.291681    0.842362
     20          1           0        4.203055    0.711452   -0.712179
 ---------------------------------------------------------------------

 SCF Done:  E(RHF) =  -1257.79244431     A.U. after    2 cycles

 The electronic state is 1-A.
 Alpha  occ. eigenvalues --  -94.18511 -84.38369 -26.48308 -20.54132 -20.54109
 Alpha  occ. eigenvalues --  -11.28796 -11.27643 -11.27616 -11.27323 -11.26653
 Alpha  occ. eigenvalues --  -11.26623 -11.26480  -8.44016  -6.84588  -6.42092
 Alpha  occ. eigenvalues --   -6.41859  -6.41782  -4.37180  -4.36558  -4.35944
 Alpha  occ. eigenvalues --   -1.59303  -1.55065  -1.43649  -1.18774  -1.07013
 Alpha  occ. eigenvalues --   -1.04614  -1.02846  -0.94724  -0.86541  -0.85328
 Alpha  occ. eigenvalues --   -0.80487  -0.74858  -0.70798  -0.68191  -0.67895
 Alpha  occ. eigenvalues --   -0.67134  -0.65627  -0.65004  -0.63357  -0.62878
 Alpha  occ. eigenvalues --   -0.61476  -0.59655  -0.57237  -0.55709  -0.54051
 Alpha  occ. eigenvalues --   -0.53433  -0.49894  -0.48705  -0.46972  -0.43309
 Alpha  occ. eigenvalues --   -0.37972  -0.37099  -0.36534
 Alpha virt. eigenvalues --    0.02892   0.03559   0.03646   0.04563   0.05357
 Alpha virt. eigenvalues --    0.05855   0.06378   0.06866   0.07525   0.08015
 Alpha virt. eigenvalues --    0.08392   0.08927   0.09757   0.10633   0.12329

 Mulliken charges:
               1
     1  F   -0.853608
     2  S    3.483523
     3  O   -1.693663
     4  O   -1.655151
     5  P    1.696208
     6  C    0.671152
     7  C   -0.286623
     8  H   -0.279106
     9  C    0.498130
    10  H   -0.213051
    11  C   -0.024403
    12  H   -0.203933
    13  C    0.424212
    14  H   -0.213439
    15  C   -0.562227
    16  H   -0.253127
    17  C   -0.949054
    18  H    0.162108
    19  H    0.162617
    20  H    0.089435
 Sum of Mulliken charges =   0.00000

 Dipole moment (field-independent basis, Debye):
    X=             -1.3856    Y=              2.1972    Z=             -2.9309  Tot=              3.9163

 Test job not archived.
 1\1\GINC-SE097\SP\RHF\Aug-CC-pVDZ\C7H8F1O2P1S1\OHZDE\08-Apr-2025\0\\#t
  hf aug-cc-pvdz iop(5/13=1,5/36=2,99/5=2) pseudo=read geom=check guess
 =(read,tcheck) scf=(maxcycle=1)\\title\\0,1\F,0,1.574742,1.971067,-0.3
 26099\S,0,0.658561,-0.715957,0.483849\O,0,0.862994,-2.085108,0.023091\
 O,0,0.991981,-0.317359,1.843102\P,0,1.817421,0.499765,-0.998256\C,0,-1
 .045425,-0.260395,0.180211\C,0,-1.584295,0.834738,0.855268\H,0,-0.9808
 24,1.376155,1.572094\C,0,-2.903891,1.19585,0.600171\H,0,-3.339647,2.04
 1653,1.118793\C,0,-3.66418,0.467189,-0.314337\H,0,-4.692308,0.751746,-

 Normal termination of Gaussian 16 at Tue Apr  8 23:33:13 2025.
