 Gaussian 16, Revision C.01,

 ----------------------------------------------------------------------
 #t hf aug-cc-pvdz symm=none int=(grid=ultrafine) guess=(read,tcheck) s
 table=(opt,rrhf)
 ----------------------------------------------------------------------
 -----
 title
 -----
 Symbolic Z-matrix:
 Charge =  0 Multiplicity = 1

 SCF Done:  E(RHF) =  -246.724480131     A.U. after   13 cycles
 Normal termination of Gaussian 16 at Tue Apr  8 23:02:45 2025.
 Gaussian 16:  ES64L-G16RevC.01  3-Jul-2019

 ----------------------------------------------------------------------
 #t hf aug-cc-pvdz iop(5/13=1,5/36=2,99/5=2) pseudo=read geom=check gue
 ss=(read,tcheck) scf=(maxcycle=1)
 ----------------------------------------------------------------------
 -----
 title
 -----
 Structure from the checkpoint file:  "BDE49_expt_339_mol1.chk"
 Charge =  0 Multiplicity = 1

                         Standard orientation:
 ---------------------------------------------------------------------
 Center     Atomic      Atomic             Coordinates (Angstroms)
 Number     Number       Type             X           Y           Z
 ---------------------------------------------------------------------
      1          7           0       -1.417025    0.000001   -0.000000
      2          6           0       -0.721131    1.140587   -0.000000
      3          6           0        0.671681    1.196200   -0.000000
      4          6           0        0.671681   -1.196200    0.000000
      5          6           0       -0.721131   -1.140587    0.000000
      6          6           0        1.382899   -0.000001    0.000000
      7          1           0        1.180392   -2.153114    0.000000
      8          1           0        2.467251   -0.000000    0.000000
      9          1           0       -1.306426    2.056236   -0.000000
     10          1           0        1.180393    2.153113   -0.000000
     11          1           0       -1.306427   -2.056236    0.000000
 ---------------------------------------------------------------------

 SCF Done:  E(RHF) =  -246.978349798     A.U. after    2 cycles

 The electronic state is 1-A'.
 Alpha  occ. eigenvalues --  -15.50571 -11.28192 -11.28189 -11.26838 -11.25071
 Alpha  occ. eigenvalues --  -11.25065  -1.25926  -1.09318  -1.03873  -0.87727
 Alpha  occ. eigenvalues --   -0.86981  -0.73796  -0.68976  -0.66239  -0.61182
 Alpha  occ. eigenvalues --   -0.59640  -0.56239  -0.53662  -0.45360  -0.40524
 Alpha  occ. eigenvalues --   -0.35846
 Alpha virt. eigenvalues --    0.03254   0.03820   0.04026   0.05443   0.06322
 Alpha virt. eigenvalues --    0.07731   0.09934   0.11062   0.11240   0.12262
 Alpha virt. eigenvalues --    0.12959   0.13099   0.13275   0.14284   0.14357

 Mulliken charges:
               1
     1  N    0.873185
     2  C   -0.776169
     3  C    0.706061
     4  C    0.706067
     5  C   -0.776169
     6  C    0.107554
     7  H   -0.179923
     8  H   -0.148279
     9  H   -0.166203
    10  H   -0.179922
    11  H   -0.166203
 Sum of Mulliken charges =  -0.00000

 Dipole moment (field-independent basis, Debye):
    X=              2.7038    Y=             -0.0000    Z=              0.0000  Tot=              2.7038

 Test job not archived.
 1\1\GINC-SE070\SP\RHF\Aug-CC-pVDZ\C5H5N1\OHZDE\08-Apr-2025\0\\#t hf au
 g-cc-pvdz iop(5/13=1,5/36=2,99/5=2) pseudo=read geom=check guess=(read
 ,tcheck) scf=(maxcycle=1)\\title\\0,1\N,0,0.,1.417025,0.\C,0,-1.140587
 ,0.721132,0.\C,0,-1.1962,-0.67168,0.\C,0,1.1962,-0.671681,0.\C,0,1.140
 587,0.721131,0.\C,0,0.,-1.382899,0.\H,0,2.153113,-1.180393,0.\H,0,-0.0
 00001,-2.467251,0.\H,0,-2.056236,1.306427,0.\H,0,-2.153114,-1.180392,0
 .\H,0,2.056236,1.306426,0.\\Version=ES64L-G16RevC.01\State=1-A'\HF=-24
 6.9783498\RMSD=2.876e-02\Dipole=0.0000001,-1.0637443,0.\Quadrupole=4.5

 Normal termination of Gaussian 16 at Tue Apr  8 23:02:49 2025.
