 Gaussian 16, Revision C.01,

 ----------------------------------------------------------------------
 #t hf aug-cc-pvdz symm=none int=(grid=ultrafine) guess=(read,tcheck) s
 table=opt
 ----------------------------------------------------------------------
 -----
 title
 -----
 Symbolic Z-matrix:
 Charge =  0 Multiplicity = 2

 SCF Done:  E(UHF) =  -309.642095228     A.U. after   24 cycles

 1\1\GINC-SE127\Stability\UHF\Aug-CC-pVDZ\C6H13O1\OHZDE\08-Apr-2025\0\\
 #t hf aug-cc-pvdz symm=none int=(grid=ultrafine) guess=(read,tcheck) s
 table=opt\\title\\0,2\O,0,-1.049898,0.295664,1.404235\C,0,-0.948355,-0
 .049179,0.074631\C,0,-2.009995,-1.110905,-0.279585\H,0,-1.817102,-2.03
 193,0.27589\H,0,-1.990152,-1.344402,-1.347726\H,0,-3.004911,-0.750526,
 -0.011813\C,0,-1.288572,1.284065,-0.666323\H,0,-2.310412,1.58749,-0.43
 7388\H,0,-1.194396,1.109999,-1.7413\H,0,-0.608808,2.082271,-0.370855\C
 ,0,0.477253,-0.549523,-0.277759\C,0,1.617166,0.404714,0.089751\H,0,0.5

 Normal termination of Gaussian 16 at Tue Apr  8 22:57:22 2025.
 Gaussian 16:  ES64L-G16RevC.01  3-Jul-2019

 ----------------------------------------------------------------------
 #t hf aug-cc-pvdz iop(5/13=1,5/36=2,99/5=2) pseudo=read geom=check gue
 ss=(read,tcheck) scf=(maxcycle=1)
 ----------------------------------------------------------------------
 -----
 title
 -----
 Structure from the checkpoint file:  "BDE49_expt_1860_mol2.chk"
 Charge =  0 Multiplicity = 2

                         Standard orientation:
 ---------------------------------------------------------------------
 Center     Atomic      Atomic             Coordinates (Angstroms)
 Number     Number       Type             X           Y           Z
 ---------------------------------------------------------------------
      1          8           0       -1.049898    0.295664    1.404235
      2          6           0       -0.948355   -0.049179    0.074631
      3          6           0       -2.009995   -1.110905   -0.279585
      4          1           0       -1.817102   -2.031930    0.275890
      5          1           0       -1.990152   -1.344402   -1.347726
      6          1           0       -3.004911   -0.750526   -0.011813
      7          6           0       -1.288572    1.284065   -0.666323
      8          1           0       -2.310412    1.587490   -0.437388
      9          1           0       -1.194396    1.109999   -1.741300
     10          1           0       -0.608808    2.082271   -0.370855
     11          6           0        0.477253   -0.549523   -0.277759
     12          6           0        1.617166    0.404714    0.089751
     13          1           0        0.512476   -0.788837   -1.347697
     14          1           0        0.622585   -1.497727    0.253918
     15          6           0        2.998629   -0.237955   -0.069021
     16          1           0        1.475197    0.731878    1.123756
     17          1           0        1.568615    1.304765   -0.532566
     18          1           0        3.102345   -1.115862    0.576094
     19          1           0        3.794477    0.463527    0.195403
     20          1           0        3.172515   -0.563259   -1.099754
 ---------------------------------------------------------------------

 SCF Done:  E(UHF) =  -309.973774990     A.U. after    2 cycles

 The electronic state is 2-A.
 Alpha  occ. eigenvalues --  -20.59752 -11.29291 -11.23776 -11.22958 -11.22925
 Alpha  occ. eigenvalues --  -11.22533 -11.22289  -1.48442  -1.08394  -1.02969
 Alpha  occ. eigenvalues --   -0.95103  -0.93105  -0.81980  -0.75963  -0.67817
 Alpha  occ. eigenvalues --   -0.65513  -0.64991  -0.62006  -0.58587  -0.56176
 Alpha  occ. eigenvalues --   -0.55999  -0.54274  -0.53895  -0.52857  -0.50942
 Alpha  occ. eigenvalues --   -0.49083  -0.47577  -0.45576  -0.43691
 Alpha virt. eigenvalues --    0.03515   0.03643   0.03751   0.04293   0.05721
 Alpha virt. eigenvalues --    0.05789   0.06348   0.06774   0.07615   0.08613
 Alpha virt. eigenvalues --    0.09197   0.09748   0.11087   0.11752   0.13540

  Beta  occ. eigenvalues --  -20.55808 -11.29576 -11.23483 -11.22899 -11.22855
  Beta  occ. eigenvalues --  -11.22540 -11.22287  -1.35450  -1.07309  -1.02037
  Beta  occ. eigenvalues --   -0.94191  -0.92983  -0.81830  -0.74386  -0.64778
  Beta  occ. eigenvalues --   -0.64648  -0.61563  -0.60018  -0.56715  -0.55636
  Beta  occ. eigenvalues --   -0.55066  -0.53200  -0.52363  -0.50359  -0.49078
  Beta  occ. eigenvalues --   -0.47682  -0.46817  -0.41556
  Beta virt. eigenvalues --    0.03441   0.03568   0.03694   0.04298   0.05681
  Beta virt. eigenvalues --    0.05787   0.06351   0.06765   0.07588   0.08612
  Beta virt. eigenvalues --    0.09043   0.09530   0.10280   0.11092   0.11841

 Mulliken charges and spin densities:
               1          2
     1  O   -1.179616   1.101493
     2  C   -0.427433  -0.328684
     3  C    0.031942   0.046810
     4  H    0.193717   0.006496
     5  H    0.273534  -0.001426
     6  H    0.190328  -0.003982
     7  C    0.004774   0.146324
     8  H    0.183905   0.003982
     9  H    0.251157   0.006632
    10  H    0.190685   0.005533
    11  C   -0.100634   0.023447
    12  C   -0.176343  -0.005078
    13  H    0.128146  -0.001559
    14  H    0.159788   0.005232
    15  C   -0.431644  -0.000497
    16  H    0.128898  -0.004495
    17  H    0.103584  -0.000028
    18  H    0.170409  -0.000271
    19  H    0.126807   0.000028
    20  H    0.177994   0.000044
 Sum of Mulliken charges =  -0.00000   1.00000

 Dipole moment (field-independent basis, Debye):
    X=              0.1208    Y=             -0.2532    Z=             -1.6785  Tot=              1.7018
                          Isotropic Fermi Contact Couplings
        Atom                 a.u.       MegaHertz       Gauss      10(-4) cm-1
     1  O(17)              0.25967    -157.40788     -56.16705     -52.50562
     2  C(13)             -0.05027     -56.51762     -20.16689     -18.85225
     3  C(13)              0.01622      18.23327       6.50608       6.08196
     4  H(1)              -0.00096      -4.30809      -1.53723      -1.43702
     5  H(1)              -0.00010      -0.46374      -0.16547      -0.15469
     6  H(1)              -0.00064      -2.86141      -1.02102      -0.95446
     7  C(13)              0.06062      68.14308      24.31515      22.73009
     8  H(1)              -0.00164      -7.31268      -2.60935      -2.43925

 Normal termination of Gaussian 16 at Tue Apr  8 22:57:31 2025.
