 Gaussian 16, Revision C.01,

 ----------------------------------------------------------------------
 #t hf aug-cc-pvdz symm=none int=(grid=ultrafine) guess=(read,tcheck) s
 table=(opt,rrhf)
 ----------------------------------------------------------------------
 -----
 title
 -----
 Symbolic Z-matrix:
 Charge =  0 Multiplicity = 1

 SCF Done:  E(RHF) =  -822.112966653     A.U. after   13 cycles
 Normal termination of Gaussian 16 at Tue Apr  8 22:43:46 2025.
 Gaussian 16:  ES64L-G16RevC.01  3-Jul-2019

 ----------------------------------------------------------------------
 #t hf aug-cc-pvdz iop(5/13=1,5/36=2,99/5=2) pseudo=read geom=check gue
 ss=(read,tcheck) scf=(maxcycle=1)
 ----------------------------------------------------------------------
 -----
 title
 -----
 Structure from the checkpoint file:  "BDE49_expt_1472_mol1.chk"
 Charge =  0 Multiplicity = 1

                         Standard orientation:
 ---------------------------------------------------------------------
 Center     Atomic      Atomic             Coordinates (Angstroms)
 Number     Number       Type             X           Y           Z
 ---------------------------------------------------------------------
      1          6           0        0.029138    1.631559   -0.004337
      2          8           0        0.531347    0.492543   -0.622448
      3          8           0       -0.531347   -0.492543   -0.622448
      4          6           0       -0.029138   -1.631559   -0.004337
      5          9           0        1.029550    2.500656   -0.060922
      6          9           0       -0.310185    1.412469    1.263185
      7          9           0       -1.029550    2.116714   -0.646084
      8          9           0       -1.029550   -2.500656   -0.060922
      9          9           0        1.029550   -2.116714   -0.646084
     10          9           0        0.310185   -1.412469    1.263185
 ---------------------------------------------------------------------

 SCF Done:  E(RHF) =  -822.864424833     A.U. after    2 cycles

 The electronic state is 1-A.
 Alpha  occ. eigenvalues --  -26.54830 -26.54830 -26.54357 -26.54356 -26.54315
 Alpha  occ. eigenvalues --  -26.54315 -20.71300 -20.71298 -11.61013 -11.61012
 Alpha  occ. eigenvalues --   -1.78666  -1.77045  -1.67261  -1.66330  -1.66292
 Alpha  occ. eigenvalues --   -1.65698  -1.65670  -1.41735  -0.99748  -0.97295
 Alpha  occ. eigenvalues --   -0.88947  -0.88105  -0.87477  -0.86043  -0.84823
 Alpha  occ. eigenvalues --   -0.83526  -0.74783  -0.73217  -0.72615  -0.72102
 Alpha  occ. eigenvalues --   -0.69019  -0.68675  -0.68124  -0.66967  -0.66807
 Alpha  occ. eigenvalues --   -0.66192  -0.65698  -0.65618  -0.64832  -0.59202
 Alpha  occ. eigenvalues --   -0.55411
 Alpha virt. eigenvalues --    0.07687   0.08200   0.08350   0.08366   0.10736
 Alpha virt. eigenvalues --    0.11064   0.11453   0.14912   0.17555   0.19342
 Alpha virt. eigenvalues --    0.20364   0.23079   0.23364   0.24846   0.24971

 Mulliken charges:
               1
     1  C    2.902390
     2  O   -0.911314
     3  O   -0.911314
     4  C    2.902390
     5  F   -0.659807
     6  F   -0.666021
     7  F   -0.665249
     8  F   -0.659807
     9  F   -0.665249
    10  F   -0.666021
 Sum of Mulliken charges =  -0.00000

 Dipole moment (field-independent basis, Debye):
    X=             -0.0000    Y=             -0.0000    Z=              0.1003  Tot=              0.1003

 Test job not archived.
 1\1\GINC-SE043\SP\RHF\Aug-CC-pVDZ\C2F6O2\OHZDE\08-Apr-2025\0\\#t hf au
 g-cc-pvdz iop(5/13=1,5/36=2,99/5=2) pseudo=read geom=check guess=(read
 ,tcheck) scf=(maxcycle=1)\\title\\0,1\C,0,0.029138,1.631559,-0.004337\
 O,0,0.531347,0.492543,-0.622448\O,0,-0.531347,-0.492543,-0.622448\C,0,
 -0.029138,-1.631559,-0.004337\F,0,1.02955,2.500656,-0.060922\F,0,-0.31
 0185,1.412469,1.263185\F,0,-1.02955,2.116714,-0.646084\F,0,-1.02955,-2
 .500656,-0.060922\F,0,1.02955,-2.116714,-0.646084\F,0,0.310185,-1.4124
 69,1.263185\\Version=ES64L-G16RevC.01\State=1-A\HF=-822.8644248\RMSD=4

 Normal termination of Gaussian 16 at Tue Apr  8 22:43:52 2025.
