 Gaussian 16, Revision C.01,

 ----------------------------------------------------------------------
 #t hf aug-cc-pvdz symm=none int=(grid=ultrafine) guess=(read,tcheck) s
 table=opt
 ----------------------------------------------------------------------
 -----
 title
 -----
 Symbolic Z-matrix:
 Charge =  0 Multiplicity = 2

 SCF Done:  E(UHF) =  -2165.39905096     A.U. after   17 cycles
 Normal termination of Gaussian 16 at Tue Apr  8 23:48:28 2025.
 Gaussian 16:  ES64L-G16RevC.01  3-Jul-2019

 ----------------------------------------------------------------------
 #t hf aug-cc-pvdz iop(5/13=1,5/36=2,99/5=2) pseudo=read geom=check gue
 ss=(read,tcheck) scf=(maxcycle=1)
 ----------------------------------------------------------------------
 -----
 title
 -----
 Structure from the checkpoint file:  "BDE49_nonexpt_1817_mol2.chk"
 Charge =  0 Multiplicity = 2

                         Standard orientation:
 ---------------------------------------------------------------------
 Center     Atomic      Atomic             Coordinates (Angstroms)
 Number     Number       Type             X           Y           Z
 ---------------------------------------------------------------------
      1         14           0       -0.964080   -1.025645   -0.437484
      2          6           0        0.595302    0.020408   -0.006179
      3         17           0       -2.675863    0.055429   -0.010732
      4         17           0        0.650504    0.426531    1.746242
      5         17           0        0.661460    1.523500   -0.979267
      6         17           0        2.002209   -1.037169   -0.419230
      7          1           0       -0.925965   -2.224380    0.432626
 ---------------------------------------------------------------------

 SCF Done:  E(UHF) =  -2165.76712203     A.U. after    2 cycles

 The electronic state is 2-A.
 Alpha  occ. eigenvalues -- -105.60605-105.60360-105.60321-105.58167 -69.62623
 Alpha  occ. eigenvalues --  -11.44301 -10.65394 -10.65163 -10.65109 -10.63154
 Alpha  occ. eigenvalues --   -7.82326  -7.82100  -7.82097  -7.81918  -7.81914
 Alpha  occ. eigenvalues --   -7.81683  -7.81677  -7.81639  -7.81613  -7.80105
 Alpha  occ. eigenvalues --   -7.79756  -7.79685  -6.29213  -4.04974  -4.04245
 Alpha  occ. eigenvalues --   -4.04096  -1.21077  -1.08080  -1.07451  -1.07381
 Alpha  occ. eigenvalues --   -0.86926  -0.74627  -0.64379  -0.64169  -0.62448
 Alpha  occ. eigenvalues --   -0.56654  -0.53181  -0.52011  -0.51190  -0.49796
 Alpha  occ. eigenvalues --   -0.48153  -0.47937  -0.46700  -0.45327  -0.38153
 Alpha virt. eigenvalues --    0.03906   0.05131   0.05738   0.06011   0.07297
 Alpha virt. eigenvalues --    0.08624   0.09028   0.10514   0.12120   0.12533
 Alpha virt. eigenvalues --    0.13483   0.13749   0.14251   0.14564   0.16650

  Beta  occ. eigenvalues -- -105.60608-105.60366-105.60276-105.58068 -69.62018
  Beta  occ. eigenvalues --  -11.44172 -10.65398 -10.65169 -10.65060 -10.63046
  Beta  occ. eigenvalues --   -7.82343  -7.82125  -7.81969  -7.81925  -7.81907
  Beta  occ. eigenvalues --   -7.81684  -7.81680  -7.81586  -7.81559  -7.79909
  Beta  occ. eigenvalues --   -7.79633  -7.79507  -6.28245  -4.03854  -4.03710
  Beta  occ. eigenvalues --   -4.02844  -1.20837  -1.07649  -1.07259  -1.06876
  Beta  occ. eigenvalues --   -0.85708  -0.72001  -0.64162  -0.63847  -0.61195
  Beta  occ. eigenvalues --   -0.55282  -0.52270  -0.51904  -0.49995  -0.49240
  Beta  occ. eigenvalues --   -0.47997  -0.47850  -0.46635  -0.44526
  Beta virt. eigenvalues --   -0.00236   0.04299   0.05382   0.05938   0.06398
  Beta virt. eigenvalues --    0.07926   0.08731   0.09180   0.10833   0.12446
  Beta virt. eigenvalues --    0.13125   0.13727   0.14603   0.15295   0.16171

 Mulliken charges and spin densities:
               1          2
     1  Si   1.315310   0.852676
     2  C   -0.945527  -0.003485
     3  Cl  -0.542404   0.043893
     4  Cl   0.082240   0.021146
     5  Cl   0.104197   0.001082
     6  Cl   0.096198  -0.003823
     7  H   -0.110014   0.088511
 Sum of Mulliken charges =   0.00000   1.00000

 Dipole moment (field-independent basis, Debye):
    X=             -0.1423    Y=             -1.3046    Z=             -0.4440  Tot=              1.3854
                          Isotropic Fermi Contact Couplings
        Atom                 a.u.       MegaHertz       Gauss      10(-4) cm-1
     1  Si(29)             0.84488    -750.86707    -267.92804    -250.46229
     2  C(13)              0.03909      43.94071      15.67914      14.65704
     3  Cl(35)             0.05703      25.00769       8.92336       8.34167
     4  Cl(35)             0.01994       8.74456       3.12028       2.91687
     5  Cl(35)            -0.00119      -0.52341      -0.18677      -0.17459
     6  Cl(35)            -0.00137      -0.60096      -0.21444      -0.20046
     7  H(1)               0.01983      88.62553      31.62379      29.56229
 --------------------------------------------------------

 Normal termination of Gaussian 16 at Tue Apr  8 23:48:31 2025.
