 Gaussian 16, Revision C.01,

 ----------------------------------------------------------------------
 #t hf aug-cc-pvdz symm=none int=(grid=ultrafine) guess=(read,tcheck) s
 table=(opt,rrhf)
 ----------------------------------------------------------------------
 -----
 title
 -----
 Symbolic Z-matrix:
 Charge =  0 Multiplicity = 1

 SCF Done:  E(RHF) =  -2003.83164763     A.U. after   12 cycles
 Normal termination of Gaussian 16 at Tue Apr  8 23:49:32 2025.
 Gaussian 16:  ES64L-G16RevC.01  3-Jul-2019

 ----------------------------------------------------------------------
 #t hf aug-cc-pvdz iop(5/13=1,5/36=2,99/5=2) pseudo=read geom=check gue
 ss=(read,tcheck) scf=(maxcycle=1)
 ----------------------------------------------------------------------
 -----
 title
 -----
 Structure from the checkpoint file:  "BDE49_nonexpt_1859_mol1.chk"
 Charge =  0 Multiplicity = 1

                         Standard orientation:
 ---------------------------------------------------------------------
 Center     Atomic      Atomic             Coordinates (Angstroms)
 Number     Number       Type             X           Y           Z
 ---------------------------------------------------------------------
      1          6           0       -1.047727   -0.541266   -0.252441
      2         14           0        0.662234    0.118386    0.305107
      3          9           0        0.615676    0.266368    1.883367
      4         17           0        1.031401    1.926180   -0.541135
      5          9           0       -1.268597   -1.766191    0.278978
      6         17           0       -2.366894    0.556970    0.275209
      7         17           0        2.087695   -1.242620   -0.194963
      8          9           0       -1.099562   -0.666711   -1.598094
 ---------------------------------------------------------------------

 SCF Done:  E(RHF) =  -2004.39593207     A.U. after    2 cycles

 The electronic state is 1-A.
 Alpha  occ. eigenvalues -- -105.60776-105.60748-105.60593 -69.71005 -26.52769
 Alpha  occ. eigenvalues --  -26.52702 -26.50577 -11.50662 -10.65797 -10.65650
 Alpha  occ. eigenvalues --  -10.65642  -7.82688  -7.82586  -7.82530  -7.82344
 Alpha  occ. eigenvalues --   -7.82335  -7.82188  -7.82179  -7.82173  -7.82164
 Alpha  occ. eigenvalues --   -6.36775  -4.12173  -4.12096  -4.11951  -1.69945
 Alpha  occ. eigenvalues --   -1.62826  -1.62156  -1.13849  -1.12059  -1.08991
 Alpha  occ. eigenvalues --   -0.94638  -0.83547  -0.79676  -0.77119  -0.76890
 Alpha  occ. eigenvalues --   -0.70024  -0.69612  -0.68633  -0.66724  -0.64963
 Alpha  occ. eigenvalues --   -0.62697  -0.59017  -0.55734  -0.53648  -0.52458
 Alpha  occ. eigenvalues --   -0.51834  -0.50869  -0.50121  -0.48439
 Alpha virt. eigenvalues --    0.04925   0.05764   0.06044   0.06260   0.08929
 Alpha virt. eigenvalues --    0.10494   0.11349   0.11733   0.12156   0.12549
 Alpha virt. eigenvalues --    0.13671   0.14604   0.16220   0.16692   0.17416

 Mulliken charges:
               1
     1  C    1.093341
     2  Si   2.260600
     3  F   -0.902599
     4  Cl  -0.466106
     5  F   -0.695445
     6  Cl  -0.159508
     7  Cl  -0.450033
     8  F   -0.680250
 Sum of Mulliken charges =   0.00000

 Dipole moment (field-independent basis, Debye):
    X=              0.6910    Y=              0.3921    Z=             -0.1998  Tot=              0.8192

 Test job not archived.
 1\1\GINC-SE460\SP\RHF\Aug-CC-pVDZ\C1Cl3F3Si1\OHZDE\08-Apr-2025\0\\#t h
 f aug-cc-pvdz iop(5/13=1,5/36=2,99/5=2) pseudo=read geom=check guess=(
 read,tcheck) scf=(maxcycle=1)\\title\\0,1\C,0,-1.047727,-0.541266,-0.2
 52441\Si,0,0.662234,0.118386,0.305107\F,0,0.615676,0.266368,1.883367\C
 l,0,1.031401,1.92618,-0.541135\F,0,-1.268597,-1.766191,0.278978\Cl,0,-
 2.366894,0.55697,0.275209\Cl,0,2.087695,-1.24262,-0.194963\F,0,-1.0995
 62,-0.666711,-1.598094\\Version=ES64L-G16RevC.01\State=1-A\HF=-2004.39
 59321\RMSD=2.802e-03\Dipole=0.2718422,0.1542526,-0.0786053\Quadrupole=

 Normal termination of Gaussian 16 at Tue Apr  8 23:49:35 2025.
