 Gaussian 16, Revision C.01,

 ----------------------------------------------------------------------
 #t hf aug-cc-pvdz symm=none int=(grid=ultrafine) guess=(read,tcheck) s
 table=(opt,rrhf)
 ----------------------------------------------------------------------
 -----
 title
 -----
 Symbolic Z-matrix:
 Charge =  0 Multiplicity = 1

 SCF Done:  E(RHF) =  -714.459300233     A.U. after   12 cycles
 Normal termination of Gaussian 16 at Wed Apr  9 00:11:23 2025.
 Gaussian 16:  ES64L-G16RevC.01  3-Jul-2019

 ----------------------------------------------------------------------
 #t hf aug-cc-pvdz iop(5/13=1,5/36=2,99/5=2) pseudo=read geom=check gue
 ss=(read,tcheck) scf=(maxcycle=1)
 ----------------------------------------------------------------------
 -----
 title
 -----
 Structure from the checkpoint file:  "BDE49_nonexpt_2376_mol1.chk"
 Charge =  0 Multiplicity = 1

                         Standard orientation:
 ---------------------------------------------------------------------
 Center     Atomic      Atomic             Coordinates (Angstroms)
 Number     Number       Type             X           Y           Z
 ---------------------------------------------------------------------
      1         14           0       -2.242988    0.240710   -0.216339
      2         14           0       -0.215684   -0.837339    0.340006
      3          1           0       -2.405819    1.529354    0.503646
      4          1           0       -3.375980   -0.639150    0.167344
      5          1           0       -2.328527    0.512816   -1.672182
      6          7           0        1.163532    0.106769   -0.111379
      7          1           0       -0.114687   -2.115241   -0.407451
      8          1           0       -0.285627   -1.196806    1.790482
      9          6           0        1.295233    1.508096    0.265036
     10          1           0        1.885959    1.644467    1.184429
     11          1           0        0.314343    1.959815    0.429984
     12          1           0        1.790530    2.074017   -0.534235
     13          6           0        2.443151   -0.523130   -0.414587
     14          1           0        2.292818   -1.550813   -0.750673
     15          1           0        3.120165   -0.543982    0.453967
     16          1           0        2.953220    0.021162   -1.219688
 ---------------------------------------------------------------------

 SCF Done:  E(RHF) =  -714.674944536     A.U. after    2 cycles

 The electronic state is 1-A.
 Alpha  occ. eigenvalues --  -69.53655 -69.52056 -15.47799 -11.26358 -11.26140
 Alpha  occ. eigenvalues --   -6.20511  -6.19266  -3.95886  -3.95863  -3.95802
 Alpha  occ. eigenvalues --   -3.94623  -3.94618  -3.94598  -1.19675  -0.96383
 Alpha  occ. eigenvalues --   -0.87755  -0.76924  -0.70749  -0.64100  -0.63657
 Alpha  occ. eigenvalues --   -0.61751  -0.55396  -0.53500  -0.51947  -0.49828
 Alpha  occ. eigenvalues --   -0.48450  -0.47232  -0.42055  -0.37441
 Alpha virt. eigenvalues --    0.03655   0.04000   0.04692   0.04910   0.05458
 Alpha virt. eigenvalues --    0.06061   0.06464   0.06535   0.07470   0.08784
 Alpha virt. eigenvalues --    0.09278   0.09536   0.10167   0.10197   0.11339

 Mulliken charges:
               1
     1  Si   0.142357
     2  Si   0.445863
     3  H   -0.085850
     4  H   -0.152571
     5  H   -0.059174
     6  N    0.353613
     7  H   -0.115848
     8  H   -0.116883
     9  C   -0.514459
    10  H    0.207696
    11  H   -0.079020
    12  H    0.151347
    13  C   -0.496960
    14  H   -0.016720
    15  H    0.193317
    16  H    0.143294
 Sum of Mulliken charges =  -0.00000

 Dipole moment (field-independent basis, Debye):
    X=              1.0676    Y=              0.3875    Z=              0.1041  Tot=              1.1405

 Test job not archived.
 1\1\GINC-SE250\SP\RHF\Aug-CC-pVDZ\C2H11N1Si2\OHZDE\09-Apr-2025\0\\#t h
 f aug-cc-pvdz iop(5/13=1,5/36=2,99/5=2) pseudo=read geom=check guess=(
 read,tcheck) scf=(maxcycle=1)\\title\\0,1\Si,0,-2.242988,0.24071,-0.21
 6339\Si,0,-0.215684,-0.837339,0.340006\H,0,-2.405819,1.529354,0.503646
 \H,0,-3.37598,-0.63915,0.167344\H,0,-2.328527,0.512816,-1.672182\N,0,1
 .163532,0.106769,-0.111379\H,0,-0.114687,-2.115241,-0.407451\H,0,-0.28
 5627,-1.196806,1.790482\C,0,1.295233,1.508096,0.265036\H,0,1.885959,1.
 644467,1.184429\H,0,0.314343,1.959815,0.429984\H,0,1.79053,2.074017,-0

 Normal termination of Gaussian 16 at Wed Apr  9 00:11:28 2025.
