 Gaussian 16, Revision C.01,

 ----------------------------------------------------------------------
 #t hf aug-cc-pvdz symm=none int=(grid=ultrafine) guess=(read,tcheck) s
 table=(opt,rrhf)
 ----------------------------------------------------------------------
 -----
 title
 -----
 Symbolic Z-matrix:
 Charge =  0 Multiplicity = 1

 SCF Done:  E(RHF) =  -275.760872080     A.U. after   11 cycles
 Normal termination of Gaussian 16 at Tue Apr  8 22:41:25 2025.
 Gaussian 16:  ES64L-G16RevC.01  3-Jul-2019

 ----------------------------------------------------------------------
 #t hf aug-cc-pvdz iop(5/13=1,5/36=2,99/5=2) pseudo=read geom=check gue
 ss=(read,tcheck) scf=(maxcycle=1)
 ----------------------------------------------------------------------
 -----
 title
 -----
 Structure from the checkpoint file:  "BDE49_expt_138_mol1.chk"
 Charge =  0 Multiplicity = 1

                         Standard orientation:
 ---------------------------------------------------------------------
 Center     Atomic      Atomic             Coordinates (Angstroms)
 Number     Number       Type             X           Y           Z
 ---------------------------------------------------------------------
      1          6           0       -0.331667    0.572146    0.000000
      2          6           0        0.331667   -0.572146    0.000000
      3          9           0       -0.331667   -1.743991    0.000000
      4          9           0        0.331667    1.743991    0.000000
      5          1           0       -1.409742    0.663505    0.000000
      6          1           0        1.409742   -0.663505    0.000000
 ---------------------------------------------------------------------

 SCF Done:  E(RHF) =  -276.021087997     A.U. after    2 cycles

 The electronic state is 1-AG.
 Alpha  occ. eigenvalues --  -26.49111 -26.49110 -11.34775 -11.34639  -1.62215
 Alpha  occ. eigenvalues --   -1.61563  -1.06331  -0.85689  -0.76267  -0.75651
 Alpha  occ. eigenvalues --   -0.69557  -0.67878  -0.67023  -0.61943  -0.56781
 Alpha  occ. eigenvalues --   -0.39457
 Alpha virt. eigenvalues --    0.04182   0.04190   0.07986   0.10384   0.10499
 Alpha virt. eigenvalues --    0.11884   0.12395   0.15266   0.16444   0.18092
 Alpha virt. eigenvalues --    0.20404   0.24865   0.27304   0.28461   0.29401

 Mulliken charges:
               1
     1  C    0.653632
     2  C    0.653632
     3  F   -0.728955
     4  F   -0.728955
     5  H    0.075323
     6  H    0.075323
 Sum of Mulliken charges =   0.00000

 Dipole moment (field-independent basis, Debye):
    X=             -0.0000    Y=             -0.0000    Z=              0.0000  Tot=              0.0000

 Test job not archived.
 1\1\GINC-SE227\SP\RHF\Aug-CC-pVDZ\C2H2F2\OHZDE\08-Apr-2025\0\\#t hf au
 g-cc-pvdz iop(5/13=1,5/36=2,99/5=2) pseudo=read geom=check guess=(read
 ,tcheck) scf=(maxcycle=1)\\title\\0,1\C,0,-0.331667,0.572146,0.\C,0,0.
 331667,-0.572146,0.\F,0,-0.331667,-1.743991,0.\F,0,0.331667,1.743991,0
 .\H,0,-1.409742,0.663505,0.\H,0,1.409742,-0.663505,0.\\Version=ES64L-G
 16RevC.01\State=1-AG\HF=-276.021088\RMSD=9.615e-03\Dipole=0.,0.,0.\Qua
 drupole=2.7645204,-2.6270178,-0.1375026,-2.1339341,0.,0.\PG=C02H [SGH(
 C2H2F2)]\\@

 Normal termination of Gaussian 16 at Tue Apr  8 22:41:26 2025.
