 Gaussian 16, Revision C.01,

 ----------------------------------------------------------------------
 #t hf aug-cc-pvdz symm=none int=(grid=ultrafine) guess=(read,tcheck) s
 table=(opt,rrhf)
 ----------------------------------------------------------------------
 -----
 title
 -----
 Symbolic Z-matrix:
 Charge =  0 Multiplicity = 1

 SCF Done:  E(RHF) =  -452.100120932     A.U. after   13 cycles
 Normal termination of Gaussian 16 at Wed Apr  9 00:33:56 2025.
 Gaussian 16:  ES64L-G16RevC.01  3-Jul-2019

 ----------------------------------------------------------------------
 #t hf aug-cc-pvdz iop(5/13=1,5/36=2,99/5=2) pseudo=read geom=check gue
 ss=(read,tcheck) scf=(maxcycle=1)
 ----------------------------------------------------------------------
 -----
 title
 -----
 Structure from the checkpoint file:  "BDE49_nonexpt_419_mol1.chk"
 Charge =  0 Multiplicity = 1

                         Standard orientation:
 ---------------------------------------------------------------------
 Center     Atomic      Atomic             Coordinates (Angstroms)
 Number     Number       Type             X           Y           Z
 ---------------------------------------------------------------------
      1          9           0       -1.813277    0.668833    0.801220
      2          5           0       -1.192572   -0.153951   -0.033259
      3          9           0       -1.865311   -1.202884   -0.468874
      4          6           0        0.300900    0.144781   -0.471061
      5          8           0        1.076823   -0.488663    0.527707
      6          8           0        0.571566    1.529521   -0.590582
      7          6           0        2.467031   -0.578828    0.216582
      8          1           0        2.626719   -1.203858   -0.671393
      9          1           0        2.951969   -1.042170    1.074920
     10          1           0        2.894264    0.412466    0.042766
     11          1           0        0.263760    1.958098    0.217295
     12          1           0        0.538756   -0.270907   -1.458535
 ---------------------------------------------------------------------

 SCF Done:  E(RHF) =  -452.536302102     A.U. after    2 cycles

 The electronic state is 1-A.
 Alpha  occ. eigenvalues --  -26.49019 -26.48933 -20.57051 -20.56837 -11.34241
 Alpha  occ. eigenvalues --  -11.29261  -7.72828  -1.64172  -1.60216  -1.50838
 Alpha  occ. eigenvalues --   -1.44372  -0.98764  -0.89565  -0.81615  -0.76270
 Alpha  occ. eigenvalues --   -0.75300  -0.71154  -0.69366  -0.68154  -0.65114
 Alpha  occ. eigenvalues --   -0.64287  -0.63553  -0.60420  -0.59480  -0.55585
 Alpha  occ. eigenvalues --   -0.48619  -0.46809  -0.45165
 Alpha virt. eigenvalues --    0.03626   0.04088   0.04384   0.04947   0.06526
 Alpha virt. eigenvalues --    0.06804   0.07061   0.08178   0.11074   0.12327
 Alpha virt. eigenvalues --    0.13455   0.14231   0.14598   0.16367   0.16888

 Mulliken charges:
               1
     1  F   -0.629455
     2  B    1.481720
     3  F   -0.712987
     4  C    1.681639
     5  O   -1.368186
     6  O   -1.212634
     7  C    0.146936
     8  H    0.148225
     9  H   -0.006762
    10  H    0.198711
    11  H    0.273862
    12  H   -0.001067
 Sum of Mulliken charges =  -0.00000

 Dipole moment (field-independent basis, Debye):
    X=              1.4352    Y=             -0.0535    Z=             -0.1621  Tot=              1.4453

 Test job not archived.
 1\1\GINC-SE166\SP\RHF\Aug-CC-pVDZ\C2H5B1F2O2\OHZDE\09-Apr-2025\0\\#t h
 f aug-cc-pvdz iop(5/13=1,5/36=2,99/5=2) pseudo=read geom=check guess=(
 read,tcheck) scf=(maxcycle=1)\\title\\0,1\F,0,1.813277,0.668833,-0.801
 22\B,0,1.192572,-0.153951,0.033259\F,0,1.865311,-1.202884,0.468874\C,0
 ,-0.3009,0.144781,0.471061\O,0,-1.076823,-0.488663,-0.527707\O,0,-0.57
 1566,1.529521,0.590582\C,0,-2.467031,-0.578828,-0.216582\H,0,-2.626719
 ,-1.203858,0.671393\H,0,-2.951969,-1.04217,-1.07492\H,0,-2.894264,0.41
 2466,-0.042766\H,0,-0.26376,1.958098,-0.217295\H,0,-0.538756,-0.270907

 Normal termination of Gaussian 16 at Wed Apr  9 00:34:01 2025.
