 Gaussian 16, Revision C.01,

 ----------------------------------------------------------------------
 #t hf aug-cc-pvdz symm=none int=(grid=ultrafine) guess=(read,tcheck) s
 table=opt
 ----------------------------------------------------------------------
 -----
 title
 -----
 Symbolic Z-matrix:
 Charge =  0 Multiplicity = 2

 SCF Done:  E(UHF) =  -518.436426965     A.U. after   16 cycles
 Normal termination of Gaussian 16 at Wed Apr  9 00:07:42 2025.
 Gaussian 16:  ES64L-G16RevC.01  3-Jul-2019

 ----------------------------------------------------------------------
 #t hf aug-cc-pvdz iop(5/13=1,5/36=2,99/5=2) pseudo=read geom=check gue
 ss=(read,tcheck) scf=(maxcycle=1)
 ----------------------------------------------------------------------
 -----
 title
 -----
 Structure from the checkpoint file:  "BDE49_nonexpt_2275_mol2.chk"
 Charge =  0 Multiplicity = 2

                         Standard orientation:
 ---------------------------------------------------------------------
 Center     Atomic      Atomic             Coordinates (Angstroms)
 Number     Number       Type             X           Y           Z
 ---------------------------------------------------------------------
      1         14           0       -0.083957   -1.191164   -0.127634
      2          6           0        1.556626   -0.260936    0.198940
      3          8           0        1.346833    1.142737   -0.082462
      4          1           0        2.358186   -0.671447   -0.428002
      5          1           0        1.851132   -0.399397    1.247527
      6          1           0        2.128053    1.638126    0.184625
      7          6           0       -1.483168   -0.046159    0.477614
      8          8           0       -1.467919    1.134636   -0.331828
      9          1           0       -1.368403    0.184535    1.546063
     10          1           0       -2.462691   -0.511425    0.350281
     11          1           0       -0.573931    1.503480   -0.271548
     12          1           0       -0.229008   -1.443992   -1.587066
 ---------------------------------------------------------------------

 SCF Done:  E(UHF) =  -518.701878328     A.U. after    2 cycles

 The electronic state is 2-A.
 Alpha  occ. eigenvalues --  -69.53339 -20.57287 -20.53377 -11.28891 -11.27118
 Alpha  occ. eigenvalues --   -6.20541  -3.96497  -3.95562  -3.95538  -1.46442
 Alpha  occ. eigenvalues --   -1.42959  -0.94973  -0.90882  -0.73660  -0.69598
 Alpha  occ. eigenvalues --   -0.66653  -0.63592  -0.58934  -0.57211  -0.56319
 Alpha  occ. eigenvalues --   -0.49296  -0.46696  -0.45296  -0.41090  -0.33258
 Alpha virt. eigenvalues --    0.02868   0.03991   0.04153   0.04873   0.06435
 Alpha virt. eigenvalues --    0.06782   0.07623   0.08473   0.08607   0.09946
 Alpha virt. eigenvalues --    0.12895   0.13814   0.14845   0.15649   0.15897

  Beta  occ. eigenvalues --  -69.52796 -20.57191 -20.53180 -11.28835 -11.27043
  Beta  occ. eigenvalues --   -6.19724  -3.95198  -3.95182  -3.94347  -1.46148
  Beta  occ. eigenvalues --   -1.42420  -0.94159  -0.90606  -0.72749  -0.67564
  Beta  occ. eigenvalues --   -0.65763  -0.63381  -0.58509  -0.56859  -0.54824
  Beta  occ. eigenvalues --   -0.48764  -0.46423  -0.44695  -0.39540
  Beta virt. eigenvalues --    0.02046   0.02954   0.04235   0.04908   0.05932
  Beta virt. eigenvalues --    0.06537   0.06873   0.08100   0.08843   0.09018
  Beta virt. eigenvalues --    0.10107   0.13239   0.14033   0.14978   0.16378

 Mulliken charges and spin densities:
               1          2
     1  Si   1.172276   0.892154
     2  C    0.122683   0.006992
     3  O   -1.133332   0.005048
     4  H    0.012245   0.000447
     5  H    0.063339  -0.001082
     6  H    0.355126   0.005145
     7  C    0.144450   0.029988
     8  O   -1.111028   0.031368
     9  H    0.071436  -0.001831
    10  H   -0.052919  -0.003531
    11  H    0.499791  -0.012661
    12  H   -0.144067   0.047963
 Sum of Mulliken charges =  -0.00000   1.00000

 Dipole moment (field-independent basis, Debye):
    X=              2.9281    Y=             -0.6649    Z=              1.6740  Tot=              3.4378
                          Isotropic Fermi Contact Couplings
        Atom                 a.u.       MegaHertz       Gauss      10(-4) cm-1
     1  Si(29)             0.53510    -475.55871    -169.69117    -158.62931
     2  C(13)              0.02565      28.83065      10.28749       9.61687
     3  O(17)              0.03600     -21.82523      -7.78778      -7.28011
     4  H(1)              -0.00032      -1.41954      -0.50653      -0.47351
     5  H(1)               0.00066       2.94601       1.05121       0.98268
     6  H(1)               0.00199       8.88860       3.17167       2.96492
     7  C(13)              0.02329      26.18568       9.34370       8.73460
     8  O(17)              0.01831     -11.10222      -3.96155      -3.70330

 Normal termination of Gaussian 16 at Wed Apr  9 00:07:47 2025.
