 Gaussian 16, Revision C.01,

 ----------------------------------------------------------------------
 #t hf aug-cc-pvdz symm=none int=(grid=ultrafine) guess=(read,tcheck) s
 table=(opt,rrhf)
 ----------------------------------------------------------------------
 -----
 title
 -----
 Symbolic Z-matrix:
 Charge =  0 Multiplicity = 1

 SCF Done:  E(RHF) =  -737.033240671     A.U. after   15 cycles
 Normal termination of Gaussian 16 at Tue Apr  8 22:57:44 2025.
 Gaussian 16:  ES64L-G16RevC.01  3-Jul-2019

 ----------------------------------------------------------------------
 #t hf aug-cc-pvdz iop(5/13=1,5/36=2,99/5=2) pseudo=read geom=check gue
 ss=(read,tcheck) scf=(maxcycle=1)
 ----------------------------------------------------------------------
 -----
 title
 -----
 Structure from the checkpoint file:  "BDE49_expt_1916_mol1.chk"
 Charge =  0 Multiplicity = 1

                         Standard orientation:
 ---------------------------------------------------------------------
 Center     Atomic      Atomic             Coordinates (Angstroms)
 Number     Number       Type             X           Y           Z
 ---------------------------------------------------------------------
      1          8           0       -0.947455   -0.421886   -0.789321
      2         16           0        0.462031   -0.150926    0.074850
      3          6           0        0.619564    1.618004   -0.066311
      4          1           0        0.778347    1.860941   -1.114927
      5          1           0        1.477270    1.908070    0.540317
      6          1           0       -0.296395    2.063694    0.316990
      7          8           0        1.446661   -0.815094   -0.725697
      8          8           0        0.207916   -0.499627    1.445614
      9          8           0       -2.061006    0.161375   -0.072387
     10          1           0       -2.238029   -0.524049    0.592209
 ---------------------------------------------------------------------

 SCF Done:  E(RHF) =  -737.431220531     A.U. after    2 cycles

 The electronic state is 1-A.
 Alpha  occ. eigenvalues --  -94.24825 -20.67201 -20.66402 -20.56999 -20.56816
 Alpha  occ. eigenvalues --  -11.30816  -8.49689  -6.47803  -6.47646  -6.47465
 Alpha  occ. eigenvalues --   -1.65695  -1.57603  -1.47651  -1.32985  -1.08136
 Alpha  occ. eigenvalues --   -0.87972  -0.77623  -0.74090  -0.70852  -0.69932
 Alpha  occ. eigenvalues --   -0.64713  -0.63112  -0.62489  -0.57998  -0.53057
 Alpha  occ. eigenvalues --   -0.52264  -0.51471  -0.49170  -0.47957
 Alpha virt. eigenvalues --    0.03175   0.04249   0.05213   0.05666   0.09576
 Alpha virt. eigenvalues --    0.10719   0.11399   0.12882   0.14409   0.15251
 Alpha virt. eigenvalues --    0.15597   0.15774   0.18000   0.19064   0.20773

 Mulliken charges:
               1
     1  O   -0.822945
     2  S    3.757264
     3  C   -0.816624
     4  H    0.255990
     5  H    0.274608
     6  H    0.291650
     7  O   -1.424309
     8  O   -1.464187
     9  O   -0.485174
    10  H    0.433728
 Sum of Mulliken charges =  -0.00000

 Dipole moment (field-independent basis, Debye):
    X=             -1.1565    Y=              3.2061    Z=              0.4955  Tot=              3.4441

 Test job not archived.
 1\1\GINC-SE128\SP\RHF\Aug-CC-pVDZ\C1H4O4S1\OHZDE\08-Apr-2025\0\\#t hf
 aug-cc-pvdz iop(5/13=1,5/36=2,99/5=2) pseudo=read geom=check guess=(re
 ad,tcheck) scf=(maxcycle=1)\\title\\0,1\O,0,-0.947455,-0.421886,-0.789
 321\S,0,0.462031,-0.150926,0.07485\C,0,0.619564,1.618004,-0.066311\H,0
 ,0.778347,1.860941,-1.114927\H,0,1.47727,1.90807,0.540317\H,0,-0.29639
 5,2.063694,0.31699\O,0,1.446661,-0.815094,-0.725697\O,0,0.207916,-0.49
 9627,1.445614\O,0,-2.061006,0.161375,-0.072387\H,0,-2.238029,-0.524049
 ,0.592209\\Version=ES64L-G16RevC.01\State=1-A\HF=-737.4312205\RMSD=7.4

 Normal termination of Gaussian 16 at Tue Apr  8 22:57:48 2025.
