 Gaussian 16, Revision C.01,

 ----------------------------------------------------------------------
 #t hf aug-cc-pvdz symm=none int=(grid=ultrafine) guess=(read,tcheck) s
 table=(opt,rrhf)
 ----------------------------------------------------------------------
 -----
 title
 -----
 Symbolic Z-matrix:
 Charge =  0 Multiplicity = 1

 SCF Done:  E(RHF) =  -802.224693995     A.U. after   16 cycles
 Normal termination of Gaussian 16 at Wed Apr  9 00:46:06 2025.
 Gaussian 16:  ES64L-G16RevC.01  3-Jul-2019

 ----------------------------------------------------------------------
 #t hf aug-cc-pvdz iop(5/13=1,5/36=2,99/5=2) pseudo=read geom=check gue
 ss=(read,tcheck) scf=(maxcycle=1)
 ----------------------------------------------------------------------
 -----
 title
 -----
 Structure from the checkpoint file:  "BDE49_nonexpt_741_mol1.chk"
 Charge =  0 Multiplicity = 1

                         Standard orientation:
 ---------------------------------------------------------------------
 Center     Atomic      Atomic             Coordinates (Angstroms)
 Number     Number       Type             X           Y           Z
 ---------------------------------------------------------------------
      1          6           0        2.059617    1.592101    0.745462
      2          6           0        0.740775    1.688191    0.307179
      3          6           0        2.808955    0.442095    0.530350
      4          6           0        2.245705   -0.648601   -0.149846
      5          6           0        0.919060   -0.544834   -0.600211
      6          6           0        0.159860    0.610345   -0.372926
      7          1           0        0.490172   -1.372920   -1.158802
      8          1           0        3.832545    0.382725    0.885461
      9          1           0        2.510791    2.427233    1.270447
     10          1           0        0.170101    2.588999    0.495994
     11          5           0       -2.474366   -0.457423    0.335256
     12          8           0       -3.835007   -0.467466    0.425867
     13          8           0       -1.798945   -1.292639    1.162454
     14          7           0        2.964714   -1.826048   -0.330126
     15          1           0        3.969007   -1.734123   -0.299350
     16          1           0        2.655209   -2.418356   -1.086228
     17          1           0       -4.273429    0.097160   -0.214509
     18          1           0       -0.842677   -1.186402    1.100169
     19         15           0       -1.564235    0.642502   -1.022587
     20          1           0       -1.961572    1.892655   -0.486377
 ---------------------------------------------------------------------

 SCF Done:  E(RHF) =  -802.736680719     A.U. after    2 cycles

 The electronic state is 1-A.
 Alpha  occ. eigenvalues --  -84.26351 -20.55972 -20.55357 -15.52090 -11.29964
 Alpha  occ. eigenvalues --  -11.26602 -11.25649 -11.24610 -11.24268 -11.24039
 Alpha  occ. eigenvalues --   -7.65469  -6.73683  -4.26716  -4.26241  -4.25652
 Alpha  occ. eigenvalues --   -1.47991  -1.44220  -1.23790  -1.14447  -1.03537
 Alpha  occ. eigenvalues --   -1.00552  -0.89144  -0.84782  -0.81680  -0.79175
 Alpha  occ. eigenvalues --   -0.73400  -0.71547  -0.68621  -0.67153  -0.63679
 Alpha  occ. eigenvalues --   -0.62306  -0.61293  -0.59375  -0.57093  -0.56893
 Alpha  occ. eigenvalues --   -0.56116  -0.52838  -0.49124  -0.48889  -0.48566
 Alpha  occ. eigenvalues --   -0.43239  -0.38177  -0.33305  -0.30909
 Alpha virt. eigenvalues --    0.02613   0.03460   0.03683   0.04553   0.05055
 Alpha virt. eigenvalues --    0.05682   0.06508   0.07335   0.07818   0.08567
 Alpha virt. eigenvalues --    0.08850   0.09090   0.09466   0.10489   0.10700

 Mulliken charges:
               1
     1  C    0.281868
     2  C   -0.102489
     3  C    0.787262
     4  C   -1.345809
     5  C    0.402982
     6  C    0.360972
     7  H   -0.316083
     8  H   -0.292192
     9  H   -0.234978
    10  H   -0.291438
    11  B    2.089494
    12  O   -1.398662
    13  O   -1.387523
    14  N    0.762223
    15  H    0.024970
    16  H    0.012533
    17  H    0.534521
    18  H    0.792337
    19  P   -0.856206
    20  H    0.176218
 Sum of Mulliken charges =  -0.00000

 Dipole moment (field-independent basis, Debye):
    X=              2.7725    Y=              1.1507    Z=             -1.8006  Tot=              3.5004

 Test job not archived.
 1\1\GINC-SE016\SP\RHF\Aug-CC-pVDZ\C6H9B1N1O2P1\OHZDE\09-Apr-2025\0\\#t
  hf aug-cc-pvdz iop(5/13=1,5/36=2,99/5=2) pseudo=read geom=check guess
 =(read,tcheck) scf=(maxcycle=1)\\title\\0,1\C,0,-2.059617,1.592101,-0.
 745462\C,0,-0.740775,1.688191,-0.307179\C,0,-2.808955,0.442095,-0.5303
 5\C,0,-2.245705,-0.648601,0.149846\C,0,-0.91906,-0.544834,0.600211\C,0
 ,-0.15986,0.610345,0.372926\H,0,-0.490172,-1.37292,1.158802\H,0,-3.832
 545,0.382725,-0.885461\H,0,-2.510791,2.427233,-1.270447\H,0,-0.170101,
 2.588999,-0.495994\B,0,2.474366,-0.457423,-0.335256\O,0,3.835007,-0.46

 Normal termination of Gaussian 16 at Wed Apr  9 00:46:19 2025.
