 Gaussian 16, Revision C.01,

 ----------------------------------------------------------------------
 #t hf aug-cc-pvdz symm=none int=(grid=ultrafine) guess=(read,tcheck) s
 table=(opt,rrhf)
 ----------------------------------------------------------------------
 -----
 title
 -----
 Symbolic Z-matrix:
 Charge =  0 Multiplicity = 1

 SCF Done:  E(RHF) =  -1151.13307641     A.U. after   14 cycles
 Normal termination of Gaussian 16 at Wed Apr  9 00:05:38 2025.
 Gaussian 16:  ES64L-G16RevC.01  3-Jul-2019

 ----------------------------------------------------------------------
 #t hf aug-cc-pvdz iop(5/13=1,5/36=2,99/5=2) pseudo=read geom=check gue
 ss=(read,tcheck) scf=(maxcycle=1)
 ----------------------------------------------------------------------
 -----
 title
 -----
 Structure from the checkpoint file:  "BDE49_nonexpt_221_mol1.chk"
 Charge =  0 Multiplicity = 1

                         Standard orientation:
 ---------------------------------------------------------------------
 Center     Atomic      Atomic             Coordinates (Angstroms)
 Number     Number       Type             X           Y           Z
 ---------------------------------------------------------------------
      1         17           0        1.253986    1.716147   -0.000244
      2          5           0        0.666342    0.058631    0.000872
      3         17           0        1.874880   -1.234102   -0.000412
      4          6           0       -0.848963   -0.294614    0.000453
      5          7           0       -1.620723    0.741995    0.000352
      6          8           0       -2.960252    0.398580    0.000015
      7          1           0       -3.402152    1.255380   -0.000001
      8          6           0       -1.392056   -1.700615    0.000189
      9          1           0       -0.593653   -2.439137    0.000324
     10          1           0       -2.026504   -1.857619   -0.876711
     11          1           0       -2.026942   -1.857776    0.876744
 ---------------------------------------------------------------------

 SCF Done:  E(RHF) =  -1151.51688914     A.U. after    2 cycles

 The electronic state is 1-A.
 Alpha  occ. eigenvalues -- -105.57963-105.57251 -20.61144 -15.59871 -11.28499
 Alpha  occ. eigenvalues --  -11.24792 -10.62984 -10.62266  -7.79875  -7.79598
 Alpha  occ. eigenvalues --   -7.79557  -7.79167  -7.78876  -7.78829  -7.72055
 Alpha  occ. eigenvalues --   -1.53384  -1.20384  -1.10757  -1.05882  -0.99722
 Alpha  occ. eigenvalues --   -0.83640  -0.74250  -0.70936  -0.65654  -0.64221
 Alpha  occ. eigenvalues --   -0.60867  -0.57663  -0.56960  -0.55822  -0.53097
 Alpha  occ. eigenvalues --   -0.49680  -0.47750  -0.47521  -0.45950  -0.42027
 Alpha virt. eigenvalues --    0.02984   0.03400   0.04378   0.05001   0.05632
 Alpha virt. eigenvalues --    0.06315   0.06868   0.06934   0.07376   0.13295
 Alpha virt. eigenvalues --    0.13494   0.13733   0.14358   0.15787   0.16569

 Mulliken charges:
               1
     1  Cl  -0.274024
     2  B    0.740230
     3  Cl  -0.318156
     4  C   -0.846361
     5  N    1.388292
     6  O   -1.156582
     7  H    0.299813
     8  C   -0.425210
     9  H    0.063608
    10  H    0.264164
    11  H    0.264225
 Sum of Mulliken charges =  -0.00000

 Dipole moment (field-independent basis, Debye):
    X=             -1.7157    Y=             -0.9654    Z=              0.0017  Tot=              1.9686

 Test job not archived.
 1\1\GINC-SE252\SP\RHF\Aug-CC-pVDZ\C2H4B1Cl2N1O1\OHZDE\09-Apr-2025\0\\#
 t hf aug-cc-pvdz iop(5/13=1,5/36=2,99/5=2) pseudo=read geom=check gues
 s=(read,tcheck) scf=(maxcycle=1)\\title\\0,1\Cl,0,1.253986,1.716147,-0
 .000244\B,0,0.666342,0.058631,0.000872\Cl,0,1.87488,-1.234102,-0.00041
 2\C,0,-0.848963,-0.294614,0.000453\N,0,-1.620723,0.741995,0.000352\O,0
 ,-2.960252,0.39858,0.000015\H,0,-3.402152,1.25538,-0.000001\C,0,-1.392
 056,-1.700615,0.000189\H,0,-0.593653,-2.439137,0.000324\H,0,-2.026504,
 -1.857619,-0.876711\H,0,-2.026942,-1.857776,0.876744\\Version=ES64L-G1

 Normal termination of Gaussian 16 at Wed Apr  9 00:05:42 2025.
