 Gaussian 16, Revision C.01,

 ----------------------------------------------------------------------
 #t hf aug-cc-pvdz symm=none int=(grid=ultrafine) guess=(read,tcheck) s
 table=(opt,rrhf)
 ----------------------------------------------------------------------
 -----
 title
 -----
 Symbolic Z-matrix:
 Charge =  0 Multiplicity = 1

 SCF Done:  E(RHF) =  -228.654161384     A.U. after   14 cycles
 Normal termination of Gaussian 16 at Tue Apr  8 22:52:31 2025.
 Gaussian 16:  ES64L-G16RevC.01  3-Jul-2019

 ----------------------------------------------------------------------
 #t hf aug-cc-pvdz iop(5/13=1,5/36=2,99/5=2) pseudo=read geom=check gue
 ss=(read,tcheck) scf=(maxcycle=1)
 ----------------------------------------------------------------------
 -----
 title
 -----
 Structure from the checkpoint file:  "BDE49_expt_1809_mol1.chk"
 Charge =  0 Multiplicity = 1

                         Standard orientation:
 ---------------------------------------------------------------------
 Center     Atomic      Atomic             Coordinates (Angstroms)
 Number     Number       Type             X           Y           Z
 ---------------------------------------------------------------------
      1          7           0        0.000000    0.562066    0.000000
      2          8           0        1.074784    0.204980   -0.000000
      3          9           0       -0.955363   -0.619367    0.000000
 ---------------------------------------------------------------------

 SCF Done:  E(RHF) =  -228.860998437     A.U. after    2 cycles

 The electronic state is 1-A'.
 Alpha  occ. eigenvalues --  -26.46631 -20.73502 -15.81141  -1.77972  -1.54303
 Alpha  occ. eigenvalues --   -1.02248  -0.81939  -0.81186  -0.76451  -0.60362
 Alpha  occ. eigenvalues --   -0.59890  -0.51564
 Alpha virt. eigenvalues --    0.01960   0.09432   0.11638   0.13962   0.14791
 Alpha virt. eigenvalues --    0.15993   0.20117   0.22764   0.24260   0.29041
 Alpha virt. eigenvalues --    0.29929   0.35003   0.38384   0.48298   0.58658

 Mulliken charges:
               1
     1  N    1.285932
     2  O   -0.707893
     3  F   -0.578040
 Sum of Mulliken charges =   0.00000

 Dipole moment (field-independent basis, Debye):
    X=              1.5723    Y=              0.9292    Z=              0.0000  Tot=              1.8263

 Test job not archived.
 1\1\GINC-SE424\SP\RHF\Aug-CC-pVDZ\F1N1O1\OHZDE\08-Apr-2025\0\\#t hf au
 g-cc-pvdz iop(5/13=1,5/36=2,99/5=2) pseudo=read geom=check guess=(read
 ,tcheck) scf=(maxcycle=1)\\title\\0,1\N,0,0.,0.562066,0.\O,0,1.074784,
 0.204981,0.\F,0,-0.955363,-0.619367,0.\\Version=ES64L-G16RevC.01\State
 =1-A'\HF=-228.8609984\RMSD=1.448e-02\Dipole=0.6185985,0.3655602,0.\Qua
 drupole=-0.3556073,-0.395604,0.7512113,-0.3043245,0.,0.\PG=CS [SG(F1N1
 O1)]\\@

 Normal termination of Gaussian 16 at Tue Apr  8 22:52:33 2025.
