 Gaussian 16, Revision C.01,

 ----------------------------------------------------------------------
 #t hf aug-cc-pvdz symm=none int=(grid=ultrafine) guess=(read,tcheck) s
 table=(opt,rrhf)
 ----------------------------------------------------------------------
 -----
 title
 -----
 Symbolic Z-matrix:
 Charge =  0 Multiplicity = 1

 SCF Done:  E(RHF) =  -324.797450382     A.U. after   15 cycles
 Normal termination of Gaussian 16 at Tue Apr  8 22:40:14 2025.
 Gaussian 16:  ES64L-G16RevC.01  3-Jul-2019

 ----------------------------------------------------------------------
 #t hf aug-cc-pvdz iop(5/13=1,5/36=2,99/5=2) pseudo=read geom=check gue
 ss=(read,tcheck) scf=(maxcycle=1)
 ----------------------------------------------------------------------
 -----
 title
 -----
 Structure from the checkpoint file:  "BDE49_expt_1303_mol1.chk"
 Charge =  0 Multiplicity = 1

                         Standard orientation:
 ---------------------------------------------------------------------
 Center     Atomic      Atomic             Coordinates (Angstroms)
 Number     Number       Type             X           Y           Z
 ---------------------------------------------------------------------
      1          6           0        2.838417    0.363818    0.095222
      2          7           0        1.788270   -0.608612   -0.137556
      3          1           0        2.834061    1.132661   -0.683010
      4          1           0        3.802345   -0.144390    0.045460
      5          1           0        2.759778    0.867150    1.070510
      6          6           0        0.442842   -0.274098   -0.052718
      7          6           0       -0.525128   -1.296186   -0.005468
      8          6           0        0.000013    1.059446   -0.049453
      9          6           0       -1.362454    1.348926   -0.010001
     10          6           0       -2.312614    0.333819    0.035387
     11          6           0       -1.877748   -0.993036    0.038979
     12          1           0       -3.369907    0.567602    0.068855
     13          1           0       -2.600670   -1.800968    0.076302
     14          1           0       -0.201230   -2.332808   -0.010905
     15          1           0        0.715203    1.871444   -0.079552
     16          1           0       -1.678788    2.386656   -0.010282
     17          1           0        2.001361   -1.543204    0.173821
 ---------------------------------------------------------------------

 SCF Done:  E(RHF) =  -325.139386706     A.U. after    2 cycles

 The electronic state is 1-A.
 Alpha  occ. eigenvalues --  -15.50671 -11.28123 -11.26809 -11.24016 -11.23968
 Alpha  occ. eigenvalues --  -11.22854 -11.22680 -11.22309  -1.23857  -1.13124
 Alpha  occ. eigenvalues --   -1.01305  -1.00526  -0.93098  -0.83814  -0.81227
 Alpha  occ. eigenvalues --   -0.73599  -0.69171  -0.65944  -0.62853  -0.61866
 Alpha  occ. eigenvalues --   -0.60236  -0.59122  -0.55266  -0.52318  -0.51588
 Alpha  occ. eigenvalues --   -0.49503  -0.44815  -0.34289  -0.30224
 Alpha virt. eigenvalues --    0.03239   0.03899   0.04041   0.04828   0.05001
 Alpha virt. eigenvalues --    0.05574   0.07131   0.08052   0.09640   0.10162
 Alpha virt. eigenvalues --    0.10928   0.11946   0.12913   0.13629   0.13785

 Mulliken charges:
               1
     1  C   -0.336026
     2  N    0.775144
     3  H    0.117225
     4  H   -0.020962
     5  H    0.152954
     6  C   -0.988560
     7  C    0.292133
     8  C    0.428035
     9  C    0.525252
    10  C   -0.088575
    11  C    0.435856
    12  H   -0.229262
    13  H   -0.218615
    14  H   -0.314951
    15  H   -0.395692
    16  H   -0.223547
    17  H    0.089593
 Sum of Mulliken charges =  -0.00000

 Dipole moment (field-independent basis, Debye):
    X=              1.3278    Y=             -0.2639    Z=              0.6449  Tot=              1.4995

 Test job not archived.
 1\1\GINC-SE073\SP\RHF\Aug-CC-pVDZ\C7H9N1\OHZDE\08-Apr-2025\0\\#t hf au
 g-cc-pvdz iop(5/13=1,5/36=2,99/5=2) pseudo=read geom=check guess=(read
 ,tcheck) scf=(maxcycle=1)\\title\\0,1\C,0,2.838417,0.363818,0.095222\N
 ,0,1.78827,-0.608612,-0.137556\H,0,2.834061,1.132661,-0.68301\H,0,3.80
 2345,-0.14439,0.04546\H,0,2.759778,0.86715,1.07051\C,0,0.442842,-0.274
 098,-0.052718\C,0,-0.525128,-1.296186,-0.005468\C,0,0.000013,1.059446,
 -0.049453\C,0,-1.362454,1.348926,-0.010001\C,0,-2.312614,0.333819,0.03
 5387\C,0,-1.877748,-0.993036,0.038979\H,0,-3.369907,0.567602,0.068855\

 Normal termination of Gaussian 16 at Tue Apr  8 22:40:20 2025.
