 Gaussian 16, Revision C.01,

 ----------------------------------------------------------------------
 #t hf aug-cc-pvdz symm=none int=(grid=ultrafine) guess=(read,tcheck) s
 table=opt
 ----------------------------------------------------------------------
 -----
 title
 -----
 Symbolic Z-matrix:
 Charge =  0 Multiplicity = 2

 SCF Done:  E(UHF) =  -514.390471065     A.U. after   18 cycles
 Normal termination of Gaussian 16 at Tue Apr  8 23:08:27 2025.
 Gaussian 16:  ES64L-G16RevC.01  3-Jul-2019

 ----------------------------------------------------------------------
 #t hf aug-cc-pvdz iop(5/13=1,5/36=2,99/5=2) pseudo=read geom=check gue
 ss=(read,tcheck) scf=(maxcycle=1)
 ----------------------------------------------------------------------
 -----
 title
 -----
 Structure from the checkpoint file:  "BDE49_expt_350_mol2.chk"
 Charge =  0 Multiplicity = 2

                         Standard orientation:
 ---------------------------------------------------------------------
 Center     Atomic      Atomic             Coordinates (Angstroms)
 Number     Number       Type             X           Y           Z
 ---------------------------------------------------------------------
      1          6           0        0.207444    1.847315    0.726945
      2          6           0       -0.225232    0.581385    1.492674
      3          7           0        0.051499   -0.670541    0.805618
      4          1           0       -1.295999    0.626848    1.691434
      5          1           0        0.272814    0.579932    2.470788
      6          8           0       -0.115956    1.800647   -0.655807
      7          1           0        1.291155    1.967306    0.775277
      8          1           0       -0.250593    2.718931    1.214957
      9          1           0       -1.002549    1.406355   -0.770695
     10          6           0       -0.940529   -1.407946    0.185714
     11          6           0        1.430452   -1.138497    0.699363
     12          6           0        2.060755   -0.961084   -0.691788
     13          1           0        2.033302   -0.600413    1.435097
     14          1           0        1.461256   -2.205013    0.963334
     15          8           0        2.268151    0.383826   -1.062096
     16          1           0        1.444132   -1.494085   -1.430839
     17          1           0        3.044227   -1.441451   -0.680221
     18          1           0        1.402117    0.817438   -1.168448
     19          6           0       -2.300088   -0.904444   -0.076628
     20          1           0       -0.613345   -2.334881   -0.264608
     21          8           0       -2.376921    0.181138   -1.078958
     22          1           0       -2.787089   -0.455438    0.792658
     23          1           0       -2.930698   -1.733340   -0.408869
     24          1           0       -2.028226   -0.183655   -1.901994
 ---------------------------------------------------------------------

 SCF Done:  E(UHF) =  -514.922438038     A.U. after    2 cycles

 The electronic state is 2-A.
 Alpha  occ. eigenvalues --  -20.56794 -20.54079 -20.52313 -15.51859 -11.30313
 Alpha  occ. eigenvalues --  -11.28378 -11.27798 -11.27526 -11.26861 -11.26200
 Alpha  occ. eigenvalues --   -1.45932  -1.44374  -1.42556  -1.26070  -1.04169
 Alpha  occ. eigenvalues --   -1.03196  -0.96882  -0.88179  -0.86894  -0.78870
 Alpha  occ. eigenvalues --   -0.72907  -0.70109  -0.69793  -0.69176  -0.65880
 Alpha  occ. eigenvalues --   -0.63721  -0.62380  -0.62019  -0.61524  -0.59504
 Alpha  occ. eigenvalues --   -0.56604  -0.54352  -0.53959  -0.52678  -0.51563
 Alpha  occ. eigenvalues --   -0.49987  -0.47759  -0.45481  -0.43807  -0.42326
 Alpha  occ. eigenvalues --   -0.29435
 Alpha virt. eigenvalues --    0.03180   0.03522   0.03869   0.04475   0.04922
 Alpha virt. eigenvalues --    0.05245   0.05336   0.05918   0.07448   0.08568
 Alpha virt. eigenvalues --    0.09104   0.09552   0.10099   0.10810   0.12116

  Beta  occ. eigenvalues --  -20.56397 -20.54086 -20.52317 -15.50853 -11.30611
  Beta  occ. eigenvalues --  -11.28330 -11.27751 -11.27622 -11.26960 -11.24212
  Beta  occ. eigenvalues --   -1.45178  -1.44043  -1.42537  -1.23574  -1.03137
  Beta  occ. eigenvalues --   -1.01453  -0.96307  -0.87513  -0.86391  -0.76983
  Beta  occ. eigenvalues --   -0.72269  -0.69535  -0.69403  -0.67517  -0.65284
  Beta  occ. eigenvalues --   -0.63071  -0.61866  -0.61574  -0.59576  -0.59008
  Beta  occ. eigenvalues --   -0.56132  -0.54208  -0.53507  -0.50982  -0.50682
  Beta  occ. eigenvalues --   -0.49544  -0.46363  -0.43986  -0.43257  -0.39116
  Beta virt. eigenvalues --    0.03249   0.03394   0.03805   0.04417   0.04925
  Beta virt. eigenvalues --    0.05138   0.05302   0.05919   0.07371   0.08459
  Beta virt. eigenvalues --    0.09065   0.09536   0.10094   0.10342   0.11252

 Mulliken charges and spin densities:
               1          2
     1  C    0.862894   0.012588
     2  C   -0.937294  -0.042800
     3  N    1.684804   0.130079
     4  H   -0.023943  -0.000561
     5  H    0.085833   0.002579
     6  O   -1.410885   0.004995
     7  H    0.148190  -0.000020
     8  H    0.010761   0.000650
     9  H    0.627901  -0.002539
    10  C   -0.416898   1.191179
    11  C   -0.788713  -0.059506
    12  C    0.868127   0.016153
    13  H    0.049004   0.005555
    14  H    0.127162   0.003991
    15  O   -1.316984  -0.000572
    16  H    0.112832  -0.000514
    17  H    0.034143  -0.001783
    18  H    0.575869   0.000671
    19  C    0.624433  -0.246006
    20  H   -0.306111  -0.078453
    21  O   -1.130896   0.058970
    22  H    0.119823   0.002748
    23  H    0.059567   0.011712
    24  H    0.340380  -0.009113
 Sum of Mulliken charges =  -0.00000   1.00000

 Dipole moment (field-independent basis, Debye):
    X=             -1.7037    Y=             -2.4586    Z=              1.7079  Tot=              3.4445
                          Isotropic Fermi Contact Couplings
        Atom                 a.u.       MegaHertz       Gauss      10(-4) cm-1
     1  C(13)              0.01137      12.78377       4.56157       4.26421
     2  C(13)             -0.01573     -17.68742      -6.31131      -5.89989
     3  N(14)              0.10352      33.44922      11.93551      11.15746
     4  H(1)               0.00062       2.76855       0.98789       0.92349
     5  H(1)               0.00232      10.35624       3.69537       3.45447
     6  O(17)             -0.00171       1.03647       0.36984       0.34573
     7  H(1)              -0.00027      -1.19578      -0.42669      -0.39887
     8  H(1)               0.00011       0.47268       0.16866       0.15767

 Normal termination of Gaussian 16 at Tue Apr  8 23:08:46 2025.
