 Gaussian 16, Revision C.01,

 ----------------------------------------------------------------------
 #t hf aug-cc-pvdz symm=none int=(grid=ultrafine) guess=(read,tcheck) s
 table=(opt,rrhf)
 ----------------------------------------------------------------------
 -----
 title
 -----
 Symbolic Z-matrix:
 Charge =  0 Multiplicity = 1

 SCF Done:  E(RHF) =  -629.597941304     A.U. after   14 cycles
 Normal termination of Gaussian 16 at Tue Apr  8 23:51:04 2025.
 Gaussian 16:  ES64L-G16RevC.01  3-Jul-2019

 ----------------------------------------------------------------------
 #t hf aug-cc-pvdz iop(5/13=1,5/36=2,99/5=2) pseudo=read geom=check gue
 ss=(read,tcheck) scf=(maxcycle=1)
 ----------------------------------------------------------------------
 -----
 title
 -----
 Structure from the checkpoint file:  "BDE49_nonexpt_1886_mol1.chk"
 Charge =  0 Multiplicity = 1

                         Standard orientation:
 ---------------------------------------------------------------------
 Center     Atomic      Atomic             Coordinates (Angstroms)
 Number     Number       Type             X           Y           Z
 ---------------------------------------------------------------------
      1         14           0       -0.895491   -0.972047   -0.135866
      2          6           0        0.860774   -0.979561    0.591218
      3          8           0       -1.324495    0.585691   -0.595357
      4          1           0       -1.824463   -1.552728    0.857472
      5          1           0       -0.936544   -1.707171   -1.417879
      6          8           0       -1.202285    1.384627    0.632008
      7          1           0       -0.266518    1.648929    0.555762
      8          8           0        1.833596   -0.302016   -0.221110
      9          8           0        1.546353    1.129700   -0.161829
     10          1           0        1.431604    1.320011   -1.104004
     11          1           0        1.240005   -2.008094    0.615530
     12          1           0        0.902796   -0.598952    1.618228
 ---------------------------------------------------------------------

 SCF Done:  E(RHF) =  -629.964270540     A.U. after    2 cycles

 The electronic state is 1-A.
 Alpha  occ. eigenvalues --  -69.57198 -20.63588 -20.63579 -20.62161 -20.60193
 Alpha  occ. eigenvalues --  -11.29761  -6.23898  -3.99360  -3.99223  -3.99188
 Alpha  occ. eigenvalues --   -1.59692  -1.56901  -1.31434  -1.27285  -0.94157
 Alpha  occ. eigenvalues --   -0.75494  -0.73985  -0.71687  -0.66650  -0.64766
 Alpha  occ. eigenvalues --   -0.63092  -0.60420  -0.57686  -0.53574  -0.51732
 Alpha  occ. eigenvalues --   -0.50363  -0.47758  -0.47365  -0.42848
 Alpha virt. eigenvalues --    0.03440   0.04313   0.04705   0.05021   0.06740
 Alpha virt. eigenvalues --    0.07636   0.07951   0.08258   0.10512   0.11110
 Alpha virt. eigenvalues --    0.14222   0.14822   0.15735   0.16064   0.16939

 Mulliken charges:
               1
     1  Si   1.738389
     2  C    0.217146
     3  O   -0.820573
     4  H   -0.172472
     5  H   -0.137462
     6  O   -0.712895
     7  H    0.612274
     8  O   -0.742302
     9  O   -0.465689
    10  H    0.439676
    11  H   -0.046007
    12  H    0.089915
 Sum of Mulliken charges =  -0.00000

 Dipole moment (field-independent basis, Debye):
    X=              1.0541    Y=             -1.4520    Z=             -0.0475  Tot=              1.7949

 Test job not archived.
 1\1\GINC-SE105\SP\RHF\Aug-CC-pVDZ\C1H6O4Si1\OHZDE\08-Apr-2025\0\\#t hf
  aug-cc-pvdz iop(5/13=1,5/36=2,99/5=2) pseudo=read geom=check guess=(r
 ead,tcheck) scf=(maxcycle=1)\\title\\0,1\Si,0,-0.895491,-0.972047,-0.1
 35866\C,0,0.860774,-0.979561,0.591218\O,0,-1.324495,0.585691,-0.595357
 \H,0,-1.824463,-1.552729,0.857472\H,0,-0.936544,-1.707171,-1.417879\O,
 0,-1.202286,1.384627,0.632008\H,0,-0.266519,1.648929,0.555762\O,0,1.83
 3596,-0.302015,-0.22111\O,0,1.546353,1.129701,-0.161829\H,0,1.431603,1
 .320012,-1.104004\H,0,1.240006,-2.008094,0.61553\H,0,0.902796,-0.59895

 Normal termination of Gaussian 16 at Tue Apr  8 23:51:08 2025.
