 Gaussian 16, Revision C.01,

 ----------------------------------------------------------------------
 #t hf aug-cc-pvdz symm=none int=(grid=ultrafine) guess=(read,tcheck) s
 table=(opt,rrhf)
 ----------------------------------------------------------------------
 -----
 title
 -----
 Symbolic Z-matrix:
 Charge =  0 Multiplicity = 1

 SCF Done:  E(RHF) =  -722.531975670     A.U. after   15 cycles
 Normal termination of Gaussian 16 at Tue Apr  8 23:16:50 2025.
 Gaussian 16:  ES64L-G16RevC.01  3-Jul-2019

 ----------------------------------------------------------------------
 #t hf aug-cc-pvdz iop(5/13=1,5/36=2,99/5=2) pseudo=read geom=check gue
 ss=(read,tcheck) scf=(maxcycle=1)
 ----------------------------------------------------------------------
 -----
 title
 -----
 Structure from the checkpoint file:  "BDE49_nonexpt_1042_mol1.chk"
 Charge =  0 Multiplicity = 1

                         Standard orientation:
 ---------------------------------------------------------------------
 Center     Atomic      Atomic             Coordinates (Angstroms)
 Number     Number       Type             X           Y           Z
 ---------------------------------------------------------------------
      1         17           0       -1.671615    0.366742   -0.000000
      2          8           0        0.000000    0.780116   -0.000000
      3          6           0        0.832233   -0.309720    0.000000
      4          8           0        0.523561   -1.460401    0.000000
      5          8           0        2.069999    0.202184    0.000000
      6          1           0        2.675574   -0.551495    0.000000
 ---------------------------------------------------------------------

 SCF Done:  E(RHF) =  -722.856990107     A.U. after    2 cycles

 The electronic state is 1-A'.
 Alpha  occ. eigenvalues -- -105.65158 -20.67488 -20.63711 -20.57018 -11.47873
 Alpha  occ. eigenvalues --  -10.69316  -7.86323  -7.85713  -7.85698  -1.62060
 Alpha  occ. eigenvalues --   -1.51708  -1.49858  -1.07302  -0.87879  -0.77222
 Alpha  occ. eigenvalues --   -0.74697  -0.71706  -0.64751  -0.61840  -0.60013
 Alpha  occ. eigenvalues --   -0.51424  -0.50066  -0.49511  -0.47413
 Alpha virt. eigenvalues --    0.03140   0.04918   0.08572   0.09196   0.10237
 Alpha virt. eigenvalues --    0.13128   0.14629   0.15065   0.15174   0.18322
 Alpha virt. eigenvalues --    0.19237   0.20729   0.21866   0.22071   0.25190

 Mulliken charges:
               1
     1  Cl   0.374102
     2  O   -1.097280
     3  C    2.253067
     4  O   -0.859955
     5  O   -0.932281
     6  H    0.262346
 Sum of Mulliken charges =   0.00000

 Dipole moment (field-independent basis, Debye):
    X=              1.2931    Y=              0.1438    Z=             -0.0000  Tot=              1.3010

 Test job not archived.
 1\1\GINC-SE461\SP\RHF\Aug-CC-pVDZ\C1H1Cl1O3\OHZDE\08-Apr-2025\0\\#t hf
  aug-cc-pvdz iop(5/13=1,5/36=2,99/5=2) pseudo=read geom=check guess=(r
 ead,tcheck) scf=(maxcycle=1)\\title\\0,1\Cl,0,-1.671615,0.366743,0.\O,
 0,0.,0.780116,0.\C,0,0.832233,-0.30972,0.\O,0,0.52356,-1.460401,0.\O,0
 ,2.069999,0.202184,0.\H,0,2.675574,-0.551496,0.\\Version=ES64L-G16RevC
 .01\State=1-A'\HF=-722.8569901\RMSD=7.339e-03\Dipole=0.5087272,0.05658
 61,0.\Quadrupole=5.4562985,-4.6078817,-0.8484168,-2.2248124,0.,0.\PG=C
 S [SG(C1H1Cl1O3)]\\@

 Normal termination of Gaussian 16 at Tue Apr  8 23:16:52 2025.
