 Gaussian 16, Revision C.01,

 ----------------------------------------------------------------------
 #t hf aug-cc-pvdz symm=none int=(grid=ultrafine) guess=(read,tcheck) s
 table=(opt,rrhf)
 ----------------------------------------------------------------------
 -----
 title
 -----
 Symbolic Z-matrix:
 Charge =  0 Multiplicity = 1

 SCF Done:  E(RHF) =  -644.459605920     A.U. after   18 cycles
 Normal termination of Gaussian 16 at Wed Apr  9 00:54:00 2025.
 Gaussian 16:  ES64L-G16RevC.01  3-Jul-2019

 ----------------------------------------------------------------------
 #t hf aug-cc-pvdz iop(5/13=1,5/36=2,99/5=2) pseudo=read geom=check gue
 ss=(read,tcheck) scf=(maxcycle=1)
 ----------------------------------------------------------------------
 -----
 title
 -----
 Structure from the checkpoint file:  "BDE49_nonexpt_994_mol1.chk"
 Charge =  0 Multiplicity = 1

                         Standard orientation:
 ---------------------------------------------------------------------
 Center     Atomic      Atomic             Coordinates (Angstroms)
 Number     Number       Type             X           Y           Z
 ---------------------------------------------------------------------
      1         16           0       -0.390111   -0.915369   -0.516958
      2          7           0       -1.995470   -0.163967    0.018565
      3          8           0       -1.933811    0.804648    0.691872
      4          6           0        0.837234    0.202413    0.264473
      5          6           0        2.083624   -0.594874    0.660021
      6          1           0        2.594829   -1.001227   -0.216826
      7          1           0        1.836199   -1.423669    1.325903
      8          6           0        1.150950    1.399769   -0.636310
      9          1           0        0.325032    0.559052    1.164880
     10          1           0        1.845182    2.076569   -0.127514
     11          1           0        0.247024    1.961984   -0.876201
     12          1           0        1.613563    1.077782   -1.572809
     13          1           0        2.787876    0.062152    1.179862
 ---------------------------------------------------------------------

 SCF Done:  E(RHF) =  -644.767411286     A.U. after    2 cycles

 The electronic state is 1-A.
 Alpha  occ. eigenvalues --  -93.97964 -20.64307 -15.69083 -11.28666 -11.24752
 Alpha  occ. eigenvalues --  -11.24125  -8.25949  -6.23714  -6.23517  -6.23328
 Alpha  occ. eigenvalues --   -1.64092  -1.12909  -1.04892  -0.95411  -0.91263
 Alpha  occ. eigenvalues --   -0.79521  -0.72648  -0.71101  -0.65456  -0.63434
 Alpha  occ. eigenvalues --   -0.60296  -0.58881  -0.56230  -0.51800  -0.51367
 Alpha  occ. eigenvalues --   -0.46126  -0.40299  -0.38335
 Alpha virt. eigenvalues --    0.03507   0.04073   0.04321   0.05302   0.05697
 Alpha virt. eigenvalues --    0.06925   0.07167   0.07613   0.08204   0.09455
 Alpha virt. eigenvalues --    0.12576   0.13112   0.13788   0.15181   0.15607

 Mulliken charges:
               1
     1  S    0.401966
     2  N    0.638614
     3  O   -0.965302
     4  C   -1.118439
     5  C   -0.102781
     6  H    0.202166
     7  H    0.149124
     8  C   -0.208960
     9  H    0.291356
    10  H    0.168986
    11  H    0.123566
    12  H    0.227855
    13  H    0.191849
 Sum of Mulliken charges =   0.00000

 Dipole moment (field-independent basis, Debye):
    X=              2.7237    Y=              0.7604    Z=              0.5408  Tot=              2.8791

 Test job not archived.
 1\1\GINC-SE184\SP\RHF\Aug-CC-pVDZ\C3H7N1O1S1\OHZDE\09-Apr-2025\0\\#t h
 f aug-cc-pvdz iop(5/13=1,5/36=2,99/5=2) pseudo=read geom=check guess=(
 read,tcheck) scf=(maxcycle=1)\\title\\0,1\S,0,-0.390111,-0.915369,-0.5
 16958\N,0,-1.99547,-0.163967,0.018565\O,0,-1.933811,0.804648,0.691872\
 C,0,0.837234,0.202413,0.264473\C,0,2.083624,-0.594874,0.660021\H,0,2.5
 94829,-1.001227,-0.216826\H,0,1.836199,-1.423669,1.325903\C,0,1.15095,
 1.399769,-0.63631\H,0,0.325032,0.559052,1.16488\H,0,1.845182,2.076569,
 -0.127514\H,0,0.247024,1.961984,-0.876201\H,0,1.613563,1.077782,-1.572

 Normal termination of Gaussian 16 at Wed Apr  9 00:54:21 2025.
