 Gaussian 16, Revision C.01,

 ----------------------------------------------------------------------
 #t hf aug-cc-pvdz symm=none int=(grid=ultrafine) guess=(read,tcheck) s
 table=(opt,rrhf)
 ----------------------------------------------------------------------
 -----
 title
 -----
 Symbolic Z-matrix:
 Charge =  0 Multiplicity = 1

 SCF Done:  E(RHF) =  -687.469145345     A.U. after   17 cycles
 Normal termination of Gaussian 16 at Wed Apr  9 00:05:42 2025.
 Gaussian 16:  ES64L-G16RevC.01  3-Jul-2019

 ----------------------------------------------------------------------
 #t hf aug-cc-pvdz iop(5/13=1,5/36=2,99/5=2) pseudo=read geom=check gue
 ss=(read,tcheck) scf=(maxcycle=1)
 ----------------------------------------------------------------------
 -----
 title
 -----
 Structure from the checkpoint file:  "BDE49_nonexpt_2205_mol1.chk"
 Charge =  0 Multiplicity = 1

                         Standard orientation:
 ---------------------------------------------------------------------
 Center     Atomic      Atomic             Coordinates (Angstroms)
 Number     Number       Type             X           Y           Z
 ---------------------------------------------------------------------
      1          6           0       -1.990076   -0.044218   -0.000002
      2          6           0       -1.467135    1.259262    0.000001
      3          6           0       -0.097905    1.463506    0.000000
      4          6           0       -1.111376   -1.135254   -0.000007
      5          6           0        0.261890   -0.931350   -0.000008
      6          6           0        0.775089    0.369957   -0.000004
      7          1           0       -1.508499   -2.142643   -0.000010
      8          1           0        0.929882   -1.784971   -0.000012
      9          8           0        2.107149    0.638138   -0.000006
     10         14           0        3.436116   -0.371169    0.000010
     11          1           0       -2.142414    2.105777    0.000005
     12          1           0        0.321070    2.461679    0.000003
     13          6           0       -3.403087   -0.255855   -0.000001
     14          7           0       -4.546104   -0.426503    0.000000
     15          1           0        4.593722    0.537237    0.000018
     16          1           0        3.430884   -1.228295   -1.205889
     17          1           0        3.430860   -1.228287    1.205913
 ---------------------------------------------------------------------

 SCF Done:  E(RHF) =  -687.896493335     A.U. after    2 cycles

 The electronic state is 1-A.
 Alpha  occ. eigenvalues --  -69.58600 -20.58494 -15.51190 -11.34689 -11.28927
 Alpha  occ. eigenvalues --  -11.28649 -11.28426 -11.28204 -11.26889 -11.26354
 Alpha  occ. eigenvalues --   -6.25195  -4.00700  -4.00542  -4.00521  -1.50325
 Alpha  occ. eigenvalues --   -1.23324  -1.18520  -1.05957  -1.05547  -0.90478
 Alpha  occ. eigenvalues --   -0.88339  -0.79722  -0.78163  -0.71096  -0.69035
 Alpha  occ. eigenvalues --   -0.65614  -0.63398  -0.62965  -0.61441  -0.58396
 Alpha  occ. eigenvalues --   -0.58066  -0.56177  -0.53703  -0.51147  -0.49938
 Alpha  occ. eigenvalues --   -0.49130  -0.48124  -0.38173  -0.35149
 Alpha virt. eigenvalues --    0.02581   0.03224   0.03637   0.04773   0.04773
 Alpha virt. eigenvalues --    0.05748   0.06538   0.06638   0.07739   0.08444
 Alpha virt. eigenvalues --    0.08501   0.09784   0.10075   0.10457   0.11418

 Mulliken charges:
               1
     1  C    2.361565
     2  C    0.467175
     3  C    0.289044
     4  C    0.171310
     5  C    0.449637
     6  C    0.757896
     7  H   -0.303337
     8  H   -0.313200
     9  O   -2.212113
    10  Si   1.283346
    11  H   -0.293193
    12  H   -0.261494
    13  C   -3.017043
    14  N    1.043364
    15  H   -0.162055
    16  H   -0.130453
    17  H   -0.130450
 Sum of Mulliken charges =   0.00000

 Dipole moment (field-independent basis, Debye):
    X=              6.1931    Y=              0.1157    Z=              0.0000  Tot=              6.1942

 Test job not archived.
 1\1\GINC-SE338\SP\RHF\Aug-CC-pVDZ\C7H7N1O1Si1\OHZDE\09-Apr-2025\0\\#t
 hf aug-cc-pvdz iop(5/13=1,5/36=2,99/5=2) pseudo=read geom=check guess=
 (read,tcheck) scf=(maxcycle=1)\\title\\0,1\C,0,-1.990076,-0.044218,-0.
 000002\C,0,-1.467135,1.259262,0.000001\C,0,-0.097905,1.463506,0.\C,0,-
 1.111376,-1.135254,-0.000007\C,0,0.26189,-0.93135,-0.000008\C,0,0.7750
 89,0.369957,-0.000004\H,0,-1.508499,-2.142643,-0.00001\H,0,0.929882,-1
 .784971,-0.000012\O,0,2.107149,0.638138,-0.000006\Si,0,3.436116,-0.371
 169,0.00001\H,0,-2.142414,2.105777,0.000005\H,0,0.32107,2.461679,0.000

 Normal termination of Gaussian 16 at Wed Apr  9 00:05:50 2025.
