 Gaussian 16, Revision C.01,

 ----------------------------------------------------------------------
 #t hf aug-cc-pvdz symm=none int=(grid=ultrafine) guess=(read,tcheck) s
 table=(opt,rrhf)
 ----------------------------------------------------------------------
 -----
 title
 -----
 Symbolic Z-matrix:
 Charge =  0 Multiplicity = 1

 SCF Done:  E(RHF) =  -915.632791042     A.U. after   15 cycles
 Normal termination of Gaussian 16 at Tue Apr  8 23:20:06 2025.
 Gaussian 16:  ES64L-G16RevC.01  3-Jul-2019

 ----------------------------------------------------------------------
 #t hf aug-cc-pvdz iop(5/13=1,5/36=2,99/5=2) pseudo=read geom=check gue
 ss=(read,tcheck) scf=(maxcycle=1)
 ----------------------------------------------------------------------
 -----
 title
 -----
 Structure from the checkpoint file:  "BDE49_nonexpt_1072_mol1.chk"
 Charge =  0 Multiplicity = 1

                         Standard orientation:
 ---------------------------------------------------------------------
 Center     Atomic      Atomic             Coordinates (Angstroms)
 Number     Number       Type             X           Y           Z
 ---------------------------------------------------------------------
      1         17           0       -2.263824   -0.666048   -0.085926
      2          8           0       -0.790722   -0.212060   -0.879723
      3          6           0        0.290384    0.083084    0.016566
      4          8           0        0.502392   -1.026734    0.797013
      5          8           0        0.042521    1.168379    0.814418
      6          8           0        1.339364    0.380950   -0.844517
      7          6           0        1.426563   -0.860538    1.880846
      8          1           0        1.596722   -1.861418    2.274020
      9          1           0        1.003554   -0.220047    2.655453
     10          1           0        2.370621   -0.436549    1.527499
     11          6           0       -0.171393    2.418968    0.144602
     12          1           0       -0.483181    3.115014    0.921172
     13          1           0       -0.959940    2.323723   -0.604697
     14          1           0        0.748811    2.767597   -0.326432
     15          6           0        1.758490   -0.661637   -1.740304
     16          1           0        2.742616   -0.362621   -2.098209
     17          1           0        1.067250   -0.749839   -2.579621
     18          1           0        1.825847   -1.616579   -1.216237
 ---------------------------------------------------------------------

 SCF Done:  E(RHF) =  -916.167561276     A.U. after    2 cycles

 The electronic state is 1-A.
 Alpha  occ. eigenvalues -- -105.61485 -20.62359 -20.56908 -20.56852 -20.56685
 Alpha  occ. eigenvalues --  -11.46406 -11.29077 -11.29071 -11.28904 -10.65656
 Alpha  occ. eigenvalues --   -7.82652  -7.82106  -7.82084  -1.58989  -1.46728
 Alpha  occ. eigenvalues --   -1.46531  -1.45290  -1.03713  -0.98742  -0.95585
 Alpha  occ. eigenvalues --   -0.94630  -0.81150  -0.74517  -0.73703  -0.73386
 Alpha  occ. eigenvalues --   -0.65761  -0.64277  -0.61929  -0.60997  -0.60289
 Alpha  occ. eigenvalues --   -0.59564  -0.57619  -0.56699  -0.53695  -0.51534
 Alpha  occ. eigenvalues --   -0.49991  -0.47587  -0.46196  -0.45600  -0.44758
 Alpha  occ. eigenvalues --   -0.43886
 Alpha virt. eigenvalues --    0.03671   0.04194   0.04273   0.04949   0.06138
 Alpha virt. eigenvalues --    0.06273   0.06961   0.07238   0.07711   0.08953
 Alpha virt. eigenvalues --    0.10145   0.12855   0.13182   0.13467   0.14589

 Mulliken charges:
               1
     1  Cl   0.195183
     2  O   -1.352371
     3  C    4.434446
     4  O   -1.544139
     5  O   -1.540681
     6  O   -1.584018
     7  C    0.083250
     8  H    0.005471
     9  H    0.187139
    10  H    0.198271
    11  C    0.034006
    12  H   -0.010359
    13  H    0.190791
    14  H    0.180723
    15  C    0.125662
    16  H    0.025581
    17  H    0.168046
    18  H    0.203000
 Sum of Mulliken charges =  -0.00000

 Dipole moment (field-independent basis, Debye):
    X=              1.9873    Y=              0.6104    Z=              0.1216  Tot=              2.0825

 Test job not archived.
 1\1\GINC-SE105\SP\RHF\Aug-CC-pVDZ\C4H9Cl1O4\OHZDE\08-Apr-2025\0\\#t hf
  aug-cc-pvdz iop(5/13=1,5/36=2,99/5=2) pseudo=read geom=check guess=(r
 ead,tcheck) scf=(maxcycle=1)\\title\\0,1\Cl,0,-2.263824,-0.666048,-0.0
 85926\O,0,-0.790722,-0.21206,-0.879723\C,0,0.290384,0.083084,0.016566\
 O,0,0.502392,-1.026734,0.797013\O,0,0.042521,1.168379,0.814418\O,0,1.3
 39364,0.38095,-0.844517\C,0,1.426563,-0.860538,1.880846\H,0,1.596722,-
 1.861418,2.27402\H,0,1.003554,-0.220047,2.655453\H,0,2.370621,-0.43654
 9,1.527499\C,0,-0.171393,2.418968,0.144602\H,0,-0.483181,3.115014,0.92

 Normal termination of Gaussian 16 at Tue Apr  8 23:20:15 2025.
