 Gaussian 16, Revision C.01,

 ----------------------------------------------------------------------
 #t hf aug-cc-pvdz symm=none int=(grid=ultrafine) guess=(read,tcheck) s
 table=opt
 ----------------------------------------------------------------------
 -----
 title
 -----
 Symbolic Z-matrix:
 Charge =  0 Multiplicity = 2

 SCF Done:  E(UHF) =  -527.457014253     A.U. after   15 cycles
 Normal termination of Gaussian 16 at Tue Apr  8 23:55:20 2025.
 Gaussian 16:  ES64L-G16RevC.01  3-Jul-2019

 ----------------------------------------------------------------------
 #t hf aug-cc-pvdz iop(5/13=1,5/36=2,99/5=2) pseudo=read geom=check gue
 ss=(read,tcheck) scf=(maxcycle=1)
 ----------------------------------------------------------------------
 -----
 title
 -----
 Structure from the checkpoint file:  "BDE49_nonexpt_1977_mol2.chk"
 Charge =  0 Multiplicity = 2

                         Standard orientation:
 ---------------------------------------------------------------------
 Center     Atomic      Atomic             Coordinates (Angstroms)
 Number     Number       Type             X           Y           Z
 ---------------------------------------------------------------------
      1         14           0       -0.717629   -0.574967    0.112843
      2          6           0        1.066362   -0.340401   -0.491980
      3          9           0       -1.544605    0.786854   -0.162343
      4          1           0        1.098756    0.059292   -1.509565
      5          1           0        1.606347   -1.292840   -0.472042
      6          9           0        1.730915    0.561973    0.359465
      7          1           0       -0.733256   -0.813941    1.579581
 ---------------------------------------------------------------------

 SCF Done:  E(UHF) =  -527.708812053     A.U. after    2 cycles

 The electronic state is 2-A.
 Alpha  occ. eigenvalues --  -69.60106 -26.45939 -26.45729 -11.32653  -6.26771
 Alpha  occ. eigenvalues --   -4.02543  -4.01843  -4.01626  -1.57402  -1.56931
 Alpha  occ. eigenvalues --   -0.96474  -0.77466  -0.69880  -0.68953  -0.66735
 Alpha  occ. eigenvalues --   -0.65162  -0.64096  -0.59262  -0.53877  -0.48202
 Alpha  occ. eigenvalues --   -0.36678
 Alpha virt. eigenvalues --    0.03363   0.04380   0.04713   0.06436   0.07707
 Alpha virt. eigenvalues --    0.07835   0.10407   0.13389   0.13890   0.15126
 Alpha virt. eigenvalues --    0.16772   0.17591   0.19247   0.20973   0.22774

  Beta  occ. eigenvalues --  -69.59554 -26.45639 -26.45542 -11.32441  -6.25904
  Beta  occ. eigenvalues --   -4.01507  -4.01290  -4.00468  -1.56836  -1.56194
  Beta  occ. eigenvalues --   -0.95613  -0.75156  -0.69626  -0.67597  -0.66203
  Beta  occ. eigenvalues --   -0.64204  -0.62583  -0.57098  -0.53679  -0.46598
  Beta virt. eigenvalues --    0.01271   0.04094   0.04529   0.05173   0.07717
  Beta virt. eigenvalues --    0.07877   0.08301   0.10870   0.14217   0.14725
  Beta virt. eigenvalues --    0.15931   0.17599   0.19543   0.21461   0.22066

 Mulliken charges and spin densities:
               1          2
     1  Si   1.483603   0.858695
     2  C    0.072835   0.048174
     3  F   -0.792086   0.009696
     4  H    0.070443  -0.001131
     5  H    0.051910  -0.005183
     6  F   -0.676563   0.012822
     7  H   -0.210142   0.076928
 Sum of Mulliken charges =   0.00000   1.00000

 Dipole moment (field-independent basis, Debye):
    X=              0.1865    Y=             -2.1953    Z=             -0.8999  Tot=              2.3799
                          Isotropic Fermi Contact Couplings
        Atom                 a.u.       MegaHertz       Gauss      10(-4) cm-1
     1  Si(29)             0.68716    -610.70218    -217.91372    -203.70832
     2  C(13)              0.06250      70.26579      25.07258      23.43815
     3  F(19)              0.04571     192.30911      68.62067      64.14742
     4  H(1)              -0.00151      -6.76674      -2.41454      -2.25714
     5  H(1)              -0.00150      -6.70642      -2.39302      -2.23702
     6  F(19)              0.03133     131.80133      47.02999      43.96419
     7  H(1)               0.01743      77.90282      27.79766      25.98558
 --------------------------------------------------------

 Normal termination of Gaussian 16 at Tue Apr  8 23:55:23 2025.
