 Gaussian 16, Revision C.01,

 ----------------------------------------------------------------------
 #t hf aug-cc-pvdz symm=none int=(grid=ultrafine) guess=(read,tcheck) s
 table=opt
 ----------------------------------------------------------------------
 -----
 title
 -----
 Symbolic Z-matrix:
 Charge =  0 Multiplicity = 2

 SCF Done:  E(UHF) =  -811.770485989     A.U. after   24 cycles
 Normal termination of Gaussian 16 at Wed Apr  9 00:59:06 2025.
 Gaussian 16:  ES64L-G16RevC.01  3-Jul-2019

 ----------------------------------------------------------------------
 #t hf aug-cc-pvdz iop(5/13=1,5/36=2,99/5=2) pseudo=read geom=check gue
 ss=(read,tcheck) scf=(maxcycle=1)
 ----------------------------------------------------------------------
 -----
 title
 -----
 Structure from the checkpoint file:  "BH10_150_reverse_mol2.chk"
 Charge =  0 Multiplicity = 2

                         Standard orientation:
 ---------------------------------------------------------------------
 Center     Atomic      Atomic             Coordinates (Angstroms)
 Number     Number       Type             X           Y           Z
 ---------------------------------------------------------------------
      1          7           0        0.190667   -1.520153   -0.012804
      2          1           0       -0.508797   -2.208812   -0.282500
      3          6           0       -0.363185   -0.299105    0.289299
      4          6           0        0.416262    0.812983    0.874401
      5          6           0       -1.791498   -0.247568   -0.015690
      6          1           0       -0.228360    1.419925    1.509336
      7          1           0        1.242659    0.445937    1.474460
      8         16           0        1.102379    1.986437   -0.375030
      9          8           0       -2.394560   -1.267321   -0.335745
     10          1           0        2.014050    1.124671   -0.857593
     11          7           0       -2.414516    0.963153    0.109541
     12          1           0       -3.368441    0.984153   -0.217127
     13          1           0       -1.882934    1.810142   -0.015756
     14          6           0        1.511156   -1.860590   -0.103458
     15          1           0        1.644098   -2.923633   -0.353577
     16          8           0        2.442084   -1.104016    0.060591
 ---------------------------------------------------------------------

 SCF Done:  E(UHF) =  -812.242423921     A.U. after    2 cycles

 The electronic state is 2-A.
 Alpha  occ. eigenvalues --  -93.95808 -20.54431 -20.53463 -15.56594 -15.53887
 Alpha  occ. eigenvalues --  -11.38288 -11.37484 -11.31513 -11.29255  -8.23901
 Alpha  occ. eigenvalues --   -6.21855  -6.21618  -6.21366  -1.49674  -1.48443
 Alpha  occ. eigenvalues --   -1.29494  -1.23975  -1.11164  -1.02806  -0.92130
 Alpha  occ. eigenvalues --   -0.88845  -0.82106  -0.79884  -0.75634  -0.69762
 Alpha  occ. eigenvalues --   -0.68487  -0.67463  -0.65300  -0.62357  -0.61532
 Alpha  occ. eigenvalues --   -0.60575  -0.56242  -0.51197  -0.48757  -0.47878
 Alpha  occ. eigenvalues --   -0.46020  -0.45675  -0.38202  -0.33580
 Alpha virt. eigenvalues --    0.02980   0.03743   0.04558   0.05639   0.06031
 Alpha virt. eigenvalues --    0.06475   0.07430   0.08815   0.09142   0.10546
 Alpha virt. eigenvalues --    0.10912   0.11493   0.13047   0.13300   0.14371

  Beta  occ. eigenvalues --  -93.95698 -20.53885 -20.52677 -15.56592 -15.53828
  Beta  occ. eigenvalues --  -11.38374 -11.37862 -11.29612 -11.29409  -8.23768
  Beta  occ. eigenvalues --   -6.21602  -6.21404  -6.21249  -1.48516  -1.46938
  Beta  occ. eigenvalues --   -1.28133  -1.23609  -1.09529  -0.99961  -0.91695
  Beta  occ. eigenvalues --   -0.88434  -0.81830  -0.79233  -0.75276  -0.69355
  Beta  occ. eigenvalues --   -0.67195  -0.65011  -0.62876  -0.62157  -0.60390
  Beta  occ. eigenvalues --   -0.58932  -0.54907  -0.48399  -0.46921  -0.45356
  Beta  occ. eigenvalues --   -0.45141  -0.43327  -0.37583
  Beta virt. eigenvalues --    0.02991   0.03662   0.03772   0.04590   0.05923
  Beta virt. eigenvalues --    0.06036   0.06498   0.07479   0.08909   0.09533
  Beta virt. eigenvalues --    0.10587   0.10989   0.11807   0.13095   0.13386

 Mulliken charges and spin densities:
               1          2
     1  N    0.962381   0.033011
     2  H    0.182983   0.008020
     3  C   -0.462145   1.170626
     4  C   -0.539227  -0.245619
     5  C    0.218218  -0.321425
     6  H    0.182276   0.011048
     7  H    0.072205   0.000394
     8  S   -0.026168   0.090605
     9  O   -1.463791   0.186786
    10  H    0.359183  -0.012483
    11  N    0.780875   0.007952
    12  H    0.126994  -0.004322
    13  H    0.096468   0.000810
    14  C    0.555829  -0.051305
    15  H    0.033710  -0.000330
    16  O   -1.079790   0.126231
 Sum of Mulliken charges =  -0.00000   1.00000

 Dipole moment (field-independent basis, Debye):
    X=             -0.9766    Y=              0.0068    Z=              0.3247  Tot=              1.0292
                          Isotropic Fermi Contact Couplings
        Atom                 a.u.       MegaHertz       Gauss      10(-4) cm-1
     1  N(14)             -0.02766      -8.93567      -3.18847      -2.98062
     2  H(1)              -0.00061      -2.73769      -0.97687      -0.91319
     3  C(13)              0.17760     199.66183      71.24431      66.60002
     4  C(13)             -0.06006     -67.51505     -24.09105     -22.52060
     5  C(13)             -0.06486     -72.91945     -26.01947     -24.32331
     6  H(1)               0.00627      28.03986      10.00532       9.35309
     7  H(1)               0.00503      22.48785       8.02423       7.50114
     8  S(33)              0.05108      17.54614       6.26090       5.85276

 Normal termination of Gaussian 16 at Wed Apr  9 00:59:16 2025.
