 Gaussian 16, Revision C.01,

 ----------------------------------------------------------------------
 #t hf aug-cc-pvdz symm=none int=(grid=ultrafine) guess=(read,tcheck) s
 table=(opt,rrhf)
 ----------------------------------------------------------------------
 -----
 title
 -----
 Symbolic Z-matrix:
 Charge =  0 Multiplicity = 1

 SCF Done:  E(RHF) =  -693.156613653     A.U. after   12 cycles
 Normal termination of Gaussian 16 at Wed Apr  9 00:55:00 2025.
 Gaussian 16:  ES64L-G16RevC.01  3-Jul-2019

 ----------------------------------------------------------------------
 #t hf aug-cc-pvdz iop(5/13=1,5/36=2,99/5=2) pseudo=read geom=check gue
 ss=(read,tcheck) scf=(maxcycle=1)
 ----------------------------------------------------------------------
 -----
 title
 -----
 Structure from the checkpoint file:  "BH10-RE_119_mol2.chk"
 Charge =  0 Multiplicity = 1

                         Standard orientation:
 ---------------------------------------------------------------------
 Center     Atomic      Atomic             Coordinates (Angstroms)
 Number     Number       Type             X           Y           Z
 ---------------------------------------------------------------------
      1          6           0       -0.447521    0.429391    0.000019
      2          6           0        0.497666    0.545560   -1.192127
      3          6           0        0.497624    0.545408    1.192211
      4          6           0       -1.607712    1.400539    0.000060
      5          6           0        1.772140   -0.205188   -0.775713
      6          6           0        1.772088   -0.205326    0.775755
      7          1           0        0.709381    1.611130   -1.330540
      8          1           0        0.051051    0.176180   -2.115021
      9          1           0        0.050971    0.175941    2.115052
     10          1           0        0.709363    1.610959    1.330743
     11          1           0       -2.231351    1.265368   -0.884358
     12          1           0       -1.222879    2.423825    0.000136
     13          1           0       -2.231387    1.265251    0.884434
     14          1           0        2.663647    0.268240   -1.188647
     15          1           0        1.748153   -1.227469   -1.153465
     16          1           0        2.663594    0.267974    1.188838
     17          1           0        1.748011   -1.227675    1.153319
     18         17           0       -1.150839   -1.274825   -0.000102
 ---------------------------------------------------------------------

 SCF Done:  E(RHF) =  -693.490749174     A.U. after    2 cycles

 The electronic state is 1-A.
 Alpha  occ. eigenvalues -- -105.53826 -11.30414 -11.23716 -11.23675 -11.23625
 Alpha  occ. eigenvalues --  -11.22879 -11.22871 -10.58674  -7.75595  -7.75266
 Alpha  occ. eigenvalues --   -7.75259  -1.16742  -1.04960  -0.98567  -0.97996
 Alpha  occ. eigenvalues --   -0.90838  -0.79348  -0.74924  -0.66759  -0.65777
 Alpha  occ. eigenvalues --   -0.61295  -0.60691  -0.57904  -0.54984  -0.50815
 Alpha  occ. eigenvalues --   -0.50367  -0.48953  -0.48668  -0.47668  -0.47006
 Alpha  occ. eigenvalues --   -0.43287  -0.42666
 Alpha virt. eigenvalues --    0.03366   0.03716   0.03995   0.04594   0.05767
 Alpha virt. eigenvalues --    0.06058   0.06271   0.06561   0.08412   0.09053
 Alpha virt. eigenvalues --    0.09579   0.10767   0.12570   0.13200   0.14419

 Mulliken charges:
               1
     1  C   -1.396708
     2  C    0.032690
     3  C    0.032710
     4  C    0.113457
     5  C   -0.136557
     6  C   -0.136569
     7  H    0.186448
     8  H    0.077278
     9  H    0.077275
    10  H    0.186460
    11  H    0.200728
    12  H    0.224066
    13  H    0.200726
    14  H    0.113442
    15  H    0.145733
    16  H    0.113424
    17  H    0.145728
    18  Cl  -0.180331
 Sum of Mulliken charges =  -0.00000

 Dipole moment (field-independent basis, Debye):
    X=              1.1522    Y=              2.2340    Z=              0.0002  Tot=              2.5136

 Test job not archived.
 1\1\GINC-SE365\SP\RHF\Aug-CC-pVDZ\C6H11Cl1\OHZDE\09-Apr-2025\0\\#t hf
 aug-cc-pvdz iop(5/13=1,5/36=2,99/5=2) pseudo=read geom=check guess=(re
 ad,tcheck) scf=(maxcycle=1)\\title\\0,1\C,0,-0.447521,0.429391,0.00001
 9\C,0,0.497666,0.54556,-1.192127\C,0,0.497624,0.545408,1.192211\C,0,-1
 .607712,1.400539,0.00006\C,0,1.77214,-0.205188,-0.775713\C,0,1.772088,
 -0.205326,0.775755\H,0,0.709381,1.61113,-1.33054\H,0,0.051051,0.17618,
 -2.115021\H,0,0.050971,0.175941,2.115052\H,0,0.709363,1.610959,1.33074
 3\H,0,-2.231351,1.265368,-0.884358\H,0,-1.222879,2.423825,0.000136\H,0

 Normal termination of Gaussian 16 at Wed Apr  9 00:55:07 2025.
