 Gaussian 16, Revision C.01,

 ----------------------------------------------------------------------
 #t hf aug-cc-pvdz symm=none int=(grid=ultrafine) guess=(read,tcheck) s
 table=(opt,rrhf)
 ----------------------------------------------------------------------
 -----
 title
 -----
 Symbolic Z-matrix:
 Charge =  0 Multiplicity = 1

 SCF Done:  E(RHF) =  -1000.89898136     A.U. after   16 cycles
 Normal termination of Gaussian 16 at Wed Apr  9 02:26:26 2025.
 Gaussian 16:  ES64L-G16RevC.01  3-Jul-2019

 ----------------------------------------------------------------------
 #t hf aug-cc-pvdz iop(5/13=1,5/36=2,99/5=2) pseudo=read geom=check gue
 ss=(read,tcheck) scf=(maxcycle=1)
 ----------------------------------------------------------------------
 -----
 title
 -----
 Structure from the checkpoint file:  "BH10_85_forward_mol2.chk"
 Charge =  0 Multiplicity = 1

                         Standard orientation:
 ---------------------------------------------------------------------
 Center     Atomic      Atomic             Coordinates (Angstroms)
 Number     Number       Type             X           Y           Z
 ---------------------------------------------------------------------
      1          6           0       -0.249352   -0.501251   -0.684632
      2          6           0        2.155206   -0.557749    0.051728
      3          6           0       -1.419736   -1.156441   -0.699558
      4          6           0        2.467182    0.880687   -0.124389
      5          6           0        3.906188    1.264177   -0.414381
      6          6           0        0.944006   -1.116319   -0.175389
      7          6           0        1.839237    3.144444   -0.166555
      8          6           0        3.228850   -1.477148    0.524214
      9          6           0       -2.726967   -0.577823   -1.103246
     10          6           0       -3.667807   -1.626886   -1.707026
     11          1           0       -3.904533   -2.411912   -0.983082
     12          1           0       -3.215311   -2.110340   -2.576698
     13          1           0       -2.549378    0.218668   -1.835488
     14          1           0       -4.610114   -1.180627   -2.028707
     15          7           0        1.533800    1.738985    0.001303
     16         14           0       -3.484777    0.316681    0.414760
     17          6           0       -2.449101    1.831261    0.794576
     18          6           0       -5.240031    0.837515   -0.008050
     19          6           0       -3.503507   -0.853933    1.881182
     20          1           0        0.931815    3.726754   -0.009230
     21          1           0        2.217580    3.371070   -1.170818
     22          1           0        2.591425    3.491458    0.552080
     23          1           0       -5.267948    1.449127   -0.913703
     24          1           0       -5.667553    1.432337    0.803469
     25          1           0       -5.894000   -0.023137   -0.164836
     26          1           0       -2.499902    2.554293   -0.024195
     27          1           0       -1.397409    1.581214    0.950910
     28          1           0       -2.815003    2.329863    1.696156
     29          1           0       -2.489724   -1.133669    2.176400
     30          1           0       -4.055041   -1.771257    1.660050
     31          1           0       -3.981543   -0.384216    2.744619
     32          6           0        4.636408   -0.924241    0.540016
     33          6           0        4.839090    0.073837   -0.592608
     34          1           0        5.324796   -1.767883    0.493871
     35          1           0        4.792031   -0.429670    1.507036
     36          1           0        4.638599   -0.418560   -1.549178
     37          1           0        5.875904    0.414123   -0.625517
     38          1           0        4.262444    1.888381    0.414107
     39          1           0        3.924527    1.907860   -1.298517
     40          8           0        3.004568   -2.619239    0.868757
     41          1           0       -0.194908    0.529125   -1.008558
     42          1           0       -1.443262   -2.177411   -0.319021
     43          1           0        0.882246   -2.178888    0.047735
 ---------------------------------------------------------------------

 SCF Done:  E(RHF) =  -1001.68330455     A.U. after    2 cycles

 The electronic state is 1-A.
 Alpha  occ. eigenvalues --  -69.50766 -20.51391 -15.48174 -11.32653 -11.28820
 Alpha  occ. eigenvalues --  -11.26436 -11.25789 -11.25225 -11.24698 -11.24529
 Alpha  occ. eigenvalues --  -11.23916 -11.23302 -11.23092 -11.22752 -11.22426
 Alpha  occ. eigenvalues --  -11.20862 -11.20652 -11.20065  -6.17840  -3.93172
 Alpha  occ. eigenvalues --   -3.93163  -3.93153  -1.45293  -1.23551  -1.12121
 Alpha  occ. eigenvalues --   -1.10828  -1.06567  -1.00696  -0.99028  -0.97162
 Alpha  occ. eigenvalues --   -0.94977  -0.92833  -0.92431  -0.90208  -0.85910
 Alpha  occ. eigenvalues --   -0.81171  -0.78428  -0.76004  -0.70400  -0.68504
 Alpha  occ. eigenvalues --   -0.67977  -0.66099  -0.65035  -0.62983  -0.61698
 Alpha  occ. eigenvalues --   -0.61116  -0.59995  -0.59287  -0.58825  -0.58258
 Alpha  occ. eigenvalues --   -0.57111  -0.57031  -0.56509  -0.55597  -0.54527
 Alpha  occ. eigenvalues --   -0.54253  -0.53884  -0.53383  -0.53064  -0.52389
 Alpha  occ. eigenvalues --   -0.52104  -0.50222  -0.49529  -0.48865  -0.46267
 Alpha  occ. eigenvalues --   -0.44499  -0.43816  -0.43656  -0.41871  -0.40324
 Alpha  occ. eigenvalues --   -0.39274  -0.30998
 Alpha virt. eigenvalues --    0.02861   0.02922   0.03106   0.03293   0.03811
 Alpha virt. eigenvalues --    0.03880   0.04373   0.04976   0.05094   0.05310
 Alpha virt. eigenvalues --    0.05840   0.06188   0.06379   0.06929   0.07007

 Mulliken charges:
               1
     1  C    0.981038
     2  C    2.179477
     3  C    0.637539
     4  C   -3.072034
     5  C   -0.716485
     6  C   -0.224939
     7  C   -0.277178
     8  C    0.944989
     9  C   -1.099112
    10  C   -0.417468
    11  H    0.180017
    12  H    0.177324
    13  H   -0.114373
    14  H    0.111285
    15  N    1.798836
    16  Si   2.522751
    17  C   -0.424616
    18  C   -0.578972
    19  C   -0.470281
    20  H   -0.108615
    21  H    0.198309
    22  H    0.171501
    23  H    0.022841
    24  H   -0.089166
    25  H   -0.038958
    26  H   -0.073003
    27  H    0.004305
    28  H   -0.057667
    29  H   -0.004896
    30  H   -0.017007
    31  H   -0.060255
    32  C   -0.370314
    33  C   -0.336703
    34  H    0.141605
    35  H    0.282041
    36  H    0.182956
    37  H    0.151178
    38  H    0.291849
    39  H    0.216951
    40  O   -1.663139
    41  H   -0.230056
    42  H   -0.340648
    43  H   -0.410906
 Sum of Mulliken charges =  -0.00000

 Dipole moment (field-independent basis, Debye):
    X=             -0.0111    Y=              2.6635    Z=             -1.6122  Tot=              3.1134

 Test job not archived.
 1\1\GINC-SE333\SP\RHF\Aug-CC-pVDZ\C15H25N1O1Si1\OHZDE\09-Apr-2025\0\\#
 t hf aug-cc-pvdz iop(5/13=1,5/36=2,99/5=2) pseudo=read geom=check gues
 s=(read,tcheck) scf=(maxcycle=1)\\title\\0,1\C,0,0.249352,-0.501251,0.
 684632\C,0,-2.155206,-0.557749,-0.051728\C,0,1.419736,-1.156441,0.6995
 58\C,0,-2.467182,0.880687,0.124389\C,0,-3.906188,1.264177,0.414381\C,0
 ,-0.944006,-1.116319,0.175389\C,0,-1.839237,3.144444,0.166555\C,0,-3.2
 2885,-1.477148,-0.524214\C,0,2.726967,-0.577823,1.103246\C,0,3.667807,
 -1.626886,1.707026\H,0,3.904533,-2.411912,0.983082\H,0,3.215311,-2.110

 Normal termination of Gaussian 16 at Wed Apr  9 02:27:49 2025.
