 Gaussian 16, Revision C.01,

 ----------------------------------------------------------------------
 #t hf aug-cc-pvdz symm=none int=(grid=ultrafine) guess=(read,tcheck) s
 table=(opt,rrhf)
 ----------------------------------------------------------------------
 -----
 title
 -----
 Symbolic Z-matrix:
 Charge =  0 Multiplicity = 1

 SCF Done:  E(RHF) =  -1125.27065551     A.U. after   15 cycles
 Normal termination of Gaussian 16 at Wed Apr  9 02:23:44 2025.
 Gaussian 16:  ES64L-G16RevC.01  3-Jul-2019

 ----------------------------------------------------------------------
 #t hf aug-cc-pvdz iop(5/13=1,5/36=2,99/5=2) pseudo=read geom=check gue
 ss=(read,tcheck) scf=(maxcycle=1)
 ----------------------------------------------------------------------
 -----
 title
 -----
 Structure from the checkpoint file:  "BH10_298_reverse_mol2.chk"
 Charge =  0 Multiplicity = 1

                         Standard orientation:
 ---------------------------------------------------------------------
 Center     Atomic      Atomic             Coordinates (Angstroms)
 Number     Number       Type             X           Y           Z
 ---------------------------------------------------------------------
      1          6           0       -0.995073   -2.773659   -0.480642
      2          6           0       -0.184826   -1.573462   -1.054403
      3          6           0       -2.409676    0.024917    0.401260
      4          1           0       -0.294902   -3.582805   -0.259241
      5          6           0       -0.879833   -0.906619   -2.263217
      6          1           0       -0.367776    0.029594   -2.512017
      7          1           0       -0.735834   -1.560443   -3.130220
      8          1           0       -3.023258    0.699244    1.005242
      9          1           0        0.750305   -1.986348   -1.441922
     10          6           0       -2.376507   -0.643664   -2.131389
     11          1           0       -2.743626   -0.271490   -3.093105
     12          1           0       -2.895310   -1.592828   -1.973321
     13          6           0       -2.802209    0.344880   -1.051443
     14          1           0       -2.437591    1.340327   -1.315884
     15          1           0       -3.894877    0.415920   -1.083597
     16          6           0       -2.844117   -1.404492    0.812064
     17          1           0       -3.239713   -1.361472    1.831553
     18          6           0       -1.782639   -2.508622    0.808949
     19          1           0       -1.066714   -2.302299    1.610146
     20          1           0       -2.274586   -3.441203    1.103092
     21          1           0       -3.689809   -1.704435    0.184212
     22          1           0       -1.662547   -3.164570   -1.254607
     23          6           0       -0.933527    0.341695    0.750742
     24          1           0       -0.809942    0.259525    1.843327
     25         14           0       -0.502946    2.203326    0.543278
     26          6           0        0.032678    2.685351   -1.194397
     27          1           0       -0.754455    2.564308   -1.939523
     28          1           0        0.333526    3.737128   -1.200372
     29          1           0        0.896260    2.096848   -1.508857
     30          6           0        0.895116    2.682726    1.706822
     31          1           0        0.944468    3.772874    1.780500
     32          1           0        0.745993    2.294522    2.717575
     33          1           0        1.862953    2.336455    1.341454
     34          6           0       -2.013118    3.214866    1.027156
     35          1           0       -2.337811    2.982367    2.044762
     36          1           0       -1.766467    4.279701    0.995584
     37          1           0       -2.862275    3.053032    0.361010
     38          5           0        0.138879   -0.591179    0.132686
     39          6           0        1.730952   -1.964901    1.511786
     40          6           0        1.609599   -0.647104    0.801248
     41          6           0        1.574635   -2.121606    2.818657
     42          1           0        1.366633   -1.281189    3.473134
     43          1           0        1.653746   -3.097560    3.281188
     44          6           0        2.651158   -0.507073   -0.267886
     45          8           0        3.223136   -1.400600   -0.834348
     46          8           0        2.848494    0.791310   -0.577280
     47          6           0        3.786925    1.048333   -1.625820
     48          1           0        3.467848    0.565928   -2.549588
     49          1           0        3.805505    2.128694   -1.744524
     50          1           0        4.773836    0.675840   -1.352818
     51          1           0        1.725335    0.169475    1.512025
     52          1           0        1.947669   -2.820886    0.881561
 ---------------------------------------------------------------------

 SCF Done:  E(RHF) =  -1126.18296891     A.U. after    2 cycles

 The electronic state is 1-A.
 Alpha  occ. eigenvalues --  -69.51056 -20.58947 -20.52894 -11.38356 -11.29558
 Alpha  occ. eigenvalues --  -11.24798 -11.23159 -11.22996 -11.22885 -11.22353
 Alpha  occ. eigenvalues --  -11.22207 -11.21985 -11.21957 -11.21939 -11.21873
 Alpha  occ. eigenvalues --  -11.20569 -11.20473 -11.20421 -11.19743 -11.19262
 Alpha  occ. eigenvalues --   -7.58593  -6.18030  -3.93366  -3.93363  -3.93358
 Alpha  occ. eigenvalues --   -1.54589  -1.44914  -1.12416  -1.09458  -1.04959
 Alpha  occ. eigenvalues --   -1.04320  -1.00965  -0.98886  -0.95907  -0.93701
 Alpha  occ. eigenvalues --   -0.92679  -0.92571  -0.91558  -0.88336  -0.80258
 Alpha  occ. eigenvalues --   -0.79970  -0.79364  -0.75839  -0.72535  -0.71013
 Alpha  occ. eigenvalues --   -0.68325  -0.68080  -0.67321  -0.65405  -0.63952
 Alpha  occ. eigenvalues --   -0.63286  -0.61891  -0.61007  -0.60301  -0.59208
 Alpha  occ. eigenvalues --   -0.58426  -0.58207  -0.57721  -0.57133  -0.56868
 Alpha  occ. eigenvalues --   -0.56622  -0.55760  -0.55293  -0.54308  -0.53780
 Alpha  occ. eigenvalues --   -0.53660  -0.52569  -0.51719  -0.50801  -0.49826
 Alpha  occ. eigenvalues --   -0.49439  -0.48313  -0.47312  -0.46218  -0.45746
 Alpha  occ. eigenvalues --   -0.45284  -0.44438  -0.43932  -0.43791  -0.42678
 Alpha  occ. eigenvalues --   -0.42264  -0.41488  -0.39384  -0.36116
 Alpha virt. eigenvalues --    0.02269   0.02356   0.02602   0.03383   0.04057
 Alpha virt. eigenvalues --    0.04200   0.04381   0.04587   0.04749   0.06540
 Alpha virt. eigenvalues --    0.06641   0.06820   0.06899   0.07044   0.07390

 Mulliken charges:
               1
     1  C   -0.466468
     2  C   -0.149728
     3  C   -0.038982
     4  H   -0.019050
     5  C   -0.400548
     6  H    0.171255
     7  H    0.025713
     8  H    0.058425
     9  H    0.059307
    10  C   -0.254068
    11  H    0.021204
    12  H    0.276910
    13  C   -0.264659
    14  H    0.056613
    15  H    0.108753
    16  C   -0.641446
    17  H    0.083095
    18  C    0.085692
    19  H    0.448651
    20  H   -0.063240
    21  H    0.139702
    22  H    0.114902
    23  C   -0.922682
    24  H    0.015188
    25  Si   2.192520
    26  C   -0.134028
    27  H   -0.007230
    28  H   -0.183517
    29  H   -0.069720
    30  C   -0.347975
    31  H   -0.250848
    32  H    0.027590
    33  H    0.044311
    34  C   -0.385264
    35  H   -0.074232
    36  H   -0.221922
    37  H    0.013693
    38  B    1.651751
    39  C    0.681459
    40  C   -0.296627
    41  C    0.136074
    42  H   -0.168147
    43  H   -0.209641
    44  C    2.261260
    45  O   -1.507214
    46  O   -1.658651
    47  C    0.179840
    48  H    0.305562
    49  H    0.012678
    50  H    0.101230
    51  H   -0.292590
    52  H   -0.244899
 Sum of Mulliken charges =  -0.00000

 Dipole moment (field-independent basis, Debye):
    X=             -1.0513    Y=              1.6855    Z=              0.2879  Tot=              2.0072

 Test job not archived.
 1\1\GINC-SE164\SP\RHF\Aug-CC-pVDZ\C17H31B1O2Si1\OHZDE\09-Apr-2025\0\\#
 t hf aug-cc-pvdz iop(5/13=1,5/36=2,99/5=2) pseudo=read geom=check gues
 s=(read,tcheck) scf=(maxcycle=1)\\title\\0,1\C,0,-0.995073,-2.773659,-
 0.480642\C,0,-0.184826,-1.573462,-1.054403\C,0,-2.409676,0.024917,0.40
 126\H,0,-0.294902,-3.582805,-0.259241\C,0,-0.879833,-0.906619,-2.26321
 7\H,0,-0.367776,0.029594,-2.512017\H,0,-0.735834,-1.560443,-3.13022\H,
 0,-3.023258,0.699244,1.005242\H,0,0.750305,-1.986348,-1.441922\C,0,-2.
 376507,-0.643664,-2.131389\H,0,-2.743626,-0.27149,-3.093105\H,0,-2.895

 Normal termination of Gaussian 16 at Wed Apr  9 02:26:54 2025.
