 Gaussian 16, Revision C.01,

 ----------------------------------------------------------------------
 #t hf aug-cc-pvdz symm=none int=(grid=ultrafine) guess=(read,tcheck) s
 table=(opt,rrhf)
 ----------------------------------------------------------------------
 -----
 title
 -----
 Symbolic Z-matrix:
 Charge =  0 Multiplicity = 1

 SCF Done:  E(RHF) =  -893.860482963     A.U. after   16 cycles
 Normal termination of Gaussian 16 at Wed Apr  9 02:10:23 2025.
 Gaussian 16:  ES64L-G16RevC.01  3-Jul-2019

 ----------------------------------------------------------------------
 #t hf aug-cc-pvdz iop(5/13=1,5/36=2,99/5=2) pseudo=read geom=check gue
 ss=(read,tcheck) scf=(maxcycle=1)
 ----------------------------------------------------------------------
 -----
 title
 -----
 Structure from the checkpoint file:  "BH10_91_reverse_mol2.chk"
 Charge =  0 Multiplicity = 1

                         Standard orientation:
 ---------------------------------------------------------------------
 Center     Atomic      Atomic             Coordinates (Angstroms)
 Number     Number       Type             X           Y           Z
 ---------------------------------------------------------------------
      1          6           0        0.517417   -1.137942    0.020451
      2          6           0        0.422160   -0.644457    1.440712
      3          6           0        0.877001    1.211003    0.106076
      4          6           0        0.618282    0.669283    1.486490
      5         16           0        1.943324   -0.130401   -0.657067
      6          6           0       -2.525035    0.579103    0.369694
      7          6           0       -0.624640   -0.501441   -0.813979
      8          6           0       -0.375673    1.031207   -0.783796
      9          6           0       -1.675951    1.689361   -0.257156
     10          1           0       -2.402094    0.534857    1.455096
     11          1           0       -2.211419    2.141300   -1.093606
     12          1           0       -1.458912    2.492163    0.448401
     13          1           0       -3.593335    0.661784    0.169147
     14          8           0        3.183509   -0.354850    0.140365
     15          6           0       -1.991431   -0.730285   -0.176810
     16          8           0       -2.540488   -1.796715   -0.112860
     17          1           0        0.579563    1.288519    2.371819
     18          1           0        0.187099   -1.288856    2.276106
     19          1           0        0.647056   -2.205988   -0.124397
     20          1           0       -0.635920   -0.917131   -1.822412
     21          1           0        1.345293    2.189952    0.043675
     22          1           0       -0.147464    1.407346   -1.780890
 ---------------------------------------------------------------------

 SCF Done:  E(RHF) =  -894.425428146     A.U. after    2 cycles

 The electronic state is 1-A.
 Alpha  occ. eigenvalues --  -94.07191 -20.54953 -20.50240 -11.34988 -11.29520
 Alpha  occ. eigenvalues --  -11.29166 -11.27503 -11.27283 -11.26399 -11.26280
 Alpha  occ. eigenvalues --  -11.26149 -11.25582  -8.33976  -6.31819  -6.31619
 Alpha  occ. eigenvalues --   -6.31471  -1.48784  -1.43707  -1.22371  -1.12001
 Alpha  occ. eigenvalues --   -1.04481  -1.03392  -0.96865  -0.93243  -0.82771
 Alpha  occ. eigenvalues --   -0.82102  -0.77541  -0.74497  -0.73071  -0.69141
 Alpha  occ. eigenvalues --   -0.67986  -0.63497  -0.62016  -0.61230  -0.60056
 Alpha  occ. eigenvalues --   -0.59375  -0.57254  -0.56501  -0.55611  -0.53881
 Alpha  occ. eigenvalues --   -0.51983  -0.50823  -0.49660  -0.48684  -0.42238
 Alpha  occ. eigenvalues --   -0.40517  -0.39227  -0.35808
 Alpha virt. eigenvalues --    0.02288   0.02656   0.03257   0.03703   0.04688
 Alpha virt. eigenvalues --    0.05058   0.05448   0.05809   0.07319   0.07948
 Alpha virt. eigenvalues --    0.08491   0.09041   0.10726   0.11236   0.12078

 Mulliken charges:
               1
     1  C   -0.555401
     2  C    0.548217
     3  C   -0.640322
     4  C    0.608288
     5  S    2.053394
     6  C   -0.454477
     7  C   -0.392342
     8  C    0.340561
     9  C   -0.093716
    10  H    0.332071
    11  H    0.130469
    12  H    0.154340
    13  H    0.147467
    14  O   -1.549060
    15  C    1.499633
    16  O   -1.571525
    17  H   -0.220743
    18  H   -0.214656
    19  H   -0.125629
    20  H    0.089112
    21  H   -0.149728
    22  H    0.064048
 Sum of Mulliken charges =  -0.00000

 Dipole moment (field-independent basis, Debye):
    X=             -3.1608    Y=              3.6091    Z=             -0.3644  Tot=              4.8114

 Test job not archived.
 1\1\GINC-SE159\SP\RHF\Aug-CC-pVDZ\C9H10O2S1\OHZDE\09-Apr-2025\0\\#t hf
  aug-cc-pvdz iop(5/13=1,5/36=2,99/5=2) pseudo=read geom=check guess=(r
 ead,tcheck) scf=(maxcycle=1)\\title\\0,1\C,0,0.517417,-1.137942,0.0204
 51\C,0,0.42216,-0.644457,1.440712\C,0,0.877001,1.211003,0.106076\C,0,0
 .618282,0.669283,1.48649\S,0,1.943324,-0.130401,-0.657067\C,0,-2.52503
 5,0.579103,0.369694\C,0,-0.62464,-0.501441,-0.813979\C,0,-0.375673,1.0
 31207,-0.783796\C,0,-1.675951,1.689361,-0.257156\H,0,-2.402094,0.53485
 7,1.455096\H,0,-2.211419,2.1413,-1.093606\H,0,-1.458912,2.492163,0.448

 Normal termination of Gaussian 16 at Wed Apr  9 02:10:43 2025.
