 Gaussian 16, Revision C.01,

 ----------------------------------------------------------------------
 #t hf aug-cc-pvdz symm=none int=(grid=ultrafine) guess=(read,tcheck) s
 table=(opt,rrhf)
 ----------------------------------------------------------------------
 -----
 title
 -----
 Symbolic Z-matrix:
 Charge =  0 Multiplicity = 1

 SCF Done:  E(RHF) =  -878.883883098     A.U. after   17 cycles
 Normal termination of Gaussian 16 at Wed Apr  9 00:56:02 2025.
 Gaussian 16:  ES64L-G16RevC.01  3-Jul-2019

 ----------------------------------------------------------------------
 #t hf aug-cc-pvdz iop(5/13=1,5/36=2,99/5=2) pseudo=read geom=check gue
 ss=(read,tcheck) scf=(maxcycle=1)
 ----------------------------------------------------------------------
 -----
 title
 -----
 Structure from the checkpoint file:  "BH10-RE_116_mol3.chk"
 Charge =  0 Multiplicity = 1

                         Standard orientation:
 ---------------------------------------------------------------------
 Center     Atomic      Atomic             Coordinates (Angstroms)
 Number     Number       Type             X           Y           Z
 ---------------------------------------------------------------------
      1         16           0       -3.083717   -0.455257    0.000040
      2          6           0       -1.335560   -0.253689    0.000009
      3          6           0       -0.727455    0.994096    0.000046
      4          6           0        0.657506    1.069186    0.000037
      5          6           0        1.440262   -0.080934    0.000002
      6          6           0        0.808505   -1.325824   -0.000032
      7          6           0       -0.566996   -1.419757   -0.000035
      8          1           0       -1.328426    1.892228    0.000076
      9          1           0        1.120715    2.047375    0.000062
     10          1           0        1.424365   -2.215832   -0.000065
     11          1           0       -1.041787   -2.394781   -0.000076
     12          6           0        2.934176   -0.042329   -0.000005
     13          8           0        3.573804   -1.070553   -0.000034
     14          6           0        3.625298    1.299084    0.000027
     15          1           0        3.344616    1.879777   -0.881627
     16          1           0        4.700585    1.137216    0.000019
     17          1           0        3.344621    1.879733    0.881711
     18          9           0       -3.536675    1.131537   -0.000084
 ---------------------------------------------------------------------

 SCF Done:  E(RHF) =  -879.417196366     A.U. after    2 cycles

 The electronic state is 1-A.
 Alpha  occ. eigenvalues --  -94.05578 -26.49120 -20.53790 -11.34785 -11.30941
 Alpha  occ. eigenvalues --  -11.27519 -11.26927 -11.26811 -11.26521 -11.25993
 Alpha  occ. eigenvalues --  -11.25017  -8.32912  -6.30722  -6.30408  -6.30113
 Alpha  occ. eigenvalues --   -1.59750  -1.47621  -1.19843  -1.10312  -1.05106
 Alpha  occ. eigenvalues --   -1.03018  -0.98188  -0.87332  -0.86227  -0.78817
 Alpha  occ. eigenvalues --   -0.73308  -0.69995  -0.68492  -0.67631  -0.66201
 Alpha  occ. eigenvalues --   -0.65032  -0.62783  -0.61959  -0.61450  -0.60567
 Alpha  occ. eigenvalues --   -0.55967  -0.55635  -0.53148  -0.51154  -0.51130
 Alpha  occ. eigenvalues --   -0.43961  -0.42262  -0.37567  -0.33754
 Alpha virt. eigenvalues --    0.03040   0.03480   0.03896   0.04323   0.05312
 Alpha virt. eigenvalues --    0.05638   0.05908   0.07544   0.08183   0.08678
 Alpha virt. eigenvalues --    0.08876   0.09754   0.09809   0.10890   0.11570

 Mulliken charges:
               1
     1  S    0.787754
     2  C   -0.114518
     3  C   -0.037946
     4  C    0.866926
     5  C    1.679128
     6  C   -0.146842
     7  C   -0.191719
     8  H   -0.192212
     9  H   -0.379930
    10  H   -0.339379
    11  H   -0.225121
    12  C    0.469864
    13  O   -1.477284
    14  C   -0.635620
    15  H    0.311635
    16  H    0.029134
    17  H    0.311632
    18  F   -0.715503
 Sum of Mulliken charges =   0.00000

 Dipole moment (field-independent basis, Debye):
    X=             -0.3710    Y=              1.5875    Z=              0.0001  Tot=              1.6303

 Test job not archived.
 1\1\GINC-SE396\SP\RHF\Aug-CC-pVDZ\C8H7F1O1S1\OHZDE\09-Apr-2025\0\\#t h
 f aug-cc-pvdz iop(5/13=1,5/36=2,99/5=2) pseudo=read geom=check guess=(
 read,tcheck) scf=(maxcycle=1)\\title\\0,1\S,0,-3.083717,-0.455257,0.00
 004\C,0,-1.33556,-0.253689,0.000009\C,0,-0.727455,0.994096,0.000046\C,
 0,0.657506,1.069186,0.000037\C,0,1.440262,-0.080934,0.000002\C,0,0.808
 505,-1.325824,-0.000032\C,0,-0.566996,-1.419757,-0.000035\H,0,-1.32842
 6,1.892228,0.000076\H,0,1.120715,2.047375,0.000062\H,0,1.424365,-2.215
 832,-0.000065\H,0,-1.041787,-2.394781,-0.000076\C,0,2.934176,-0.042329

 Normal termination of Gaussian 16 at Wed Apr  9 00:56:13 2025.
