 Gaussian 16, Revision C.01,

 ----------------------------------------------------------------------
 #t hf aug-cc-pvdz symm=none int=(grid=ultrafine) guess=(read,tcheck) s
 table=opt
 ----------------------------------------------------------------------
 -----
 title
 -----
 Symbolic Z-matrix:
 Charge =  0 Multiplicity = 2

 SCF Done:  E(UHF) =  -485.851368897     A.U. after   15 cycles
 Normal termination of Gaussian 16 at Wed Apr  9 01:03:11 2025.
 Gaussian 16:  ES64L-G16RevC.01  3-Jul-2019

 ----------------------------------------------------------------------
 #t hf aug-cc-pvdz iop(5/13=1,5/36=2,99/5=2) pseudo=read geom=check gue
 ss=(read,tcheck) scf=(maxcycle=1)
 ----------------------------------------------------------------------
 -----
 title
 -----
 Structure from the checkpoint file:  "BH10_274_reverse_mol2.chk"
 Charge =  0 Multiplicity = 2

                         Standard orientation:
 ---------------------------------------------------------------------
 Center     Atomic      Atomic             Coordinates (Angstroms)
 Number     Number       Type             X           Y           Z
 ---------------------------------------------------------------------
      1         14           0        0.372306   -0.000000   -0.011711
      2          6           0        0.434312   -1.537267   -1.085904
      3          1           0        0.388833   -2.446634   -0.481003
      4          1           0       -0.402569   -1.561388   -1.787631
      5          1           0        1.358465   -1.573546   -1.668468
      6          6           0        1.818815   -0.000003    1.187649
      7          1           0        2.772866   -0.000000    0.653911
      8          1           0        1.801065    0.882539    1.832212
      9          1           0        1.801066   -0.882551    1.832205
     10          6           0        0.434301    1.537284   -1.085881
     11          1           0       -0.402579    1.561409   -1.787610
     12          1           0        0.388814    2.446642   -0.480966
     13          1           0        1.358455    1.573579   -1.668442
     14          6           0       -1.248388   -0.000015    0.992823
     15          6           0       -2.454368   -0.000000    0.140868
     16          1           0       -1.218849   -0.881944    1.642519
     17          1           0       -1.218848    0.881891    1.642550
     18          1           0       -2.873521   -0.925641   -0.231338
     19          1           0       -2.873513    0.925653   -0.231314
 ---------------------------------------------------------------------

 SCF Done:  E(UHF) =  -486.107588382     A.U. after    2 cycles

 The electronic state is 2-A.
 Alpha  occ. eigenvalues --  -69.50436 -11.23419 -11.21080 -11.20540 -11.20448
 Alpha  occ. eigenvalues --  -11.20444  -6.17525  -3.92916  -3.92817  -3.92815
 Alpha  occ. eigenvalues --   -1.03488  -0.96879  -0.92568  -0.92520  -0.83258
 Alpha  occ. eigenvalues --   -0.64658  -0.62716  -0.57732  -0.57288  -0.56633
 Alpha  occ. eigenvalues --   -0.55680  -0.54336  -0.53880  -0.53402  -0.50747
 Alpha  occ. eigenvalues --   -0.47488  -0.43687  -0.43549  -0.32031
 Alpha virt. eigenvalues --    0.03234   0.03747   0.03801   0.03994   0.06193
 Alpha virt. eigenvalues --    0.06206   0.06307   0.06497   0.06621   0.09143
 Alpha virt. eigenvalues --    0.09181   0.09319   0.09809   0.11248   0.11343

  Beta  occ. eigenvalues --  -69.50362 -11.21345 -11.21041 -11.20514 -11.20452
  Beta  occ. eigenvalues --  -11.20448  -6.17405  -3.92773  -3.92760  -3.92663
  Beta  occ. eigenvalues --   -1.00607  -0.95851  -0.92516  -0.92512  -0.78211
  Beta  occ. eigenvalues --   -0.63790  -0.61736  -0.57384  -0.56808  -0.56529
  Beta  occ. eigenvalues --   -0.55203  -0.54286  -0.53409  -0.53383  -0.50147
  Beta  occ. eigenvalues --   -0.43613  -0.43525  -0.43268
  Beta virt. eigenvalues --    0.03235   0.03755   0.03840   0.04037   0.06187
  Beta virt. eigenvalues --    0.06205   0.06317   0.06415   0.06507   0.09025
  Beta virt. eigenvalues --    0.09185   0.09324   0.09814   0.10268   0.11317

 Mulliken charges and spin densities:
               1          2
     1  Si   2.698438   0.017454
     2  C   -0.551116  -0.005137
     3  H   -0.048977   0.001060
     4  H   -0.029790  -0.003163
     5  H   -0.069604  -0.003859
     6  C   -0.534983   0.009081
     7  H   -0.047579  -0.000842
     8  H   -0.036811  -0.000649
     9  H   -0.036808  -0.000649
    10  C   -0.551122  -0.005137
    11  H   -0.029786  -0.003163
    12  H   -0.048976   0.001060
    13  H   -0.069606  -0.003859
    14  C   -0.384145  -0.198920
    15  C   -0.027189   1.408365
    16  H   -0.026882   0.007176
    17  H   -0.026886   0.007176
    18  H   -0.089086  -0.112997
    19  H   -0.089089  -0.112997
 Sum of Mulliken charges =  -0.00000   1.00000

 Dipole moment (field-independent basis, Debye):
    X=              0.3961    Y=             -0.0000    Z=             -0.0207  Tot=              0.3966
                          Isotropic Fermi Contact Couplings
        Atom                 a.u.       MegaHertz       Gauss      10(-4) cm-1
     1  Si(29)             0.10856     -96.48165     -34.42705     -32.18281
     2  C(13)             -0.00200      -2.24751      -0.80197      -0.74969
     3  H(1)               0.00011       0.50077       0.17869       0.16704
     4  H(1)              -0.00007      -0.33365      -0.11905      -0.11129
     5  H(1)              -0.00022      -0.98515      -0.35153      -0.32861
     6  C(13)              0.00486       5.45953       1.94810       1.82110
     7  H(1)               0.00058       2.61089       0.93163       0.87090
     8  H(1)              -0.00019      -0.83146      -0.29669      -0.27735

 Normal termination of Gaussian 16 at Wed Apr  9 01:03:20 2025.
