 Gaussian 16, Revision C.01,

 ----------------------------------------------------------------------
 #t hf aug-cc-pvdz symm=none int=(grid=ultrafine) guess=(read,tcheck) s
 table=(opt,rrhf)
 ----------------------------------------------------------------------
 -----
 title
 -----
 Symbolic Z-matrix:
 Charge =  1 Multiplicity = 1

 SCF Done:  E(RHF) =  -345.859830314     A.U. after   14 cycles
 Normal termination of Gaussian 16 at Wed Apr  9 00:54:34 2025.
 Gaussian 16:  ES64L-G16RevC.01  3-Jul-2019

 ----------------------------------------------------------------------
 #t hf aug-cc-pvdz iop(5/13=1,5/36=2,99/5=2) pseudo=read geom=check gue
 ss=(read,tcheck) scf=(maxcycle=1)
 ----------------------------------------------------------------------
 -----
 title
 -----
 Structure from the checkpoint file:  "BH10-RE_106_mol2.chk"
 Charge =  1 Multiplicity = 1

                         Standard orientation:
 ---------------------------------------------------------------------
 Center     Atomic      Atomic             Coordinates (Angstroms)
 Number     Number       Type             X           Y           Z
 ---------------------------------------------------------------------
      1          6           0       -0.000000   -1.817884    0.000000
      2          6           0       -0.000000   -1.124983    1.205531
      3          6           0       -0.000000    0.251864    1.193572
      4          7           0       -0.000000    0.853443   -0.000000
      5          6           0       -0.000000    0.251864   -1.193572
      6          6           0       -0.000000   -1.124983   -1.205531
      7          9           0       -0.000000    2.199176   -0.000000
      8          1           0        0.000001   -2.900678    0.000000
      9          1           0        0.000002   -1.639272    2.156841
     10          1           0        0.000001    0.898636    2.060973
     11          1           0        0.000001    0.898636   -2.060973
     12          1           0        0.000002   -1.639272   -2.156841
 ---------------------------------------------------------------------

 SCF Done:  E(RHF) =  -346.196891532     A.U. after    2 cycles

 The electronic state is 1-A'.
 Alpha  occ. eigenvalues --  -26.73340 -15.89963 -11.53112 -11.53104 -11.48549
 Alpha  occ. eigenvalues --  -11.46673 -11.46662  -1.87412  -1.52796  -1.31755
 Alpha  occ. eigenvalues --   -1.31098  -1.14853  -1.10859  -1.01819  -0.96238
 Alpha  occ. eigenvalues --   -0.94843  -0.92487  -0.87072  -0.86970  -0.83891
 Alpha  occ. eigenvalues --   -0.79617  -0.76602  -0.76205  -0.63256  -0.58951
 Alpha virt. eigenvalues --   -0.15130  -0.10348  -0.08692  -0.06881  -0.06863
 Alpha virt. eigenvalues --   -0.05343  -0.05167  -0.03470  -0.03085  -0.01008
 Alpha virt. eigenvalues --   -0.00689  -0.00546   0.00858   0.01357   0.02257

 Mulliken charges:
               1
     1  C    0.084124
     2  C    0.894808
     3  C   -0.586247
     4  N    1.518920
     5  C   -0.586247
     6  C    0.894808
     7  F   -0.652434
     8  H   -0.123527
     9  H   -0.128018
    10  H   -0.094084
    11  H   -0.094084
    12  H   -0.128018
 Sum of Mulliken charges =   1.00000

 Dipole moment (field-independent basis, Debye):
    X=              0.0000    Y=             -2.2234    Z=             -0.0000  Tot=              2.2234

 Test job not archived.
 1\1\GINC-SE115\SP\RHF\Aug-CC-pVDZ\C5H5F1N1(1+)\OHZDE\09-Apr-2025\0\\#t
  hf aug-cc-pvdz iop(5/13=1,5/36=2,99/5=2) pseudo=read geom=check guess
 =(read,tcheck) scf=(maxcycle=1)\\title\\1,1\C,0,0.,-1.817884,0.\C,0,0.
 ,-1.124983,1.205531\C,0,0.,0.251864,1.193572\N,0,0.,0.853443,0.\C,0,0.
 ,0.251864,-1.193572\C,0,0.,-1.124983,-1.205531\F,0,0.,2.199176,0.\H,0,
 0.000001,-2.900678,0.\H,0,0.000002,-1.639272,2.156841\H,0,0.000001,0.8
 98636,2.060973\H,0,0.000001,0.898636,-2.060973\H,0,0.000002,-1.639272,
 -2.156841\\Version=ES64L-G16RevC.01\State=1-A'\HF=-346.1968915\RMSD=2.

 Normal termination of Gaussian 16 at Wed Apr  9 00:54:39 2025.
