 Gaussian 16, Revision C.01,

 ----------------------------------------------------------------------
 #t hf aug-cc-pvdz symm=none int=(grid=ultrafine) guess=(read,tcheck) s
 table=(opt,rrhf)
 ----------------------------------------------------------------------
 -----
 title
 -----
 Symbolic Z-matrix:
 Charge =  0 Multiplicity = 1

 SCF Done:  E(RHF) =  -1375.42388410     A.U. after   17 cycles
 Normal termination of Gaussian 16 at Wed Apr  9 03:18:07 2025.
 Gaussian 16:  ES64L-G16RevC.01  3-Jul-2019

 ----------------------------------------------------------------------
 #t hf aug-cc-pvdz iop(5/13=1,5/36=2,99/5=2) pseudo=read geom=check gue
 ss=(read,tcheck) scf=(maxcycle=1)
 ----------------------------------------------------------------------
 -----
 title
 -----
 Structure from the checkpoint file:  "BH10_395_forward_mol2.chk"
 Charge =  0 Multiplicity = 1

                         Standard orientation:
 ---------------------------------------------------------------------
 Center     Atomic      Atomic             Coordinates (Angstroms)
 Number     Number       Type             X           Y           Z
 ---------------------------------------------------------------------
      1          6           0        0.695059   -2.829518    1.049688
      2          7           0        1.656478   -2.080577    0.259680
      3          6           0       -0.620455   -2.091440    1.180080
      4          6           0        0.344572   -0.069065    0.075508
      5          1           0        0.497568    0.173524   -0.978521
      6          1           0        0.123442    0.872769    0.584127
      7          6           0       -1.972827   -0.846476   -0.492898
      8          6           0       -1.477795   -2.374312    2.156759
      9          6           0       -3.066456   -1.821045   -0.504203
     10          6           0       -4.305915   -1.616639   -0.948355
     11          6           0       -0.829613   -1.003095    0.204740
     12          6           0       -5.373163   -2.662723   -0.964445
     13          1           0       -5.015486   -3.609540   -0.555810
     14          1           0       -6.242927   -2.344788   -0.381610
     15          1           0       -5.728418   -2.844094   -1.983362
     16          1           0        1.087230   -3.044294    2.059302
     17          6           0        1.633762   -0.673441    0.644910
     18          1           0        0.521960   -3.790558    0.554876
     19         16           0       -2.174513    0.573443   -1.567594
     20          6           0        2.970627   -2.688853    0.290913
     21          6           0        2.843056    0.099873    0.164546
     22          1           0        1.611715   -0.593041    1.748190
     23          6           0        3.897511   -0.523271   -0.499675
     24          6           0        3.869384   -2.011357   -0.725444
     25          1           0        4.882743   -2.415775   -0.663048
     26          1           0        3.492409   -2.228470   -1.729527
     27          1           0        2.860348   -3.750013    0.054923
     28          1           0        3.422147   -2.624226    1.298218
     29          6           0        2.901851    1.474064    0.397577
     30          6           0        4.978911    0.242598   -0.932187
     31          6           0        5.024079    1.607770   -0.711336
     32          6           0        3.978683    2.226780   -0.036485
     33          1           0        4.005213    3.293022    0.153252
     34          1           0        2.090827    1.962254    0.925811
     35          1           0        5.799004   -0.248887   -1.445035
     36          1           0        5.873191    2.186726   -1.054052
     37          6           0       -2.022001    1.935534   -0.428467
     38          6           0       -2.601310    1.899900    0.836978
     39          6           0       -1.332582    3.071164   -0.839726
     40          6           0       -1.226195    4.165285    0.008635
     41          6           0       -1.788862    4.125020    1.275973
     42          6           0       -2.473293    2.987077    1.686809
     43          1           0       -0.864817    3.089456   -1.816614
     44          1           0       -0.686374    5.045426   -0.319705
     45          1           0       -3.141325    1.017189    1.155653
     46          1           0       -1.695349    4.974213    1.941642
     47          1           0       -2.919226    2.948948    2.673596
     48          1           0       -2.415416   -1.843535    2.256823
     49          1           0       -1.259522   -3.142932    2.890261
     50          1           0       -4.574216   -0.635941   -1.328840
     51          1           0       -2.810005   -2.801457   -0.116185
 ---------------------------------------------------------------------

 SCF Done:  E(RHF) =  -1376.49179390     A.U. after    2 cycles

 The electronic state is 1-A.
 Alpha  occ. eigenvalues --  -93.94726 -15.49040 -11.27174 -11.26642 -11.26489
 Alpha  occ. eigenvalues --  -11.26471 -11.25776 -11.25211 -11.25142 -11.24606
 Alpha  occ. eigenvalues --  -11.24583 -11.24395 -11.24342 -11.24280 -11.23958
 Alpha  occ. eigenvalues --  -11.23894 -11.23564 -11.23482 -11.23419 -11.23365
 Alpha  occ. eigenvalues --  -11.23353 -11.23332 -11.23259 -11.23150 -11.22922
 Alpha  occ. eigenvalues --  -11.22811  -8.22834  -6.20662  -6.20497  -6.20300
 Alpha  occ. eigenvalues --   -1.25619  -1.17377  -1.15805  -1.14157  -1.08892
 Alpha  occ. eigenvalues --   -1.07046  -1.06081  -1.05551  -1.02310  -1.02050
 Alpha  occ. eigenvalues --   -1.00105  -0.97898  -0.94471  -0.93837  -0.90879
 Alpha  occ. eigenvalues --   -0.87085  -0.84627  -0.84206  -0.82717  -0.81934
 Alpha  occ. eigenvalues --   -0.80172  -0.76552  -0.75095  -0.71940  -0.71085
 Alpha  occ. eigenvalues --   -0.69614  -0.69030  -0.67229  -0.66517  -0.65264
 Alpha  occ. eigenvalues --   -0.64480  -0.64044  -0.62869  -0.61892  -0.61508
 Alpha  occ. eigenvalues --   -0.60652  -0.60367  -0.59725  -0.58192  -0.57771
 Alpha  occ. eigenvalues --   -0.57210  -0.57050  -0.56538  -0.54983  -0.54201
 Alpha  occ. eigenvalues --   -0.53979  -0.53499  -0.53267  -0.52281  -0.51589
 Alpha  occ. eigenvalues --   -0.51103  -0.50095  -0.49185  -0.48482  -0.47453
 Alpha  occ. eigenvalues --   -0.47217  -0.45397  -0.42718  -0.40416  -0.39063
 Alpha  occ. eigenvalues --   -0.37836  -0.35188  -0.33671  -0.32989  -0.32638
 Alpha  occ. eigenvalues --   -0.29146
 Alpha virt. eigenvalues --    0.02611   0.02644   0.03138   0.03328   0.03536
 Alpha virt. eigenvalues --    0.03768   0.04293   0.04379   0.04681   0.05322
 Alpha virt. eigenvalues --    0.05507   0.06239   0.06605   0.06688   0.06900

 Mulliken charges:
               1
     1  C   -1.873412
     2  N    1.892154
     3  C    1.023780
     4  C   -1.181663
     5  H    0.254636
     6  H    0.315586
     7  C    0.299789
     8  C    0.269500
     9  C    1.172125
    10  C   -0.150031
    11  C    0.162135
    12  C   -0.934690
    13  H    0.054663
    14  H    0.258358
    15  H    0.269922
    16  H    0.223615
    17  C   -2.706571
    18  H   -0.051561
    19  S    0.415528
    20  C   -0.233141
    21  C    1.713870
    22  H    0.191703
    23  C    0.583537
    24  C   -0.485244
    25  H    0.131971
    26  H    0.230907
    27  H    0.008505
    28  H    0.060228
    29  C    0.389527
    30  C    0.636426
    31  C   -0.120136
    32  C   -0.371198
    33  H   -0.311518
    34  H   -0.365310
    35  H   -0.339895
    36  H   -0.247024
    37  C    0.362296
    38  C    0.125859
    39  C    0.185476
    40  C    0.134283
    41  C    0.302265
    42  C    0.089536
    43  H   -0.352665
    44  H   -0.282124
    45  H   -0.296645
    46  H   -0.252214
    47  H   -0.306522
    48  H   -0.179794
    49  H   -0.290160
    50  H   -0.216912
    51  H   -0.209749
 Sum of Mulliken charges =  -0.00000

 Dipole moment (field-independent basis, Debye):
    X=              0.6873    Y=             -0.5896    Z=              2.0898  Tot=              2.2776

 Test job not archived.
 1\1\GINC-SE403\SP\RHF\Aug-CC-pVDZ\C24H25N1S1\OHZDE\09-Apr-2025\0\\#t h
 f aug-cc-pvdz iop(5/13=1,5/36=2,99/5=2) pseudo=read geom=check guess=(
 read,tcheck) scf=(maxcycle=1)\\title\\0,1\C,0,0.695059,-2.829518,1.049
 688\N,0,1.656478,-2.080577,0.25968\C,0,-0.620455,-2.09144,1.18008\C,0,
 0.344572,-0.069065,0.075508\H,0,0.497568,0.173524,-0.978521\H,0,0.1234
 42,0.872769,0.584127\C,0,-1.972827,-0.846476,-0.492898\C,0,-1.477795,-
 2.374312,2.156759\C,0,-3.066456,-1.821045,-0.504203\C,0,-4.305915,-1.6
 16639,-0.948355\C,0,-0.829613,-1.003095,0.20474\C,0,-5.373163,-2.66272

 Normal termination of Gaussian 16 at Wed Apr  9 03:21:28 2025.
