 Gaussian 16, Revision C.01,

 ----------------------------------------------------------------------
 #t hf aug-cc-pvdz symm=none int=(grid=ultrafine) guess=(read,tcheck) s
 table=(opt,rrhf)
 ----------------------------------------------------------------------
 -----
 title
 -----
 Symbolic Z-matrix:
 Charge =  0 Multiplicity = 1

 SCF Done:  E(RHF) =  -817.519728220     A.U. after   13 cycles
 Normal termination of Gaussian 16 at Wed Apr  9 00:55:14 2025.
 Gaussian 16:  ES64L-G16RevC.01  3-Jul-2019

 ----------------------------------------------------------------------
 #t hf aug-cc-pvdz iop(5/13=1,5/36=2,99/5=2) pseudo=read geom=check gue
 ss=(read,tcheck) scf=(maxcycle=1)
 ----------------------------------------------------------------------
 -----
 title
 -----
 Structure from the checkpoint file:  "BH10_100_forward_mol2.chk"
 Charge =  0 Multiplicity = 1

                         Standard orientation:
 ---------------------------------------------------------------------
 Center     Atomic      Atomic             Coordinates (Angstroms)
 Number     Number       Type             X           Y           Z
 ---------------------------------------------------------------------
      1          6           0        1.878492    0.765805   -0.000012
      2          6           0        1.878492   -0.765805    0.000113
      3          6           0        0.422671    1.184171   -0.000014
      4          7           0       -0.324447    0.000000   -0.000014
      5          6           0        0.422671   -1.184171    0.000039
      6          8           0       -0.033861   -2.287920    0.000037
      7          8           0       -0.033861    2.287920   -0.000030
      8         17           0       -2.013484   -0.000000   -0.000057
      9          1           0        2.357014    1.199291   -0.878288
     10          1           0        2.357081    1.199455    0.878145
     11          1           0        2.356969   -1.199293    0.878413
     12          1           0        2.357125   -1.199454   -0.878020
 ---------------------------------------------------------------------

 SCF Done:  E(RHF) =  -817.949810523     A.U. after    2 cycles

 The electronic state is 1-A.
 Alpha  occ. eigenvalues -- -105.62784 -20.55631 -20.55629 -15.61522 -11.40093
 Alpha  occ. eigenvalues --  -11.40092 -11.28819 -11.28816 -10.67232  -7.84239
 Alpha  occ. eigenvalues --   -7.83685  -7.83658  -1.51656  -1.50636  -1.32988
 Alpha  occ. eigenvalues --   -1.14781  -1.04602  -0.99213  -0.89877  -0.78732
 Alpha  occ. eigenvalues --   -0.72769  -0.71758  -0.68851  -0.65108  -0.64451
 Alpha  occ. eigenvalues --   -0.62813  -0.60904  -0.60040  -0.52339  -0.51962
 Alpha  occ. eigenvalues --   -0.50192  -0.47935  -0.44699  -0.43679
 Alpha virt. eigenvalues --    0.02607   0.03668   0.04339   0.06122   0.06177
 Alpha virt. eigenvalues --    0.07665   0.09805   0.09808   0.09865   0.11177
 Alpha virt. eigenvalues --    0.12407   0.13770   0.14054   0.14517   0.14886

 Mulliken charges:
               1
     1  C   -0.230655
     2  C   -0.230656
     3  C    0.665117
     4  N    0.572084
     5  C    0.665116
     6  O   -1.288541
     7  O   -1.288541
     8  Cl   0.179432
     9  H    0.239172
    10  H    0.239150
    11  H    0.239172
    12  H    0.239151
 Sum of Mulliken charges =  -0.00000

 Dipole moment (field-independent basis, Debye):
    X=              3.7166    Y=              0.0000    Z=              0.0001  Tot=              3.7166

 Test job not archived.
 1\1\GINC-SE340\SP\RHF\Aug-CC-pVDZ\C4H4Cl1N1O2\OHZDE\09-Apr-2025\0\\#t
 hf aug-cc-pvdz iop(5/13=1,5/36=2,99/5=2) pseudo=read geom=check guess=
 (read,tcheck) scf=(maxcycle=1)\\title\\0,1\C,0,1.878492,0.765805,-0.00
 0012\C,0,1.878492,-0.765805,0.000113\C,0,0.422671,1.184171,-0.000014\N
 ,0,-0.324447,0.,-0.000014\C,0,0.422671,-1.184171,0.000039\O,0,-0.03386
 1,-2.28792,0.000037\O,0,-0.033861,2.28792,-0.00003\Cl,0,-2.013484,0.,-
 0.000057\H,0,2.357014,1.199291,-0.878288\H,0,2.357081,1.199455,0.87814
 5\H,0,2.356969,-1.199293,0.878413\H,0,2.357125,-1.199454,-0.87802\\Ver

 Normal termination of Gaussian 16 at Wed Apr  9 00:55:19 2025.
