 Gaussian 16, Revision C.01,

 ----------------------------------------------------------------------
 #t hf aug-cc-pvdz symm=none int=(grid=ultrafine) guess=(read,tcheck) s
 table=opt
 ----------------------------------------------------------------------
 -----
 title
 -----
 Symbolic Z-matrix:
 Charge =  0 Multiplicity = 2

 SCF Done:  E(UHF) =  -1698.75750868     A.U. after   30 cycles
 Normal termination of Gaussian 16 at Wed Apr  9 02:40:25 2025.
 Gaussian 16:  ES64L-G16RevC.01  3-Jul-2019

 ----------------------------------------------------------------------
 #t hf aug-cc-pvdz iop(5/13=1,5/36=2,99/5=2) pseudo=read geom=check gue
 ss=(read,tcheck) scf=(maxcycle=1)
 ----------------------------------------------------------------------
 -----
 title
 -----
 Structure from the checkpoint file:  "BH10_223_forward_mol1.chk"
 Charge =  0 Multiplicity = 2

                         Standard orientation:
 ---------------------------------------------------------------------
 Center     Atomic      Atomic             Coordinates (Angstroms)
 Number     Number       Type             X           Y           Z
 ---------------------------------------------------------------------
      1          8           0        1.138493   -0.526179   -0.526241
      2          6           0       -0.172127    0.080708   -0.507390
      3          6           0        0.038458    1.559178   -0.112569
      4          6           0        1.539989    1.757178   -0.339668
      5          6           0        2.078874    0.374950    0.039351
      6          6           0       -1.038508   -0.710009    0.428945
      7          1           0       -0.553994    0.018685   -1.530396
      8          1           0       -0.769565   -0.613053    1.476998
      9          1           0       -1.196941   -1.739294    0.114120
     10          8           0       -0.194754    1.815266    1.254191
     11          8           0        2.086705    2.812128    0.385673
     12          7           0        3.384297    0.063416   -0.461950
     13          1           0        2.135350    0.271816    1.126472
     14          6           0        4.442513   -0.400810    0.285684
     15          6           0        3.828122    0.096311   -1.767310
     16          1           0        1.737417    1.937327   -1.399120
     17          1           0       -0.566245    2.226852   -0.728538
     18          1           0       -1.125641    2.079975    1.350366
     19          1           0        1.572337    2.878131    1.202746
     20          8           0       -2.828087    2.339686    0.761155
     21          6           0       -3.601681    1.594883    0.199016
     22          8           0       -4.424018    2.067751   -0.727755
     23          6           0       -3.597446    0.128393    0.497605
     24          6           0       -4.290394   -0.869343   -0.413131
     25          1           0       -2.322785   -0.199365    0.424386
     26          1           0       -3.772587   -0.043431    1.558458
     27          6           0       -5.798880   -0.763247   -0.371261
     28          1           0       -3.977494   -1.877552   -0.137326
     29          1           0       -3.991414   -0.707027   -1.453118
     30         16           0       -6.637113   -2.164956    0.253089
     31          6           0       -8.345675   -1.580950    0.144498
     32          1           0       -8.477057   -0.692868    0.757946
     33          1           0       -8.973003   -2.388767    0.516316
     34          1           0       -8.599104   -1.356331   -0.888704
     35          8           0       -6.379376    0.240016   -0.739094
     36          7           0        5.061387   -0.289547   -1.906651
     37          6           0        5.467911   -0.604794   -0.624274
     38          6           0        6.678939   -1.075819   -0.097370
     39          7           0        6.762606   -1.296052    1.216895
     40          6           0        5.687910   -1.059587    1.975932
     41          7           0        4.497771   -0.614465    1.598930
     42          7           0        7.754100   -1.318677   -0.874349
     43          1           0        7.722408   -1.111769   -1.857473
     44          1           0        8.612014   -1.611468   -0.439824
     45          1           0        5.812558   -1.258294    3.035264
     46          1           0        3.181224    0.405362   -2.573578
     47          1           0       -5.174525    1.456051   -0.906312
 ---------------------------------------------------------------------

 SCF Done:  E(UHF) =  -1700.11852908     A.U. after    2 cycles

 The electronic state is 2-A.
 Alpha  occ. eigenvalues --  -94.00445 -20.59996 -20.59132 -20.56282 -20.54993
 Alpha  occ. eigenvalues --  -20.54770 -20.54687 -15.55514 -15.51856 -15.49711
 Alpha  occ. eigenvalues --  -15.48506 -15.47886 -11.41435 -11.41384 -11.33284
 Alpha  occ. eigenvalues --  -11.32976 -11.31308 -11.30942 -11.30504 -11.30410
 Alpha  occ. eigenvalues --  -11.30136 -11.30096 -11.30061 -11.30019 -11.29674
 Alpha  occ. eigenvalues --  -11.27017 -11.24134  -8.28727  -6.26541  -6.26346
 Alpha  occ. eigenvalues --   -6.26169  -1.56069  -1.53434  -1.49751  -1.47269
 Alpha  occ. eigenvalues --   -1.46498  -1.44412  -1.35775  -1.29349  -1.24194
 Alpha  occ. eigenvalues --   -1.20030  -1.15761  -1.15369  -1.12024  -1.07607
 Alpha  occ. eigenvalues --   -1.05414  -1.03700  -1.00593  -0.96571  -0.93634
 Alpha  occ. eigenvalues --   -0.91658  -0.90291  -0.87270  -0.85392  -0.82448
 Alpha  occ. eigenvalues --   -0.81832  -0.79234  -0.78916  -0.77863  -0.76184
 Alpha  occ. eigenvalues --   -0.74509  -0.72944  -0.71808  -0.71411  -0.70806
 Alpha  occ. eigenvalues --   -0.69801  -0.69127  -0.67965  -0.67361  -0.66543
 Alpha  occ. eigenvalues --   -0.65448  -0.65071  -0.64726  -0.63434  -0.62889
 Alpha  occ. eigenvalues --   -0.62302  -0.62053  -0.61750  -0.60191  -0.59426
 Alpha  occ. eigenvalues --   -0.59105  -0.59041  -0.57641  -0.56966  -0.56789
 Alpha  occ. eigenvalues --   -0.55050  -0.54414  -0.53155  -0.52681  -0.52591
 Alpha  occ. eigenvalues --   -0.51938  -0.49691  -0.48962  -0.48389  -0.46799
 Alpha  occ. eigenvalues --   -0.46706  -0.45693  -0.45551  -0.44474  -0.44031
 Alpha  occ. eigenvalues --   -0.42331  -0.41664  -0.39776  -0.36550  -0.32450
 Alpha virt. eigenvalues --    0.01970   0.02039   0.02582   0.03514   0.03886
 Alpha virt. eigenvalues --    0.04113   0.04854   0.05042   0.05511   0.05743
 Alpha virt. eigenvalues --    0.06030   0.06299   0.06702   0.07129   0.07678

  Beta  occ. eigenvalues --  -94.00443 -20.59965 -20.59097 -20.56030 -20.54996
  Beta  occ. eigenvalues --  -20.54687 -20.54544 -15.55503 -15.51856 -15.49713
  Beta  occ. eigenvalues --  -15.48504 -15.47884 -11.41563 -11.41368 -11.33286
  Beta  occ. eigenvalues --  -11.32977 -11.31306 -11.31089 -11.30505 -11.30412
  Beta  occ. eigenvalues --  -11.30275 -11.30060 -11.30004 -11.29677 -11.28404
  Beta  occ. eigenvalues --  -11.25052 -11.24132  -8.28724  -6.26533  -6.26342
  Beta  occ. eigenvalues --   -6.26171  -1.55913  -1.53334  -1.49345  -1.46998
  Beta  occ. eigenvalues --   -1.46207  -1.44393  -1.35747  -1.29344  -1.24192
  Beta  occ. eigenvalues --   -1.19989  -1.15748  -1.14779  -1.10596  -1.06305
  Beta  occ. eigenvalues --   -1.04994  -1.03088  -0.98975  -0.94326  -0.93173
  Beta  occ. eigenvalues --   -0.91654  -0.90289  -0.86529  -0.84950  -0.81899
  Beta  occ. eigenvalues --   -0.81543  -0.78955  -0.78683  -0.77734  -0.75369
  Beta  occ. eigenvalues --   -0.74351  -0.72696  -0.71724  -0.70654  -0.70364
  Beta  occ. eigenvalues --   -0.69430  -0.68666  -0.67786  -0.67124  -0.66444
  Beta  occ. eigenvalues --   -0.64888  -0.64515  -0.64402  -0.62787  -0.62628
  Beta  occ. eigenvalues --   -0.62109  -0.61869  -0.61230  -0.59476  -0.58914
  Beta  occ. eigenvalues --   -0.58707  -0.58047  -0.56850  -0.56590  -0.54748
  Beta  occ. eigenvalues --   -0.54691  -0.54083  -0.53054  -0.52678  -0.52103
  Beta  occ. eigenvalues --   -0.51700  -0.49431  -0.48384  -0.47415  -0.46542
  Beta  occ. eigenvalues --   -0.46116  -0.45408  -0.45049  -0.44445  -0.43707
  Beta  occ. eigenvalues --   -0.42155  -0.41608  -0.39577  -0.32446
  Beta virt. eigenvalues --    0.01926   0.02040   0.02591   0.03321   0.03646
  Beta virt. eigenvalues --    0.04063   0.04242   0.04958   0.05151   0.05520
  Beta virt. eigenvalues --    0.05748   0.06124   0.06348   0.06708   0.07134

 Mulliken charges and spin densities:
               1          2
     1  O   -1.754202   0.015097
     2  C    0.817791  -0.143933
     3  C    0.773697   0.020365
     4  C    1.726051   0.001454
     5  C    0.872452   0.006190
     6  C   -0.265163   1.099997
     7  H    0.017483   0.013501
     8  H    0.198674  -0.033058
     9  H    0.062224  -0.050573
    10  O   -1.734029  -0.005820
    11  O   -1.525094   0.000145
    12  N    2.593368   0.006115
    13  H   -0.102788   0.002746
    14  C   -3.229029   0.004026
    15  C   -1.470432   0.000436
    16  H    0.064246   0.000225
    17  H    0.204055   0.000112
    18  H    0.555381  -0.002252
    19  H    0.290557   0.000121
    20  O   -1.503425   0.053313
    21  C    2.564667  -0.157953
    22  O   -1.506269   0.004296
    23  C   -0.902833   0.888456
    24  C   -0.711768  -0.148800
    25  H    0.629317  -0.572933
    26  H    0.193568  -0.057212
    27  C    1.695460   0.027611
    28  H    0.156645   0.006292
    29  H    0.252872   0.011771
    30  S    0.497088   0.002749
    31  C   -0.655654   0.000633
    32  H    0.247349  -0.000105
    33  H    0.115609   0.000120
    34  H    0.234585   0.000011
    35  O   -1.649282   0.006808
    36  N    1.367213  -0.000728
    37  C   -0.231541   0.001474
    38  C   -2.852820   0.000097
    39  N    1.446457   0.000523
    40  C   -1.050423  -0.000792
    41  N    2.027717   0.000649
    42  N    1.127337  -0.000241
    43  H    0.192559  -0.000005
    44  H    0.015955   0.000035
    45  H   -0.238119   0.000091
    46  H   -0.224595   0.000058
    47  H    0.667090  -0.001110
 Sum of Mulliken charges =  -0.00000   1.00000

 Dipole moment (field-independent basis, Debye):
    X=             -8.9129    Y=             -4.3442    Z=             -1.8601  Tot=             10.0882
                          Isotropic Fermi Contact Couplings
        Atom                 a.u.       MegaHertz       Gauss      10(-4) cm-1
     1  O(17)              0.05208     -31.57009     -11.26499     -10.53065
     2  C(13)             -0.01936     -21.76703      -7.76702      -7.26070
     3  C(13)              0.00308       3.45794       1.23388       1.15345
     4  C(13)             -0.00044      -0.49452      -0.17646      -0.16495
     5  C(13)             -0.00013      -0.14559      -0.05195      -0.04856
     6  C(13)              0.24812     278.93101      99.52952      93.04137
     7  H(1)               0.00124       5.52785       1.97248       1.84389
     8  H(1)              -0.01268     -56.69929     -20.23172     -18.91285

 Normal termination of Gaussian 16 at Wed Apr  9 02:43:08 2025.
