 Gaussian 16, Revision C.01,

 ----------------------------------------------------------------------
 #t hf aug-cc-pvdz symm=none int=(grid=ultrafine) guess=(read,tcheck) s
 table=(opt,rrhf)
 ----------------------------------------------------------------------
 -----
 title
 -----
 Symbolic Z-matrix:
 Charge =  1 Multiplicity = 1

 SCF Done:  E(RHF) =  -1529.70650044     A.U. after   18 cycles
 Normal termination of Gaussian 16 at Wed Apr  9 02:17:03 2025.
 Gaussian 16:  ES64L-G16RevC.01  3-Jul-2019

 ----------------------------------------------------------------------
 #t hf aug-cc-pvdz iop(5/13=1,5/36=2,99/5=2) pseudo=read geom=check gue
 ss=(read,tcheck) scf=(maxcycle=1)
 ----------------------------------------------------------------------
 -----
 title
 -----
 Structure from the checkpoint file:  "BH10_246_forward_mol1.chk"
 Charge =  1 Multiplicity = 1

                         Standard orientation:
 ---------------------------------------------------------------------
 Center     Atomic      Atomic             Coordinates (Angstroms)
 Number     Number       Type             X           Y           Z
 ---------------------------------------------------------------------
      1          6           0        1.139774   -0.792441   -0.472852
      2          6           0        1.904830    1.756018   -0.407639
      3          6           0        3.324359    1.243069   -0.676962
      4          6           0        3.573442   -0.139284   -0.103467
      5          6           0        2.605992   -1.121431   -0.753190
      6          1           0        3.492929    1.218800   -1.758828
      7          1           0        4.023220    1.968042   -0.255136
      8          1           0        3.412293   -0.139124    0.975911
      9          1           0        2.778189   -1.122164   -1.833794
     10          1           0        2.803814   -2.127669   -0.384116
     11          7           0        0.925723    0.667100   -0.699891
     12          8           0       -0.286548    1.034033   -0.841557
     13          6           0        0.238383   -1.557996   -1.440012
     14          1           0        0.466338   -2.621184   -1.358298
     15          1           0       -0.817487   -1.417410   -1.212033
     16          1           0        0.418460   -1.246634   -2.469578
     17          6           0        0.756309   -1.149478    0.973371
     18          1           0       -0.288827   -0.910065    1.171142
     19          1           0        0.872076   -2.226249    1.099841
     20          1           0        1.386525   -0.664188    1.715674
     21          6           0        1.598136    2.927896   -1.339073
     22          1           0        0.637325    3.385642   -1.109858
     23          1           0        2.372604    3.685637   -1.215031
     24          1           0        1.594513    2.606968   -2.381397
     25          6           0        1.742060    2.207541    1.053286
     26          1           0        2.409609    3.052315    1.227908
     27          1           0        0.727177    2.555836    1.247579
     28          1           0        1.998216    1.427832    1.768275
     29          6           0       -1.838274    1.474497    1.103890
     30          1           0       -1.276747    1.154790    1.982306
     31          1           0       -0.904739    1.149315    0.159459
     32          6           0       -2.900724    0.561029    0.679487
     33          6           0       -3.573811    0.654091   -0.547245
     34          6           0       -3.164623   -0.534042    1.513687
     35          6           0       -4.507954   -0.295500   -0.906897
     36          1           0       -3.351265    1.449818   -1.243396
     37          6           0       -4.107210   -1.480190    1.164828
     38          1           0       -2.643348   -0.630768    2.458719
     39          6           0       -4.775976   -1.355762   -0.047030
     40          1           0       -5.025970   -0.227504   -1.853884
     41          1           0       -4.327017   -2.311123    1.821347
     42          8           0       -1.886639    2.806548    1.088590
     43          6           0       -2.801902    3.539616    0.266381
     44          1           0       -3.818022    3.169071    0.399210
     45          1           0       -2.729728    4.567524    0.608870
     46          1           0       -2.502100    3.480222   -0.780837
     47         17           0       -5.945765   -2.541418   -0.499782
     48          7           0        4.951043   -0.540212   -0.295773
     49          6           0        5.486091   -1.529608    0.480972
     50          6           0        6.920900   -1.894290    0.209885
     51          1           0        7.494015   -1.751339    1.126296
     52          1           0        6.970574   -2.953315   -0.044581
     53          1           0        7.374138   -1.309949   -0.591096
     54          8           0        4.820767   -2.070733    1.344123
     55          1           0        5.494429   -0.138427   -1.042516
 ---------------------------------------------------------------------

 SCF Done:  E(RHF) =  -1530.88369554     A.U. after    2 cycles

 The electronic state is 1-A.
 Alpha  occ. eigenvalues -- -105.68193 -20.79868 -20.74092 -20.58775 -15.74178
 Alpha  occ. eigenvalues --  -15.61698 -11.50937 -11.44076 -11.43942 -11.42867
 Alpha  occ. eigenvalues --  -11.41468 -11.40903 -11.40034 -11.39578 -11.39532
 Alpha  occ. eigenvalues --  -11.37926 -11.37834 -11.37800 -11.35370 -11.34911
 Alpha  occ. eigenvalues --  -11.34738 -11.34354 -11.33987 -11.33845 -11.32096
 Alpha  occ. eigenvalues --  -10.73009  -7.89983  -7.89550  -7.89545  -1.71985
 Alpha  occ. eigenvalues --   -1.66651  -1.54208  -1.34671  -1.32362  -1.31574
 Alpha  occ. eigenvalues --   -1.24430  -1.23404  -1.18192  -1.17105  -1.16256
 Alpha  occ. eigenvalues --   -1.12866  -1.11655  -1.08624  -1.07016  -1.06245
 Alpha  occ. eigenvalues --   -1.05702  -1.02430  -0.99355  -0.97181  -0.96702
 Alpha  occ. eigenvalues --   -0.94681  -0.92208  -0.91537  -0.86522  -0.85673
 Alpha  occ. eigenvalues --   -0.83608  -0.82645  -0.81913  -0.80548  -0.79814
 Alpha  occ. eigenvalues --   -0.79082  -0.78972  -0.77158  -0.76360  -0.74829
 Alpha  occ. eigenvalues --   -0.74617  -0.73679  -0.72248  -0.71821  -0.71424
 Alpha  occ. eigenvalues --   -0.71044  -0.70200  -0.69422  -0.69138  -0.68226
 Alpha  occ. eigenvalues --   -0.67751  -0.67405  -0.66352  -0.66126  -0.65747
 Alpha  occ. eigenvalues --   -0.65028  -0.65014  -0.64760  -0.64115  -0.63486
 Alpha  occ. eigenvalues --   -0.63137  -0.62383  -0.61495  -0.60928  -0.60569
 Alpha  occ. eigenvalues --   -0.59759  -0.58735  -0.57716  -0.57291  -0.50861
 Alpha  occ. eigenvalues --   -0.50719  -0.50208  -0.49168  -0.45543
 Alpha virt. eigenvalues --   -0.16130  -0.05796  -0.05602  -0.05041  -0.04727
 Alpha virt. eigenvalues --   -0.04056  -0.03867  -0.03650  -0.03449  -0.02808
 Alpha virt. eigenvalues --   -0.02588  -0.02115  -0.01607  -0.01360  -0.01066

 Mulliken charges:
               1
     1  C   -3.360677
     2  C   -3.421964
     3  C    0.362167
     4  C   -1.383903
     5  C    0.661522
     6  H    0.236835
     7  H    0.106308
     8  H    0.016743
     9  H    0.261741
    10  H    0.147329
    11  N    4.133835
    12  O   -2.422979
    13  C   -0.118030
    14  H    0.302434
    15  H    0.120399
    16  H    0.201484
    17  C    0.418528
    18  H   -0.116783
    19  H    0.255508
    20  H    0.242906
    21  C   -0.068065
    22  H    0.172963
    23  H    0.315414
    24  H    0.237637
    25  C    0.353333
    26  H    0.244886
    27  H   -0.002402
    28  H    0.268774
    29  C    0.586376
    30  H   -0.015956
    31  H    0.582276
    32  C    1.821112
    33  C    0.177235
    34  C    0.294102
    35  C    0.215383
    36  H   -0.429727
    37  C    0.320251
    38  H   -0.355541
    39  C   -0.141651
    40  H   -0.243524
    41  H   -0.220802
    42  O   -1.587795
    43  C    0.320326
    44  H    0.245090
    45  H   -0.075182
    46  H    0.222081
    47  Cl  -0.231743
    48  N    1.549190
    49  C    0.908553
    50  C   -0.570279
    51  H    0.257267
    52  H    0.266315
    53  H    0.072321
    54  O   -1.382502
    55  H    0.250880
 Sum of Mulliken charges =   1.00000

 Dipole moment (field-independent basis, Debye):
    X=             -2.1661    Y=              5.6376    Z=             -1.1962  Tot=              6.1568

 Test job not archived.
 1\1\GINC-SE120\SP\RHF\Aug-CC-pVDZ\C19H30Cl1N2O3(1+)\OHZDE\09-Apr-2025\
 0\\#t hf aug-cc-pvdz iop(5/13=1,5/36=2,99/5=2) pseudo=read geom=check
 guess=(read,tcheck) scf=(maxcycle=1)\\title\\1,1\C,0,1.139774,-0.79244
 1,-0.472852\C,0,1.90483,1.756018,-0.407639\C,0,3.324359,1.243069,-0.67
 6962\C,0,3.573442,-0.139284,-0.103467\C,0,2.605992,-1.121431,-0.75319\
 H,0,3.492929,1.2188,-1.758828\H,0,4.02322,1.968042,-0.255136\H,0,3.412
 293,-0.139124,0.975911\H,0,2.778189,-1.122164,-1.833794\H,0,2.803814,-
 2.127669,-0.384116\N,0,0.925723,0.6671,-0.699891\O,0,-0.286548,1.03403

 Normal termination of Gaussian 16 at Wed Apr  9 02:20:45 2025.
