 Gaussian 16, Revision C.01,

 ----------------------------------------------------------------------
 #t hf aug-cc-pvdz symm=none int=(grid=ultrafine) guess=(read,tcheck) s
 table=(opt,rrhf)
 ----------------------------------------------------------------------
 -----
 title
 -----
 Symbolic Z-matrix:
 Charge =  0 Multiplicity = 1

 SCF Done:  E(RHF) =  -758.486979408     A.U. after   14 cycles
 Normal termination of Gaussian 16 at Wed Apr  9 01:26:49 2025.
 Gaussian 16:  ES64L-G16RevC.01  3-Jul-2019

 ----------------------------------------------------------------------
 #t hf aug-cc-pvdz iop(5/13=1,5/36=2,99/5=2) pseudo=read geom=check gue
 ss=(read,tcheck) scf=(maxcycle=1)
 ----------------------------------------------------------------------
 -----
 title
 -----
 Structure from the checkpoint file:  "BH10_324_reverse_mol2.chk"
 Charge =  0 Multiplicity = 1

                         Standard orientation:
 ---------------------------------------------------------------------
 Center     Atomic      Atomic             Coordinates (Angstroms)
 Number     Number       Type             X           Y           Z
 ---------------------------------------------------------------------
      1         16           0        1.943169    0.272108   -0.145893
      2          6           0        0.659397    0.625378    1.091073
      3          6           0       -0.749055    0.841585    0.526248
      4          1           0        0.996884    1.538754    1.582725
      5          1           0        0.634585   -0.172541    1.832368
      6          7           0       -0.825210    1.731136   -0.628669
      7          6           0       -1.419613   -0.502382    0.194681
      8          1           0       -1.363403    1.258291    1.330030
      9          8           0       -1.372924   -1.448237    0.930579
     10          8           0       -2.069542   -0.507130   -0.964308
     11          6           0        1.566484   -1.444212   -0.607080
     12          1           0       -1.930471    0.392117   -1.338924
     13          1           0        0.057561    1.732030   -1.134173
     14          1           0       -1.059636    2.681375   -0.375818
     15          1           0        2.424027   -1.798990   -1.177153
     16          1           0        0.675194   -1.521972   -1.226365
     17          1           0        1.447491   -2.060030    0.282586
 ---------------------------------------------------------------------

 SCF Done:  E(RHF) =  -758.917473034     A.U. after    2 cycles

 The electronic state is 1-A.
 Alpha  occ. eigenvalues --  -93.95302 -20.58820 -20.52732 -15.52456 -11.38533
 Alpha  occ. eigenvalues --  -11.30461 -11.28298 -11.26588  -8.23412  -6.21244
 Alpha  occ. eigenvalues --   -6.21072  -6.20874  -1.54229  -1.45258  -1.22978
 Alpha  occ. eigenvalues --   -1.10056  -1.01826  -0.93646  -0.84122  -0.80841
 Alpha  occ. eigenvalues --   -0.75981  -0.72869  -0.68745  -0.64880  -0.63908
 Alpha  occ. eigenvalues --   -0.61741  -0.59792  -0.58629  -0.57873  -0.55621
 Alpha  occ. eigenvalues --   -0.50715  -0.49619  -0.46726  -0.44673  -0.42750
 Alpha  occ. eigenvalues --   -0.36287
 Alpha virt. eigenvalues --    0.02427   0.03843   0.04259   0.04671   0.05929
 Alpha virt. eigenvalues --    0.06017   0.06687   0.07564   0.08650   0.09803
 Alpha virt. eigenvalues --    0.10555   0.12338   0.13197   0.13479   0.13823

 Mulliken charges:
               1
     1  S    0.418685
     2  C   -0.194962
     3  C   -1.791493
     4  H    0.157708
     5  H    0.171045
     6  N    0.230662
     7  C    2.550275
     8  H    0.297939
     9  O   -1.382457
    10  O   -1.325352
    11  C   -0.713574
    12  H    0.466049
    13  H    0.349647
    14  H    0.295692
    15  H    0.111539
    16  H    0.164347
    17  H    0.194250
 Sum of Mulliken charges =  -0.00000

 Dipole moment (field-independent basis, Debye):
    X=              0.9087    Y=              3.6816    Z=             -0.1224  Tot=              3.7941

 Test job not archived.
 1\1\GINC-SE162\SP\RHF\Aug-CC-pVDZ\C4H9N1O2S1\OHZDE\09-Apr-2025\0\\#t h
 f aug-cc-pvdz iop(5/13=1,5/36=2,99/5=2) pseudo=read geom=check guess=(
 read,tcheck) scf=(maxcycle=1)\\title\\0,1\S,0,1.943169,0.272108,-0.145
 893\C,0,0.659397,0.625378,1.091073\C,0,-0.749055,0.841585,0.526248\H,0
 ,0.996884,1.538754,1.582725\H,0,0.634585,-0.172541,1.832368\N,0,-0.825
 21,1.731136,-0.628669\C,0,-1.419613,-0.502382,0.194681\H,0,-1.363403,1
 .258291,1.33003\O,0,-1.372924,-1.448237,0.930579\O,0,-2.069542,-0.5071
 3,-0.964308\C,0,1.566484,-1.444212,-0.60708\H,0,-1.930471,0.392117,-1.

 Normal termination of Gaussian 16 at Wed Apr  9 01:26:57 2025.
