 Gaussian 16, Revision C.01,

 ----------------------------------------------------------------------
 #t hf aug-cc-pvdz symm=none int=(grid=ultrafine) guess=(read,tcheck) s
 table=(opt,rrhf)
 ----------------------------------------------------------------------
 -----
 title
 -----
 Symbolic Z-matrix:
 Charge =  0 Multiplicity = 1

 SCF Done:  E(RHF) =  -1749.93723048     A.U. after   16 cycles
 Normal termination of Gaussian 16 at Wed Apr  9 01:08:16 2025.
 Gaussian 16:  ES64L-G16RevC.01  3-Jul-2019

 ----------------------------------------------------------------------
 #t hf aug-cc-pvdz iop(5/13=1,5/36=2,99/5=2) pseudo=read geom=check gue
 ss=(read,tcheck) scf=(maxcycle=1)
 ----------------------------------------------------------------------
 -----
 title
 -----
 Structure from the checkpoint file:  "BH10_277_reverse_mol2.chk"
 Charge =  0 Multiplicity = 1

                         Standard orientation:
 ---------------------------------------------------------------------
 Center     Atomic      Atomic             Coordinates (Angstroms)
 Number     Number       Type             X           Y           Z
 ---------------------------------------------------------------------
      1          6           0       -3.314440    1.414702   -0.490479
      2          6           0       -2.199422    0.615585   -0.631229
      3          6           0       -2.208000   -0.691319   -0.112320
      4          6           0       -3.349857   -1.163504    0.555299
      5          6           0       -4.467773   -0.361977    0.678986
      6          6           0       -4.447086    0.926141    0.156715
      7          1           0       -3.304354    2.425417   -0.877271
      8          1           0       -1.307779    1.008513   -1.102945
      9          1           0       -3.349143   -2.166363    0.966562
     10          1           0       -5.349773   -0.730727    1.186255
     11          1           0       -5.318947    1.560679    0.261430
     12          6           0       -1.092896   -1.574200   -0.256544
     13          6           0        0.135588   -1.302298   -0.903037
     14          6           0        0.803484   -0.908512    0.496882
     15          1           0       -1.188599   -2.542622    0.228525
     16          1           0        0.163404   -0.462042   -1.587014
     17          1           0        0.683845   -2.159760   -1.279480
     18          5           0        2.081217    0.095147    0.145339
     19         17           0        2.886179    0.425382    1.775338
     20         17           0        1.416881    1.680124   -0.605617
     21         17           0        3.232351   -0.752988   -1.032051
     22          1           0        1.143865   -1.803321    1.013508
     23          1           0        0.161800   -0.326006    1.157693
 ---------------------------------------------------------------------

 SCF Done:  E(RHF) =  -1750.55293125     A.U. after    2 cycles

 The electronic state is 1-A.
 Alpha  occ. eigenvalues -- -105.50630-105.50185-105.49806 -11.39019 -11.31769
 Alpha  occ. eigenvalues --  -11.31288 -11.30807 -11.30721 -11.29463 -11.29162
 Alpha  occ. eigenvalues --  -11.28846 -11.25763 -10.55609 -10.55174 -10.54792
 Alpha  occ. eigenvalues --   -7.72498  -7.72257  -7.72234  -7.72066  -7.71807
 Alpha  occ. eigenvalues --   -7.71794  -7.71686  -7.71417  -7.71406  -7.66722
 Alpha  occ. eigenvalues --   -1.23512  -1.17232  -1.08809  -1.08008  -1.04681
 Alpha  occ. eigenvalues --   -0.98211  -0.97910  -0.95890  -0.90484  -0.89300
 Alpha  occ. eigenvalues --   -0.84430  -0.78177  -0.74043  -0.71444  -0.68391
 Alpha  occ. eigenvalues --   -0.67006  -0.66050  -0.64125  -0.61822  -0.59138
 Alpha  occ. eigenvalues --   -0.57897  -0.57071  -0.55977  -0.55528  -0.51778
 Alpha  occ. eigenvalues --   -0.50288  -0.50019  -0.43274  -0.43209  -0.42725
 Alpha  occ. eigenvalues --   -0.40632  -0.40197  -0.40110  -0.38675  -0.37710
 Alpha virt. eigenvalues --   -0.03182   0.00782   0.01469   0.02554   0.03518
 Alpha virt. eigenvalues --    0.03768   0.05015   0.05789   0.06084   0.06824
 Alpha virt. eigenvalues --    0.07124   0.07895   0.08159   0.09212   0.09701

 Mulliken charges:
               1
     1  C   -0.032981
     2  C    0.277101
     3  C    1.736698
     4  C    0.000362
     5  C    0.231167
     6  C    0.066290
     7  H   -0.240872
     8  H   -0.313233
     9  H   -0.318341
    10  H   -0.227179
    11  H   -0.208398
    12  C    0.435677
    13  C   -0.379055
    14  C   -0.285648
    15  H   -0.245813
    16  H   -0.006262
    17  H    0.044786
    18  B    1.228721
    19  Cl  -0.599682
    20  Cl  -0.613127
    21  Cl  -0.605631
    22  H   -0.022513
    23  H    0.077934
 Sum of Mulliken charges =  -0.00000

 Dipole moment (field-independent basis, Debye):
    X=            -13.6813    Y=             -4.1860    Z=             -0.4115  Tot=             14.3132

 Test job not archived.
 1\1\GINC-SE212\SP\RHF\Aug-CC-pVDZ\C9H10B1Cl3\OHZDE\09-Apr-2025\0\\#t h
 f aug-cc-pvdz iop(5/13=1,5/36=2,99/5=2) pseudo=read geom=check guess=(
 read,tcheck) scf=(maxcycle=1)\\title\\0,1\C,0,3.31444,-1.414702,-0.490
 479\C,0,2.199422,-0.615585,-0.631229\C,0,2.208,0.691319,-0.11232\C,0,3
 .349857,1.163504,0.555299\C,0,4.467773,0.361977,0.678986\C,0,4.447086,
 -0.926141,0.156715\H,0,3.304354,-2.425417,-0.877271\H,0,1.307779,-1.00
 8513,-1.102945\H,0,3.349143,2.166363,0.966562\H,0,5.349773,0.730727,1.
 186255\H,0,5.318947,-1.560679,0.26143\C,0,1.092896,1.5742,-0.256544\C,

 Normal termination of Gaussian 16 at Wed Apr  9 01:08:38 2025.
