 Gaussian 16, Revision C.01,

 ----------------------------------------------------------------------
 #t hf aug-cc-pvdz symm=none int=(grid=ultrafine) guess=(read,tcheck) s
 table=(opt,rrhf)
 ----------------------------------------------------------------------
 -----
 title
 -----
 Symbolic Z-matrix:
 Charge =  0 Multiplicity = 1

 SCF Done:  E(RHF) =  -974.734116041     A.U. after   13 cycles
 Normal termination of Gaussian 16 at Wed Apr  9 00:55:06 2025.
 Gaussian 16:  ES64L-G16RevC.01  3-Jul-2019

 ----------------------------------------------------------------------
 #t hf aug-cc-pvdz iop(5/13=1,5/36=2,99/5=2) pseudo=read geom=check gue
 ss=(read,tcheck) scf=(maxcycle=1)
 ----------------------------------------------------------------------
 -----
 title
 -----
 Structure from the checkpoint file:  "BH10_102_reverse_mol3.chk"
 Charge =  0 Multiplicity = 1

                         Standard orientation:
 ---------------------------------------------------------------------
 Center     Atomic      Atomic             Coordinates (Angstroms)
 Number     Number       Type             X           Y           Z
 ---------------------------------------------------------------------
      1          6           0       -0.002065    0.338508    0.017708
      2          6           0        0.042281    1.237885   -1.206828
      3          6           0        0.087302    1.127566    1.312503
      4          1           0        0.005614    0.653224   -2.125464
      5          1           0        0.964011    1.819980   -1.202156
      6          1           0       -0.806871    1.924197   -1.189474
      7          1           0        1.012211    1.706388    1.333325
      8          1           0        0.076128    0.467646    2.179713
      9          1           0       -0.762077    1.808948    1.381623
     10         16           0       -1.538480   -0.639882   -0.084503
     11          1           0       -1.376838   -1.293766    1.078219
     12         17           0        1.455200   -0.768956   -0.049650
 ---------------------------------------------------------------------

 SCF Done:  E(RHF) =  -975.000444926     A.U. after    2 cycles

 The electronic state is 1-A.
 Alpha  occ. eigenvalues -- -105.55500 -93.96263 -11.35125 -11.25211 -11.25132
 Alpha  occ. eigenvalues --  -10.60334  -8.24397  -7.77263  -7.76903  -7.76896
 Alpha  occ. eigenvalues --   -6.22237  -6.22089  -6.21857  -1.16438  -1.01682
 Alpha  occ. eigenvalues --   -0.98965  -0.97040  -0.77158  -0.65355  -0.63767
 Alpha  occ. eigenvalues --   -0.62429  -0.57918  -0.53899  -0.53181  -0.52621
 Alpha  occ. eigenvalues --   -0.48863  -0.44772  -0.43977  -0.37774
 Alpha virt. eigenvalues --    0.03609   0.04236   0.04779   0.05215   0.06579
 Alpha virt. eigenvalues --    0.07130   0.07401   0.09557   0.10101   0.11653
 Alpha virt. eigenvalues --    0.13287   0.14373   0.15293   0.15831   0.16234

 Mulliken charges:
               1
     1  C   -1.649970
     2  C    0.096208
     3  C    0.070821
     4  H    0.167164
     5  H    0.200846
     6  H    0.230393
     7  H    0.209401
     8  H    0.126631
     9  H    0.249307
    10  S    0.101064
    11  H    0.321248
    12  Cl  -0.123112
 Sum of Mulliken charges =  -0.00000

 Dipole moment (field-independent basis, Debye):
    X=             -0.5594    Y=              1.8096    Z=              0.8349  Tot=              2.0699

 Test job not archived.
 1\1\GINC-SE455\SP\RHF\Aug-CC-pVDZ\C3H7Cl1S1\OHZDE\09-Apr-2025\0\\#t hf
  aug-cc-pvdz iop(5/13=1,5/36=2,99/5=2) pseudo=read geom=check guess=(r
 ead,tcheck) scf=(maxcycle=1)\\title\\0,1\C,0,-0.002065,0.338508,0.0177
 08\C,0,0.04228,1.237885,-1.206828\C,0,0.087301,1.127566,1.312503\H,0,0
 .005614,0.653224,-2.125464\H,0,0.96401,1.81998,-1.202156\H,0,-0.806872
 ,1.924197,-1.189474\H,0,1.01221,1.706388,1.333325\H,0,0.076128,0.46764
 6,2.179713\H,0,-0.762078,1.808948,1.381623\S,0,-1.53848,-0.639883,-0.0
 84503\H,0,-1.376838,-1.293767,1.078219\Cl,0,1.4552,-0.768956,-0.04965\

 Normal termination of Gaussian 16 at Wed Apr  9 00:55:11 2025.
