 Gaussian 16, Revision C.01,

 ----------------------------------------------------------------------
 #t hf aug-cc-pvdz symm=none int=(grid=ultrafine) guess=(read,tcheck) s
 table=(opt,rrhf)
 ----------------------------------------------------------------------
 -----
 title
 -----
 Symbolic Z-matrix:
 Charge =  0 Multiplicity = 1

 SCF Done:  E(RHF) =  -807.846128690     A.U. after   15 cycles
 Normal termination of Gaussian 16 at Wed Apr  9 00:59:28 2025.
 Gaussian 16:  ES64L-G16RevC.01  3-Jul-2019

 ----------------------------------------------------------------------
 #t hf aug-cc-pvdz iop(5/13=1,5/36=2,99/5=2) pseudo=read geom=check gue
 ss=(read,tcheck) scf=(maxcycle=1)
 ----------------------------------------------------------------------
 -----
 title
 -----
 Structure from the checkpoint file:  "BH10_138_forward_mol2.chk"
 Charge =  0 Multiplicity = 1

                         Standard orientation:
 ---------------------------------------------------------------------
 Center     Atomic      Atomic             Coordinates (Angstroms)
 Number     Number       Type             X           Y           Z
 ---------------------------------------------------------------------
      1         17           0       -2.042366   -1.579995    0.237173
      2          6           0       -1.134534   -0.021336   -0.160634
      3          6           0        0.304996   -0.444918   -0.469572
      4          6           0       -1.185284    0.804298    1.092980
      5          6           0       -1.707756    2.014736    1.211298
      6          1           0        0.282564   -1.180878   -1.278014
      7          1           0        0.710084   -0.952347    0.408668
      8          6           0        1.221358    0.714474   -0.851465
      9          1           0        0.905419    1.150578   -1.802174
     10          6           0        2.683738    0.272113   -0.996363
     11          1           0        1.161242    1.505331   -0.100094
     12          1           0        3.281713    1.106749   -1.371666
     13          1           0        2.758053   -0.524069   -1.743921
     14          6           0        3.267713   -0.197666    0.256165
     15          6           0        3.729174   -0.575047    1.294147
     16          1           0        4.144950   -0.913051    2.211880
     17          6           0       -1.833151    0.600642   -1.356102
     18          1           0       -1.361122    1.548631   -1.620432
     19          1           0       -2.885006    0.785731   -1.141987
     20          1           0       -1.769146   -0.067898   -2.214862
     21          1           0       -0.724008    0.330759    1.954841
     22          1           0       -2.180750    2.529050    0.383890
     23          1           0       -1.681286    2.537543    2.159195
 ---------------------------------------------------------------------

 SCF Done:  E(RHF) =  -808.295492278     A.U. after    2 cycles

 The electronic state is 1-A.
 Alpha  occ. eigenvalues -- -105.54313 -11.31735 -11.26632 -11.25262 -11.24656
 Alpha  occ. eigenvalues --  -11.24434 -11.24339 -11.24265 -11.24069 -11.23307
 Alpha  occ. eigenvalues --  -10.59133  -7.76057  -7.75715  -7.75712  -1.16184
 Alpha  occ. eigenvalues --   -1.09808  -1.03847  -1.02353  -0.98199  -0.95709
 Alpha  occ. eigenvalues --   -0.87206  -0.83079  -0.73986  -0.72821  -0.68003
 Alpha  occ. eigenvalues --   -0.66846  -0.64437  -0.63644  -0.62219  -0.58088
 Alpha  occ. eigenvalues --   -0.57019  -0.56445  -0.54489  -0.52022  -0.50888
 Alpha  occ. eigenvalues --   -0.49405  -0.48821  -0.44255  -0.43449  -0.39944
 Alpha  occ. eigenvalues --   -0.39810  -0.38394
 Alpha virt. eigenvalues --    0.02879   0.03189   0.03407   0.04086   0.04783
 Alpha virt. eigenvalues --    0.05557   0.06007   0.06656   0.06947   0.08059
 Alpha virt. eigenvalues --    0.08878   0.09233   0.09599   0.10047   0.11440

 Mulliken charges:
               1
     1  Cl  -0.087525
     2  C   -1.181973
     3  C    0.109562
     4  C    0.904082
     5  C   -0.153567
     6  H    0.104942
     7  H    0.177326
     8  C   -0.210097
     9  H    0.100249
    10  C   -0.799880
    11  H    0.166790
    12  H    0.212939
    13  H    0.241458
    14  C    0.529929
    15  C    0.237471
    16  H   -0.464019
    17  C   -0.056661
    18  H    0.335534
    19  H    0.187912
    20  H    0.138157
    21  H   -0.224156
    22  H   -0.141308
    23  H   -0.127167
 Sum of Mulliken charges =  -0.00000

 Dipole moment (field-independent basis, Debye):
    X=              0.9826    Y=              2.2759    Z=             -1.1193  Tot=              2.7199

 Test job not archived.
 1\1\GINC-SE149\SP\RHF\Aug-CC-pVDZ\C9H13Cl1\OHZDE\09-Apr-2025\0\\#t hf
 aug-cc-pvdz iop(5/13=1,5/36=2,99/5=2) pseudo=read geom=check guess=(re
 ad,tcheck) scf=(maxcycle=1)\\title\\0,1\Cl,0,2.042366,-1.579995,-0.237
 173\C,0,1.134534,-0.021336,0.160634\C,0,-0.304996,-0.444918,0.469572\C
 ,0,1.185284,0.804298,-1.09298\C,0,1.707756,2.014736,-1.211298\H,0,-0.2
 82564,-1.180878,1.278014\H,0,-0.710084,-0.952347,-0.408668\C,0,-1.2213
 58,0.714474,0.851465\H,0,-0.905419,1.150578,1.802174\C,0,-2.683738,0.2
 72113,0.996363\H,0,-1.161242,1.505331,0.100094\H,0,-3.281713,1.106749,

 Normal termination of Gaussian 16 at Wed Apr  9 00:59:44 2025.
