 Gaussian 16, Revision C.01,

 ----------------------------------------------------------------------
 #t hf aug-cc-pvdz symm=none int=(grid=ultrafine) guess=(read,tcheck) s
 table=(opt,rrhf)
 ----------------------------------------------------------------------
 -----
 title
 -----
 Symbolic Z-matrix:
 Charge = -1 Multiplicity = 1

 SCF Done:  E(RHF) =  -1399.58946343     A.U. after   15 cycles
 Normal termination of Gaussian 16 at Wed Apr  9 01:36:43 2025.
 Gaussian 16:  ES64L-G16RevC.01  3-Jul-2019

 ----------------------------------------------------------------------
 #t hf aug-cc-pvdz iop(5/13=1,5/36=2,99/5=2) pseudo=read geom=check gue
 ss=(read,tcheck) scf=(maxcycle=1)
 ----------------------------------------------------------------------
 -----
 title
 -----
 Structure from the checkpoint file:  "BH10_314_forward_mol2.chk"
 Charge = -1 Multiplicity = 1

                         Standard orientation:
 ---------------------------------------------------------------------
 Center     Atomic      Atomic             Coordinates (Angstroms)
 Number     Number       Type             X           Y           Z
 ---------------------------------------------------------------------
      1          6           0       -1.175336    0.923045    0.305232
      2          6           0       -2.479117    0.133318    0.220054
      3          6           0       -2.158359   -1.274306    0.727687
      4          1           0       -3.196517    0.604216    0.895221
      5          6           0       -0.963366   -1.891896   -0.014587
      6          6           0        0.032577   -1.039002   -0.455006
      7          8           0       -0.196058    0.389911   -0.529249
      8          6           0       -1.325552    2.392456   -0.113964
      9          6           0        1.135098   -1.434595   -1.335409
     10          1           0        1.182265   -0.788488    1.160750
     11          8           0        2.504400   -1.274163   -0.785061
     12          1           0        1.137639   -0.864663   -2.269451
     13          1           0        1.054510   -2.498709   -1.537873
     14         15           0        2.928342   -0.057423    0.149233
     15          8           0        4.351362   -0.029189    0.492641
     16          8           0        1.927724   -0.188443    1.413142
     17          8           0        2.458587    1.284552   -0.593169
     18          1           0        1.490099    1.350549   -0.680298
     19          8           0       -0.980086   -3.144049   -0.125224
     20          8           0       -3.258567   -2.143621    0.588887
     21          1           0       -1.879856   -1.202612    1.784362
     22          1           0       -2.828008   -2.983354    0.333830
     23          8           0       -2.347774    3.019319   -0.131006
     24          8           0       -0.130027    2.945871   -0.388587
     25          1           0       -0.275684    3.883820   -0.569787
     26          8           0       -0.754115    0.955380    1.656111
     27          1           0        0.213395    1.019309    1.676066
     28          6           0       -3.043143    0.112304   -1.197008
     29          1           0       -3.909286   -0.547571   -1.222584
     30          1           0       -3.348363    1.109520   -1.514448
     31          1           0       -2.305699   -0.273145   -1.904153
 ---------------------------------------------------------------------

 SCF Done:  E(RHF) =  -1400.68299417     A.U. after    2 cycles

 The electronic state is 1-A.
 Alpha  occ. eigenvalues --  -84.32904 -20.52545 -20.47010 -20.46702 -20.46315
 Alpha  occ. eigenvalues --  -20.46081 -20.45901 -20.45073 -20.42207 -20.37748
 Alpha  occ. eigenvalues --  -20.36043 -11.31292 -11.27426 -11.19259 -11.18514
 Alpha  occ. eigenvalues --  -11.17077 -11.14154 -11.13216 -11.12273  -6.77659
 Alpha  occ. eigenvalues --   -4.31875  -4.31254  -4.31080  -1.48036  -1.42891
 Alpha  occ. eigenvalues --   -1.41578  -1.38075  -1.34869  -1.34232  -1.33905
 Alpha  occ. eigenvalues --   -1.33502  -1.27984  -1.26108  -0.99431  -0.94988
 Alpha  occ. eigenvalues --   -0.86889  -0.85319  -0.78829  -0.75547  -0.71857
 Alpha  occ. eigenvalues --   -0.69313  -0.65665  -0.64390  -0.63261  -0.62088
 Alpha  occ. eigenvalues --   -0.61093  -0.58931  -0.57282  -0.56561  -0.55154
 Alpha  occ. eigenvalues --   -0.54235  -0.54026  -0.53120  -0.52005  -0.49636
 Alpha  occ. eigenvalues --   -0.49083  -0.48741  -0.46310  -0.45229  -0.44518
 Alpha  occ. eigenvalues --   -0.43879  -0.43399  -0.42562  -0.41920  -0.40496
 Alpha  occ. eigenvalues --   -0.40270  -0.39983  -0.39355  -0.39040  -0.37640
 Alpha  occ. eigenvalues --   -0.36620  -0.35638  -0.34604  -0.33933  -0.33640
 Alpha  occ. eigenvalues --   -0.31864  -0.26652  -0.17739
 Alpha virt. eigenvalues --    0.10484   0.11752   0.12136   0.13003   0.13436
 Alpha virt. eigenvalues --    0.14250   0.14666   0.14760   0.15247   0.16329
 Alpha virt. eigenvalues --    0.16986   0.17997   0.19037   0.19279   0.19671

 Mulliken charges:
               1
     1  C    1.299367
     2  C   -0.871752
     3  C    1.244294
     4  H    0.112050
     5  C    1.264298
     6  C    0.813670
     7  O   -2.326619
     8  C    3.296972
     9  C    0.456122
    10  H    1.008482
    11  O   -1.674141
    12  H    0.113896
    13  H    0.027172
    14  P    4.115193
    15  O   -1.555451
    16  O   -1.600117
    17  O   -1.450410
    18  H    0.805901
    19  O   -1.883062
    20  O   -1.488166
    21  H    0.273341
    22  H    0.258496
    23  O   -1.434793
    24  O   -1.547745
    25  H    0.485445
    26  O   -1.660508
    27  H    0.374920
    28  C   -0.097817
    29  H    0.197194
    30  H    0.166503
    31  H    0.277263
 Sum of Mulliken charges =  -1.00000

 Dipole moment (field-independent basis, Debye):
    X=             -3.8619    Y=              5.2605    Z=             -2.2288  Tot=              6.8960

 Test job not archived.
 1\1\GINC-SE069\SP\RHF\Aug-CC-pVDZ\C8H12O10P1(1-)\OHZDE\09-Apr-2025\0\\
 #t hf aug-cc-pvdz iop(5/13=1,5/36=2,99/5=2) pseudo=read geom=check gue
 ss=(read,tcheck) scf=(maxcycle=1)\\title\\-1,1\C,0,-1.175336,0.923045,
 0.305232\C,0,-2.479117,0.133318,0.220054\C,0,-2.158359,-1.274306,0.727
 687\H,0,-3.196517,0.604216,0.895221\C,0,-0.963366,-1.891896,-0.014587\
 C,0,0.032577,-1.039002,-0.455006\O,0,-0.196058,0.389911,-0.529249\C,0,
 -1.325552,2.392456,-0.113964\C,0,1.135098,-1.434595,-1.335409\H,0,1.18
 2265,-0.788488,1.16075\O,0,2.5044,-1.274163,-0.785061\H,0,1.137639,-0.

 Normal termination of Gaussian 16 at Wed Apr  9 01:37:40 2025.
