 Gaussian 16, Revision C.01,

 ----------------------------------------------------------------------
 #t hf aug-cc-pvdz symm=none int=(grid=ultrafine) guess=(read,tcheck) s
 table=(opt,rrhf)
 ----------------------------------------------------------------------
 -----
 title
 -----
 Symbolic Z-matrix:
 Charge =  0 Multiplicity = 1

 SCF Done:  E(RHF) =  -1566.58083720     A.U. after   14 cycles
 Normal termination of Gaussian 16 at Wed Apr  9 00:58:05 2025.
 Gaussian 16:  ES64L-G16RevC.01  3-Jul-2019

 ----------------------------------------------------------------------
 #t hf aug-cc-pvdz iop(5/13=1,5/36=2,99/5=2) pseudo=read geom=check gue
 ss=(read,tcheck) scf=(maxcycle=1)
 ----------------------------------------------------------------------
 -----
 title
 -----
 Structure from the checkpoint file:  "BH10_166_reverse_mol3.chk"
 Charge =  0 Multiplicity = 1

                         Standard orientation:
 ---------------------------------------------------------------------
 Center     Atomic      Atomic             Coordinates (Angstroms)
 Number     Number       Type             X           Y           Z
 ---------------------------------------------------------------------
      1          8           0        1.947460    0.120187    1.075988
      2          8           0        0.546123   -0.013160    1.288554
      3          6           0       -0.114264    0.006548    0.078736
      4         17           0       -1.812607   -0.112399    0.543284
      5         17           0        0.192837    1.505286   -0.823171
      6         17           0        0.354398   -1.398991   -0.931610
      7          1           0        2.248239   -0.791742    1.206695
 ---------------------------------------------------------------------

 SCF Done:  E(RHF) =  -1566.98761302     A.U. after    2 cycles

 The electronic state is 1-A.
 Alpha  occ. eigenvalues -- -105.60667-105.60296-105.59918 -20.67584 -20.66082
 Alpha  occ. eigenvalues --  -11.50564 -10.65573 -10.65188 -10.64818  -7.82529
 Alpha  occ. eigenvalues --   -7.82130  -7.82067  -7.82060  -7.81770  -7.81702
 Alpha  occ. eigenvalues --   -7.81690  -7.81317  -7.81315  -1.66487  -1.37110
 Alpha  occ. eigenvalues --   -1.18294  -1.08609  -1.08122  -0.85553  -0.77179
 Alpha  occ. eigenvalues --   -0.72598  -0.71555  -0.65914  -0.60405  -0.54697
 Alpha  occ. eigenvalues --   -0.53239  -0.51618  -0.50964  -0.50033  -0.48128
 Alpha  occ. eigenvalues --   -0.47794  -0.46578
 Alpha virt. eigenvalues --    0.03717   0.06642   0.08238   0.08605   0.09917
 Alpha virt. eigenvalues --    0.11858   0.12795   0.13655   0.14118   0.14407
 Alpha virt. eigenvalues --    0.16005   0.17181   0.18614   0.18874   0.19078

 Mulliken charges:
               1
     1  O   -0.375086
     2  O   -0.634643
     3  C    0.013854
     4  Cl   0.202436
     5  Cl   0.212135
     6  Cl   0.169116
     7  H    0.412187
 Sum of Mulliken charges =  -0.00000

 Dipole moment (field-independent basis, Debye):
    X=              0.9240    Y=             -1.3311    Z=              0.2681  Tot=              1.6424

 Test job not archived.
 1\1\GINC-SE184\SP\RHF\Aug-CC-pVDZ\C1H1Cl3O2\OHZDE\09-Apr-2025\0\\#t hf
  aug-cc-pvdz iop(5/13=1,5/36=2,99/5=2) pseudo=read geom=check guess=(r
 ead,tcheck) scf=(maxcycle=1)\\title\\0,1\O,0,1.94746,0.120186,1.075988
 \O,0,0.546123,-0.01316,1.288554\C,0,-0.114264,0.006548,0.078736\Cl,0,-
 1.812607,-0.112398,0.543284\Cl,0,0.192837,1.505286,-0.823171\Cl,0,0.35
 4398,-1.398991,-0.93161\H,0,2.248239,-0.791743,1.206695\\Version=ES64L
 -G16RevC.01\State=1-A\HF=-1566.987613\RMSD=5.875e-03\Dipole=0.3635196,
 -0.5236849,0.1054782\Quadrupole=1.8713527,-0.118067,-1.7532857,-2.7183

 Normal termination of Gaussian 16 at Wed Apr  9 00:58:09 2025.
