 Gaussian 16, Revision C.01,

 ----------------------------------------------------------------------
 #t hf aug-cc-pvdz symm=none int=(grid=ultrafine) guess=(read,tcheck) s
 table=(opt,rrhf)
 ----------------------------------------------------------------------
 -----
 title
 -----
 Symbolic Z-matrix:
 Charge =  0 Multiplicity = 1

 SCF Done:  E(RHF) =  -1035.36557436     A.U. after   16 cycles
 Normal termination of Gaussian 16 at Wed Apr  9 01:48:22 2025.
 Gaussian 16:  ES64L-G16RevC.01  3-Jul-2019

 ----------------------------------------------------------------------
 #t hf aug-cc-pvdz iop(5/13=1,5/36=2,99/5=2) pseudo=read geom=check gue
 ss=(read,tcheck) scf=(maxcycle=1)
 ----------------------------------------------------------------------
 -----
 title
 -----
 Structure from the checkpoint file:  "BH10_289_reverse_mol2.chk"
 Charge =  0 Multiplicity = 1

                         Standard orientation:
 ---------------------------------------------------------------------
 Center     Atomic      Atomic             Coordinates (Angstroms)
 Number     Number       Type             X           Y           Z
 ---------------------------------------------------------------------
      1          6           0        1.667873   -2.462403   -0.497620
      2          1           0        1.235812   -3.456192   -0.623136
      3          1           0        0.240747   -1.826575   -2.018115
      4          6           0        0.550646   -1.259276    1.088944
      5          8           0        0.194651   -0.888290    2.166956
      6          6           0       -2.100006    0.093591    0.720074
      7          8           0       -3.120109    0.950433    0.266550
      8          8           0       -1.327898    0.209494   -1.552267
      9          1           0       -4.560248    3.731986    0.149421
     10          1           0       -5.017585    2.342154   -0.847101
     11          1           0       -1.711886    4.056214    0.417408
     12          1           0       -1.034885    3.005904   -0.809703
     13          6           0       -3.334172   -2.003204    0.032465
     14          1           0        1.059459    0.416881   -2.370559
     15          6           0        2.624399    0.434626   -0.901028
     16          6           0        4.748913    0.682370    0.227789
     17          6           0        2.913393    2.109054    0.819245
     18          1           0        1.101028    1.811274   -0.278559
     19          1           0        4.848790    2.197269    1.745758
     20          1           0        4.371581   -0.737946   -1.329394
     21          1           0        2.722097   -2.480395   -0.762019
     22          6           0        0.872997   -1.389420   -1.246018
     23          7           0        0.018520   -0.915569   -0.155947
     24          8           0        1.572365   -2.105832    0.888871
     25          6           0       -1.119493   -0.163767   -0.423924
     26          5           0       -2.937718    2.266431   -0.047374
     27          6           0       -4.197740    3.017659   -0.599020
     28          1           0       -3.948948    3.611967   -1.483444
     29          6           0       -1.562712    3.007463    0.150881
     30          1           0       -0.894306    2.560496    0.890504
     31          6           0       -3.013649   -3.260856   -0.236459
     32          6           0       -2.761527   -1.216926    1.171306
     33          6           0        1.733899   -0.283994   -1.879192
     34          1           0        2.336195   -0.755090   -2.660889
     35          6           0        3.951419    0.053647   -0.717885
     36          6           0        4.229106    1.707797    1.004491
     37          6           0        2.121169    1.479922   -0.129062
     38          1           0        2.502093    2.916615    1.412713
     39          1           0        5.778848    0.371975    0.356328
     40          1           0       -2.045926   -1.814307    1.734990
     41          1           0       -3.556842   -0.923190    1.861584
     42          1           0       -3.452792   -3.792082   -1.072236
     43          1           0       -2.309907   -3.810203    0.381721
     44          1           0       -4.042212   -1.477894   -0.601689
     45          1           0       -1.561320    0.523819    1.564115
 ---------------------------------------------------------------------

 SCF Done:  E(RHF) =  -1036.41464751     A.U. after    2 cycles

 The electronic state is 1-A.
 Alpha  occ. eigenvalues --  -20.60809 -20.54637 -20.54343 -20.53957 -15.56740
 Alpha  occ. eigenvalues --  -11.43382 -11.38324 -11.32412 -11.31073 -11.30815
 Alpha  occ. eigenvalues --  -11.25382 -11.25314 -11.24757 -11.24671 -11.24617
 Alpha  occ. eigenvalues --  -11.24423 -11.24387 -11.24354 -11.24328 -11.23474
 Alpha  occ. eigenvalues --  -11.20048 -11.19004  -7.59965  -1.57481  -1.50298
 Alpha  occ. eigenvalues --   -1.48006  -1.46624  -1.29183  -1.17009  -1.10615
 Alpha  occ. eigenvalues --   -1.09436  -1.03737  -1.02501  -1.02142  -0.96978
 Alpha  occ. eigenvalues --   -0.96210  -0.95007  -0.92758  -0.89835  -0.87625
 Alpha  occ. eigenvalues --   -0.84468  -0.81797  -0.78916  -0.77333  -0.74756
 Alpha  occ. eigenvalues --   -0.73682  -0.72660  -0.71379  -0.69303  -0.67732
 Alpha  occ. eigenvalues --   -0.66340  -0.65777  -0.65540  -0.64389  -0.63503
 Alpha  occ. eigenvalues --   -0.62589  -0.61716  -0.61186  -0.60424  -0.59627
 Alpha  occ. eigenvalues --   -0.59334  -0.58858  -0.57107  -0.56611  -0.56117
 Alpha  occ. eigenvalues --   -0.54914  -0.53714  -0.53325  -0.52876  -0.52194
 Alpha  occ. eigenvalues --   -0.51334  -0.50765  -0.50624  -0.49821  -0.49343
 Alpha  occ. eigenvalues --   -0.48934  -0.46647  -0.46387  -0.44527  -0.44203
 Alpha  occ. eigenvalues --   -0.43263  -0.37667  -0.35285  -0.34658
 Alpha virt. eigenvalues --    0.02338   0.03017   0.03288   0.03370   0.03621
 Alpha virt. eigenvalues --    0.03968   0.04188   0.04661   0.05363   0.05959
 Alpha virt. eigenvalues --    0.06221   0.07013   0.07302   0.07623   0.07851

 Mulliken charges:
               1
     1  C    0.725361
     2  H    0.097056
     3  H   -0.144900
     4  C    2.144303
     5  O   -1.341896
     6  C    1.570823
     7  O   -2.260191
     8  O   -1.618561
     9  H    0.101303
    10  H   -0.074708
    11  H   -0.135396
    12  H    0.232227
    13  C    1.191528
    14  H    0.085144
    15  C    1.164451
    16  C   -0.107400
    17  C   -0.534923
    18  H   -0.342239
    19  H   -0.244285
    20  H   -0.338331
    21  H    0.104172
    22  C   -1.133058
    23  N    3.379130
    24  O   -1.592492
    25  C   -1.315370
    26  B    1.375874
    27  C   -0.457820
    28  H    0.049813
    29  C   -0.461377
    30  H    0.140368
    31  C   -0.176541
    32  C   -0.592244
    33  C   -0.891939
    34  H    0.030759
    35  C    0.451940
    36  C    0.126059
    37  C    1.173803
    38  H   -0.327401
    39  H   -0.261809
    40  H    0.131245
    41  H    0.219982
    42  H   -0.145130
    43  H   -0.175164
    44  H   -0.172458
    45  H    0.350293
 Sum of Mulliken charges =  -0.00000

 Dipole moment (field-independent basis, Debye):
    X=              2.3279    Y=             -1.4201    Z=             -1.7910  Tot=              3.2625

 Test job not archived.
 1\1\GINC-SE038\SP\RHF\Aug-CC-pVDZ\C17H22B1N1O4\OHZDE\09-Apr-2025\0\\#t
  hf aug-cc-pvdz iop(5/13=1,5/36=2,99/5=2) pseudo=read geom=check guess
 =(read,tcheck) scf=(maxcycle=1)\\title\\0,1\C,0,1.667873,-2.462403,-0.
 49762\H,0,1.235812,-3.456192,-0.623136\H,0,0.240747,-1.826575,-2.01811
 5\C,0,0.550646,-1.259276,1.088944\O,0,0.194651,-0.88829,2.166956\C,0,-
 2.100006,0.093591,0.720074\O,0,-3.120109,0.950433,0.26655\O,0,-1.32789
 8,0.209494,-1.552267\H,0,-4.560248,3.731986,0.149421\H,0,-5.017585,2.3
 42154,-0.847101\H,0,-1.711886,4.056214,0.417408\H,0,-1.034885,3.005904

 Normal termination of Gaussian 16 at Wed Apr  9 01:50:43 2025.
