 Gaussian 16, Revision C.01,

 ----------------------------------------------------------------------
 #t hf aug-cc-pvdz symm=none int=(grid=ultrafine) guess=(read,tcheck) s
 table=(opt,rrhf)
 ----------------------------------------------------------------------
 -----
 title
 -----
 Symbolic Z-matrix:
 Charge =  0 Multiplicity = 1

 SCF Done:  E(RHF) =  -833.164940479     A.U. after   13 cycles
 Normal termination of Gaussian 16 at Wed Apr  9 00:55:31 2025.
 Gaussian 16:  ES64L-G16RevC.01  3-Jul-2019

 ----------------------------------------------------------------------
 #t hf aug-cc-pvdz iop(5/13=1,5/36=2,99/5=2) pseudo=read geom=check gue
 ss=(read,tcheck) scf=(maxcycle=1)
 ----------------------------------------------------------------------
 -----
 title
 -----
 Structure from the checkpoint file:  "BH10_107_reverse_mol3.chk"
 Charge =  0 Multiplicity = 1

                         Standard orientation:
 ---------------------------------------------------------------------
 Center     Atomic      Atomic             Coordinates (Angstroms)
 Number     Number       Type             X           Y           Z
 ---------------------------------------------------------------------
      1          9           0        1.871725   -0.652518   -0.000002
      2         16           0        0.997302    0.736788    0.000001
      3          6           0       -0.638626   -0.043836    0.000000
      4          9           0       -1.512847    0.969162   -0.000001
      5          9           0       -0.853054   -0.798633    1.072499
      6          9           0       -0.853055   -0.798632   -1.072499
 ---------------------------------------------------------------------

 SCF Done:  E(RHF) =  -833.615953830     A.U. after    2 cycles

 The electronic state is 1-A.
 Alpha  occ. eigenvalues --  -94.08234 -26.54300 -26.53467 -26.53464 -26.51231
 Alpha  occ. eigenvalues --  -11.56991  -8.35642  -6.33396  -6.33123  -6.32786
 Alpha  occ. eigenvalues --   -1.75405  -1.65246  -1.64581  -1.61932  -1.09696
 Alpha  occ. eigenvalues --   -0.95014  -0.84750  -0.84464  -0.81994  -0.72162
 Alpha  occ. eigenvalues --   -0.71903  -0.69208  -0.69035  -0.66954  -0.66487
 Alpha  occ. eigenvalues --   -0.65833  -0.64865  -0.53488  -0.43355
 Alpha virt. eigenvalues --    0.04603   0.06595   0.08608   0.09855   0.11147
 Alpha virt. eigenvalues --    0.11369   0.12193   0.14593   0.20481   0.21839
 Alpha virt. eigenvalues --    0.22683   0.24061   0.27177   0.29293   0.29593

 Mulliken charges:
               1
     1  F   -0.646287
     2  S    0.934870
     3  C    1.530339
     4  F   -0.592365
     5  F   -0.613279
     6  F   -0.613279
 Sum of Mulliken charges =  -0.00000

 Dipole moment (field-independent basis, Debye):
    X=              0.1123    Y=              1.0332    Z=              0.0000  Tot=              1.0393

 Test job not archived.
 1\1\GINC-SE212\SP\RHF\Aug-CC-pVDZ\C1F4S1\OHZDE\09-Apr-2025\0\\#t hf au
 g-cc-pvdz iop(5/13=1,5/36=2,99/5=2) pseudo=read geom=check guess=(read
 ,tcheck) scf=(maxcycle=1)\\title\\0,1\F,0,-1.871725,-0.652518,0.000002
 \S,0,-0.997302,0.736788,-0.000001\C,0,0.638626,-0.043836,0.\F,0,1.5128
 47,0.969162,0.000001\F,0,0.853054,-0.798633,-1.072499\F,0,0.853055,-0.
 798632,1.072499\\Version=ES64L-G16RevC.01\State=1-A\HF=-833.6159538\RM
 SD=3.286e-03\Dipole=-0.0441705,0.406492,-0.0000009\Quadrupole=-0.02336
 99,0.5939737,-0.5706038,-1.0343659,0.0000018,-0.0000034\PG=C01 [X(C1F4

 Normal termination of Gaussian 16 at Wed Apr  9 00:55:34 2025.
