 Gaussian 16, Revision C.01,

 ----------------------------------------------------------------------
 #t hf aug-cc-pvdz symm=none int=(grid=ultrafine) guess=(read,tcheck) s
 table=(opt,rrhf)
 ----------------------------------------------------------------------
 -----
 title
 -----
 Symbolic Z-matrix:
 Charge =  0 Multiplicity = 1

 SCF Done:  E(RHF) =  -816.214381000     A.U. after   15 cycles
 Normal termination of Gaussian 16 at Wed Apr  9 01:01:39 2025.
 Gaussian 16:  ES64L-G16RevC.01  3-Jul-2019

 ----------------------------------------------------------------------
 #t hf aug-cc-pvdz iop(5/13=1,5/36=2,99/5=2) pseudo=read geom=check gue
 ss=(read,tcheck) scf=(maxcycle=1)
 ----------------------------------------------------------------------
 -----
 title
 -----
 Structure from the checkpoint file:  "BH10_223_forward_mol2.chk"
 Charge =  0 Multiplicity = 1

                         Standard orientation:
 ---------------------------------------------------------------------
 Center     Atomic      Atomic             Coordinates (Angstroms)
 Number     Number       Type             X           Y           Z
 ---------------------------------------------------------------------
      1          8           0        1.721031   -0.796577   -1.184470
      2          6           0        2.226198   -0.236070   -0.250395
      3          8           0        3.394365   -0.630293    0.287484
      4          6           0        1.671852    0.976218    0.446260
      5          6           0        0.283448    1.331805   -0.053713
      6          6           0       -0.743526    0.296641    0.359179
      7          1           0        0.269978    1.441116   -1.138981
      8          1           0       -0.034891    2.287269    0.372905
      9         16           0       -2.235112    0.336709   -0.601925
     10          6           0       -3.167186   -0.954423    0.255071
     11          1           0       -3.334389   -0.677955    1.293494
     12          1           0       -2.624839   -1.895888    0.210445
     13          1           0       -4.119658   -1.047820   -0.263610
     14          8           0       -0.583594   -0.466858    1.274929
     15          1           0        3.692402   -1.407551   -0.205557
     16          1           0        1.665175    0.776685    1.518531
     17          1           0        2.368887    1.801591    0.281619
 ---------------------------------------------------------------------

 SCF Done:  E(RHF) =  -816.694091231     A.U. after    2 cycles

 The electronic state is 1-A.
 Alpha  occ. eigenvalues --  -93.96188 -20.60390 -20.54712 -20.54188 -11.39776
 Alpha  occ. eigenvalues --  -11.37031 -11.26854 -11.26545 -11.26501  -8.24475
 Alpha  occ. eigenvalues --   -6.22291  -6.22112  -6.21921  -1.55580  -1.49164
 Alpha  occ. eigenvalues --   -1.45933  -1.11182  -1.08375  -0.97921  -0.90260
 Alpha  occ. eigenvalues --   -0.81748  -0.74604  -0.71872  -0.70685  -0.68974
 Alpha  occ. eigenvalues --   -0.64705  -0.63459  -0.62783  -0.60160  -0.58871
 Alpha  occ. eigenvalues --   -0.57069  -0.55074  -0.53882  -0.52061  -0.48991
 Alpha  occ. eigenvalues --   -0.48009  -0.45103  -0.40922  -0.37525
 Alpha virt. eigenvalues --    0.03327   0.03803   0.03947   0.04752   0.05669
 Alpha virt. eigenvalues --    0.06279   0.06631   0.06978   0.09948   0.10483
 Alpha virt. eigenvalues --    0.11909   0.12398   0.12656   0.13151   0.13645

 Mulliken charges:
               1
     1  O   -1.204447
     2  C    2.107719
     3  O   -1.288046
     4  C   -0.489098
     5  C   -0.489074
     6  C    0.977643
     7  H    0.226924
     8  H    0.271449
     9  S    0.427810
    10  C   -0.640540
    11  H    0.220755
    12  H    0.241065
    13  H    0.116299
    14  O   -1.324199
    15  H    0.380416
    16  H    0.232060
    17  H    0.233263
 Sum of Mulliken charges =  -0.00000

 Dipole moment (field-independent basis, Debye):
    X=              0.3192    Y=              1.3321    Z=              0.3873  Tot=              1.4235

 Test job not archived.
 1\1\GINC-SE131\SP\RHF\Aug-CC-pVDZ\C5H8O3S1\OHZDE\09-Apr-2025\0\\#t hf
 aug-cc-pvdz iop(5/13=1,5/36=2,99/5=2) pseudo=read geom=check guess=(re
 ad,tcheck) scf=(maxcycle=1)\\title\\0,1\O,0,1.721031,-0.796577,-1.1844
 7\C,0,2.226198,-0.23607,-0.250395\O,0,3.394365,-0.630293,0.287484\C,0,
 1.671852,0.976218,0.44626\C,0,0.283448,1.331805,-0.053713\C,0,-0.74352
 6,0.296641,0.359179\H,0,0.269978,1.441116,-1.138981\H,0,-0.034891,2.28
 7269,0.372905\S,0,-2.235112,0.336709,-0.601925\C,0,-3.167186,-0.954423
 ,0.255071\H,0,-3.334389,-0.677955,1.293494\H,0,-2.624839,-1.895888,0.2

 Normal termination of Gaussian 16 at Wed Apr  9 01:01:47 2025.
