 Gaussian 16, Revision C.01,

 ----------------------------------------------------------------------
 #t hf aug-cc-pvdz symm=none int=(grid=ultrafine) guess=(read,tcheck) s
 table=(opt,rrhf)
 ----------------------------------------------------------------------
 -----
 title
 -----
 Symbolic Z-matrix:
 Charge =  0 Multiplicity = 1

 SCF Done:  E(RHF) =  -1375.35010810     A.U. after   18 cycles
 Normal termination of Gaussian 16 at Wed Apr  9 03:04:28 2025.
 Gaussian 16:  ES64L-G16RevC.01  3-Jul-2019

 ----------------------------------------------------------------------
 #t hf aug-cc-pvdz iop(5/13=1,5/36=2,99/5=2) pseudo=read geom=check gue
 ss=(read,tcheck) scf=(maxcycle=1)
 ----------------------------------------------------------------------
 -----
 title
 -----
 Structure from the checkpoint file:  "BH10_396_forward_mol1.chk"
 Charge =  0 Multiplicity = 1

                         Standard orientation:
 ---------------------------------------------------------------------
 Center     Atomic      Atomic             Coordinates (Angstroms)
 Number     Number       Type             X           Y           Z
 ---------------------------------------------------------------------
      1          6           0       -0.586434   -2.193783    1.322254
      2          1           0       -0.713328   -3.207169    1.703485
      3          1           0       -0.819618   -1.509122    2.148833
      4          6           0       -1.585645   -1.923786    0.190440
      5          6           0        0.136173   -0.499745   -0.893441
      6          1           0        0.491848   -1.162863   -1.688549
      7          1           0        0.271926    0.509542   -1.266942
      8          6           0        1.018939   -0.706077    0.354507
      9          1           0        0.729328    0.043276    1.095739
     10          7           0        0.803960   -2.011217    0.971077
     11          6           0       -2.342004    0.117391   -0.905984
     12          6           0       -2.779563   -2.634226    0.168165
     13          1           0       -3.092776   -3.057436   -0.767832
     14          1           0       -3.012042   -3.266574    1.023764
     15          6           0       -3.670704   -0.017467   -0.494095
     16          1           0       -4.138479    0.879755   -0.094218
     17          6           0       -4.367452   -1.216191   -0.407085
     18          6           0       -1.318742   -0.814544   -0.629934
     19          6           0       -5.634142   -1.310435    0.399129
     20          1           0       -5.822995   -2.337623    0.715852
     21          1           0       -5.586275   -0.686130    1.292481
     22          1           0       -6.497041   -0.992689   -0.195395
     23          1           0       -4.360809   -1.827493   -1.293554
     24          6           0        2.472389   -0.490650    0.012170
     25          6           0        1.378998   -3.096623    0.191673
     26          1           0        1.009381   -3.113831   -0.846239
     27          1           0        1.080377   -4.042128    0.648432
     28          6           0        2.894121   -2.968847    0.206224
     29          1           0        3.337319   -3.670623   -0.505526
     30          6           0        3.352386   -1.564798   -0.101840
     31          1           0        3.258786   -3.245488    1.200415
     32          6           0        4.674966   -1.318725   -0.467169
     33          1           0        5.360610   -2.154793   -0.559234
     34          6           0        2.928702    0.803906   -0.226625
     35          1           0        2.240580    1.635628   -0.122796
     36          6           0        5.123690   -0.031591   -0.709720
     37          1           0        6.155482    0.139006   -0.992985
     38          6           0        4.245128    1.038235   -0.584218
     39          1           0        4.586992    2.050661   -0.762998
     40         16           0       -1.952214    1.763244   -1.509188
     41          6           0       -0.935175    2.473189   -0.226712
     42          6           0       -1.058587    2.114057    1.111496
     43          6           0       -0.261686    2.723362    2.069611
     44          6           0        0.649142    3.706866    1.707200
     45          6           0        0.759506    4.076851    0.373842
     46          6           0       -0.021949    3.458919   -0.592009
     47          1           0       -1.770576    1.351279    1.400490
     48          1           0       -0.356904    2.428626    3.108009
     49          1           0        1.270026    4.179110    2.458154
     50          1           0        1.469049    4.840502    0.078266
     51          1           0        0.084509    3.731455   -1.635441
 ---------------------------------------------------------------------

 SCF Done:  E(RHF) =  -1376.41647199     A.U. after    2 cycles

 The electronic state is 1-A.
 Alpha  occ. eigenvalues --  -93.94999 -15.48487 -11.27432 -11.27149 -11.26266
 Alpha  occ. eigenvalues --  -11.26103 -11.25818 -11.25307 -11.24880 -11.24832
 Alpha  occ. eigenvalues --  -11.24816 -11.24729 -11.24627 -11.24503 -11.24363
 Alpha  occ. eigenvalues --  -11.24024 -11.23757 -11.23531 -11.23445 -11.23099
 Alpha  occ. eigenvalues --  -11.23072 -11.22937 -11.22923 -11.22858 -11.22694
 Alpha  occ. eigenvalues --  -11.22381  -8.23069  -6.20902  -6.20717  -6.20531
 Alpha  occ. eigenvalues --   -1.24981  -1.17586  -1.15344  -1.14424  -1.08045
 Alpha  occ. eigenvalues --   -1.07457  -1.05490  -1.05079  -1.02517  -1.02007
 Alpha  occ. eigenvalues --   -0.99615  -0.98217  -0.94979  -0.93554  -0.89655
 Alpha  occ. eigenvalues --   -0.87111  -0.84749  -0.84203  -0.83415  -0.81866
 Alpha  occ. eigenvalues --   -0.80053  -0.79347  -0.74295  -0.71754  -0.70770
 Alpha  occ. eigenvalues --   -0.68952  -0.68061  -0.67127  -0.65762  -0.64944
 Alpha  occ. eigenvalues --   -0.64619  -0.63462  -0.62979  -0.61486  -0.60998
 Alpha  occ. eigenvalues --   -0.60677  -0.60553  -0.59382  -0.58937  -0.58241
 Alpha  occ. eigenvalues --   -0.57602  -0.56917  -0.56624  -0.55516  -0.54763
 Alpha  occ. eigenvalues --   -0.53640  -0.52831  -0.52741  -0.51869  -0.51390
 Alpha  occ. eigenvalues --   -0.50985  -0.50626  -0.49468  -0.48236  -0.47307
 Alpha  occ. eigenvalues --   -0.46691  -0.46057  -0.44293  -0.40412  -0.38923
 Alpha  occ. eigenvalues --   -0.35476  -0.33292  -0.32857  -0.32520  -0.30737
 Alpha  occ. eigenvalues --   -0.29385
 Alpha virt. eigenvalues --    0.02552   0.02618   0.03157   0.03183   0.03597
 Alpha virt. eigenvalues --    0.03886   0.04125   0.04461   0.04797   0.05473
 Alpha virt. eigenvalues --    0.05624   0.06163   0.06624   0.06804   0.07357

 Mulliken charges:
               1
     1  C   -1.764576
     2  H   -0.034357
     3  H    0.053391
     4  C    1.082172
     5  C   -0.869502
     6  H    0.217288
     7  H    0.144760
     8  C   -2.924821
     9  H    0.067872
    10  N    2.444853
    11  C   -0.639002
    12  C   -0.252774
    13  H    0.091819
    14  H   -0.244425
    15  C    0.930742
    16  H   -0.259696
    17  C   -0.444354
    18  C    0.948428
    19  C   -0.584243
    20  H    0.166514
    21  H    0.152463
    22  H    0.260533
    23  H    0.072126
    24  C    2.069216
    25  C   -0.106483
    26  H    0.155557
    27  H   -0.046285
    28  C   -0.719381
    29  H    0.163245
    30  C    0.545046
    31  H    0.269339
    32  C    0.432544
    33  H   -0.352801
    34  C   -0.044995
    35  H   -0.205724
    36  C   -0.284920
    37  H   -0.252674
    38  C    0.078797
    39  H   -0.321564
    40  S    0.492762
    41  C   -0.309359
    42  C    0.085546
    43  C    0.193550
    44  C    0.317364
    45  C    0.261299
    46  C    0.429517
    47  H   -0.232843
    48  H   -0.339957
    49  H   -0.290663
    50  H   -0.294955
    51  H   -0.306385
 Sum of Mulliken charges =   0.00000

 Dipole moment (field-independent basis, Debye):
    X=             -0.9966    Y=             -1.6490    Z=              1.1648  Tot=              2.2515

 Test job not archived.
 1\1\GINC-SE393\SP\RHF\Aug-CC-pVDZ\C24H25N1S1\OHZDE\09-Apr-2025\0\\#t h
 f aug-cc-pvdz iop(5/13=1,5/36=2,99/5=2) pseudo=read geom=check guess=(
 read,tcheck) scf=(maxcycle=1)\\title\\0,1\C,0,-0.586434,-2.193783,1.32
 2254\H,0,-0.713328,-3.207169,1.703485\H,0,-0.819618,-1.509122,2.148833
 \C,0,-1.585645,-1.923786,0.19044\C,0,0.136173,-0.499745,-0.893441\H,0,
 0.491848,-1.162863,-1.688549\H,0,0.271926,0.509542,-1.266942\C,0,1.018
 939,-0.706077,0.354507\H,0,0.729328,0.043276,1.095739\N,0,0.80396,-2.0
 11217,0.971077\C,0,-2.342004,0.117391,-0.905984\C,0,-2.779563,-2.63422

 Normal termination of Gaussian 16 at Wed Apr  9 03:08:29 2025.
