 Gaussian 16, Revision C.01,

 ----------------------------------------------------------------------
 #t hf aug-cc-pvdz symm=none int=(grid=ultrafine) guess=(read,tcheck) s
 table=(opt,rrhf)
 ----------------------------------------------------------------------
 -----
 title
 -----
 Symbolic Z-matrix:
 Charge =  1 Multiplicity = 1

 SCF Done:  E(RHF) =  -680.275586712     A.U. after   15 cycles

 1\1\GINC-SE164\Stability\RHF\Aug-CC-pVDZ\C10H6F3\OHZDE\09-Apr-2025\0\\
 #t hf aug-cc-pvdz symm=none int=(grid=ultrafine) guess=(read,tcheck) s
 table=(opt,rrhf)\\title\\1,1\C,0,4.366697,-0.670126,0.015299\C,0,3.162
 762,0.,0.003858\C,0,4.366697,0.670126,0.015304\H,0,4.922139,-1.595785,
 0.020594\H,0,4.922139,1.595785,0.020606\C,0,1.748011,0.,-0.008684\C,0,
 1.053614,1.219304,-0.015922\C,0,1.053614,-1.219304,-0.015921\C,0,-0.32
 5026,1.215237,-0.028693\H,0,1.596158,2.156465,-0.013295\C,0,-0.325026,
 -1.215237,-0.028691\H,0,1.596158,-2.156465,-0.013294\C,0,-1.003412,0.,

 Normal termination of Gaussian 16 at Wed Apr  9 01:04:00 2025.
 Gaussian 16:  ES64L-G16RevC.01  3-Jul-2019

 ----------------------------------------------------------------------
 #t hf aug-cc-pvdz iop(5/13=1,5/36=2,99/5=2) pseudo=read geom=check gue
 ss=(read,tcheck) scf=(maxcycle=1)
 ----------------------------------------------------------------------
 -----
 title
 -----
 Structure from the checkpoint file:  "BH10_249_reverse_mol2.chk"
 Charge =  1 Multiplicity = 1

                         Standard orientation:
 ---------------------------------------------------------------------
 Center     Atomic      Atomic             Coordinates (Angstroms)
 Number     Number       Type             X           Y           Z
 ---------------------------------------------------------------------
      1          6           0        4.366697   -0.670126    0.015299
      2          6           0        3.162762    0.000000    0.003858
      3          6           0        4.366697    0.670126    0.015304
      4          1           0        4.922139   -1.595785    0.020594
      5          1           0        4.922139    1.595785    0.020606
      6          6           0        1.748011    0.000000   -0.008684
      7          6           0        1.053614    1.219304   -0.015922
      8          6           0        1.053614   -1.219304   -0.015921
      9          6           0       -0.325026    1.215237   -0.028693
     10          1           0        1.596158    2.156465   -0.013295
     11          6           0       -0.325026   -1.215237   -0.028691
     12          1           0        1.596158   -2.156465   -0.013294
     13          6           0       -1.003412    0.000000   -0.034377
     14          1           0       -0.878374    2.144611   -0.041459
     15          1           0       -0.878375   -2.144611   -0.041455
     16          6           0       -2.516644    0.000000    0.001920
     17          9           0       -2.942703   -0.000005    1.271397
     18          9           0       -3.015736    1.082030   -0.599930
     19          9           0       -3.015736   -1.082025   -0.599939
 ---------------------------------------------------------------------

 SCF Done:  E(RHF) =  -680.927378785     A.U. after    2 cycles

 The electronic state is 1-A.
 Alpha  occ. eigenvalues --  -26.61527 -26.61523 -26.61166 -11.63744 -11.53504
 Alpha  occ. eigenvalues --  -11.52628 -11.52484 -11.43944 -11.43302 -11.43219
 Alpha  occ. eigenvalues --  -11.43218 -11.40916 -11.40911  -1.82906  -1.72705
 Alpha  occ. eigenvalues --   -1.72269  -1.47948  -1.34670  -1.24234  -1.20191
 Alpha  occ. eigenvalues --   -1.11987  -1.04124  -1.03510  -1.01371  -0.98969
 Alpha  occ. eigenvalues --   -0.93651  -0.93397  -0.92145  -0.92091  -0.84015
 Alpha  occ. eigenvalues --   -0.81088  -0.80074  -0.79086  -0.78971  -0.78089
 Alpha  occ. eigenvalues --   -0.76162  -0.74482  -0.74352  -0.73821  -0.73606
 Alpha  occ. eigenvalues --   -0.72641  -0.67928  -0.67769  -0.67323  -0.53379
 Alpha  occ. eigenvalues --   -0.52001
 Alpha virt. eigenvalues --   -0.13762  -0.10024  -0.08632  -0.07753  -0.06381
 Alpha virt. eigenvalues --   -0.04614  -0.04509  -0.03992  -0.03645  -0.03138
 Alpha virt. eigenvalues --   -0.02234  -0.01794  -0.00405   0.00137   0.00981

 Mulliken charges:
               1
     1  C    0.016662
     2  C    1.268659
     3  C    0.016662
     4  H   -0.292679
     5  H   -0.292679
     6  C    1.085936
     7  C   -0.101703
     8  C   -0.101702
     9  C   -0.011287
    10  H   -0.318158
    11  C   -0.011298
    12  H   -0.318158
    13  C    0.246285
    14  H   -0.251841
    15  H   -0.251841
    16  C    2.637604
    17  F   -0.726649
    18  F   -0.796906
    19  F   -0.796905
 Sum of Mulliken charges =   1.00000

 Dipole moment (field-independent basis, Debye):
    X=             15.7184    Y=              0.0000    Z=             -0.0571  Tot=             15.7185

 Test job not archived.
 1\1\GINC-SE164\SP\RHF\Aug-CC-pVDZ\C10H6F3(1+)\OHZDE\09-Apr-2025\0\\#t
 hf aug-cc-pvdz iop(5/13=1,5/36=2,99/5=2) pseudo=read geom=check guess=
 (read,tcheck) scf=(maxcycle=1)\\title\\1,1\C,0,4.366697,-0.670126,0.01
 5299\C,0,3.162762,0.,0.003858\C,0,4.366697,0.670126,0.015304\H,0,4.922
 139,-1.595785,0.020594\H,0,4.922139,1.595785,0.020606\C,0,1.748011,0.,
 -0.008684\C,0,1.053614,1.219304,-0.015922\C,0,1.053614,-1.219304,-0.01
 5921\C,0,-0.325026,1.215237,-0.028693\H,0,1.596158,2.156465,-0.013295\
 C,0,-0.325026,-1.215237,-0.028691\H,0,1.596158,-2.156465,-0.013294\C,0

 Normal termination of Gaussian 16 at Wed Apr  9 01:04:13 2025.
