 Gaussian 16, Revision C.01,

 ----------------------------------------------------------------------
 #t hf aug-cc-pvdz symm=none int=(grid=ultrafine) guess=(read,tcheck) s
 table=opt
 ----------------------------------------------------------------------
 -----
 title
 -----
 Symbolic Z-matrix:
 Charge =  0 Multiplicity = 2

 SCF Done:  E(UHF) =  -815.591922123     A.U. after   24 cycles
 Normal termination of Gaussian 16 at Wed Apr  9 01:02:06 2025.
 Gaussian 16:  ES64L-G16RevC.01  3-Jul-2019

 ----------------------------------------------------------------------
 #t hf aug-cc-pvdz iop(5/13=1,5/36=2,99/5=2) pseudo=read geom=check gue
 ss=(read,tcheck) scf=(maxcycle=1)
 ----------------------------------------------------------------------
 -----
 title
 -----
 Structure from the checkpoint file:  "BH10_223_reverse_mol2.chk"
 Charge =  0 Multiplicity = 2

                         Standard orientation:
 ---------------------------------------------------------------------
 Center     Atomic      Atomic             Coordinates (Angstroms)
 Number     Number       Type             X           Y           Z
 ---------------------------------------------------------------------
      1          8           0        2.948715   -1.308680   -0.082153
      2          6           0        2.739308   -0.113695   -0.079759
      3          8           0        3.708271    0.789126   -0.351288
      4          6           0        1.465183    0.499975    0.204013
      5          6           0        0.304319   -0.344031    0.556291
      6          1           0        1.365228    1.576104    0.170970
      7          6           0       -1.020036    0.313465    0.212107
      8          1           0        0.280189   -0.511876    1.644567
      9          1           0        0.392646   -1.337157    0.111175
     10         16           0       -2.326709   -0.844617   -0.094874
     11          6           0       -3.693130    0.314926   -0.338815
     12          1           0       -3.858730    0.899781    0.562977
     13          1           0       -4.573914   -0.284826   -0.560833
     14          1           0       -3.475781    0.980004   -1.171131
     15          8           0       -1.181321    1.503977    0.179169
     16          1           0        4.518533    0.292624   -0.528594
 ---------------------------------------------------------------------

 SCF Done:  E(UHF) =  -816.066568728     A.U. after    2 cycles

 The electronic state is 2-A.
 Alpha  occ. eigenvalues --  -93.97238 -20.60165 -20.55664 -20.55517 -11.39349
 Alpha  occ. eigenvalues --  -11.38163 -11.28877 -11.27670 -11.27373  -8.25520
 Alpha  occ. eigenvalues --   -6.23334  -6.23151  -6.22967  -1.55502  -1.50143
 Alpha  occ. eigenvalues --   -1.46652  -1.12866  -1.09696  -0.99473  -0.91441
 Alpha  occ. eigenvalues --   -0.81142  -0.76203  -0.72810  -0.71428  -0.67558
 Alpha  occ. eigenvalues --   -0.66034  -0.65208  -0.63593  -0.60922  -0.60201
 Alpha  occ. eigenvalues --   -0.58171  -0.56163  -0.53689  -0.51106  -0.50148
 Alpha  occ. eigenvalues --   -0.46978  -0.42720  -0.39869  -0.38300
 Alpha virt. eigenvalues --    0.03422   0.03815   0.04306   0.04902   0.05427
 Alpha virt. eigenvalues --    0.06403   0.06800   0.09057   0.10330   0.11151
 Alpha virt. eigenvalues --    0.11494   0.12034   0.12574   0.12900   0.13451

  Beta  occ. eigenvalues --  -93.97235 -20.60185 -20.55717 -20.54337 -11.39933
  Beta  occ. eigenvalues --  -11.38074 -11.27668 -11.27658 -11.26651  -8.25516
  Beta  occ. eigenvalues --   -6.23331  -6.23149  -6.22959  -1.54982  -1.50234
  Beta  occ. eigenvalues --   -1.44678  -1.11383  -1.07593  -0.97112  -0.91282
  Beta  occ. eigenvalues --   -0.79781  -0.75204  -0.72190  -0.70771  -0.65794
  Beta  occ. eigenvalues --   -0.65511  -0.64082  -0.62524  -0.60583  -0.59678
  Beta  occ. eigenvalues --   -0.57713  -0.55633  -0.53151  -0.50024  -0.45668
  Beta  occ. eigenvalues --   -0.45563  -0.42010  -0.38575
  Beta virt. eigenvalues --    0.03379   0.03834   0.03965   0.04336   0.04919
  Beta virt. eigenvalues --    0.05497   0.06489   0.06814   0.09085   0.10511
  Beta virt. eigenvalues --    0.11209   0.11513   0.12144   0.12793   0.13039

 Mulliken charges and spin densities:
               1          2
     1  O   -1.291627   0.280400
     2  C    2.322517  -0.428882
     3  O   -1.422230   0.004684
     4  C    0.277518   1.381015
     5  C   -0.949434  -0.257823
     6  H   -0.135597  -0.054259
     7  C    0.987618   0.034930
     8  H    0.376897   0.043268
     9  H    0.250853   0.011399
    10  S    0.472437   0.001788
    11  C   -0.639617  -0.000234
    12  H    0.225078  -0.000060
    13  H    0.119526  -0.000019
    14  H    0.240507  -0.000081
    15  O   -1.307445  -0.012155
    16  H    0.472999  -0.003972
 Sum of Mulliken charges =   0.00000   1.00000

 Dipole moment (field-independent basis, Debye):
    X=             -1.0210    Y=              0.3378    Z=              0.1585  Tot=              1.0871
                          Isotropic Fermi Contact Couplings
        Atom                 a.u.       MegaHertz       Gauss      10(-4) cm-1
     1  O(17)              0.09021     -54.68343     -19.51241     -18.24043
     2  C(13)             -0.08633     -97.05619     -34.63206     -32.37446
     3  O(17)             -0.01053       6.38594       2.27866       2.13012
     4  C(13)              0.18416     207.03380      73.87481      69.05904
     5  C(13)             -0.05379     -60.46782     -21.57642     -20.16990
     6  H(1)              -0.02232     -99.74777     -35.59249     -33.27228
     7  C(13)              0.01800      20.23258       7.21949       6.74886
     8  H(1)               0.02315     103.48679      36.92666      34.51948

 Normal termination of Gaussian 16 at Wed Apr  9 01:02:13 2025.
