 Gaussian 16, Revision C.01,

 ----------------------------------------------------------------------
 #t hf aug-cc-pvdz symm=none int=(grid=ultrafine) guess=(read,tcheck) s
 table=(opt,rrhf)
 ----------------------------------------------------------------------
 -----
 title
 -----
 Symbolic Z-matrix:
 Charge =  0 Multiplicity = 1

 SCF Done:  E(RHF) =  -678.970159051     A.U. after   14 cycles
 Normal termination of Gaussian 16 at Wed Apr  9 01:22:31 2025.
 Gaussian 16:  ES64L-G16RevC.01  3-Jul-2019

 ----------------------------------------------------------------------
 #t hf aug-cc-pvdz iop(5/13=1,5/36=2,99/5=2) pseudo=read geom=check gue
 ss=(read,tcheck) scf=(maxcycle=1)
 ----------------------------------------------------------------------
 -----
 title
 -----
 Structure from the checkpoint file:  "BH10_286_forward_mol1.chk"
 Charge =  0 Multiplicity = 1

                         Standard orientation:
 ---------------------------------------------------------------------
 Center     Atomic      Atomic             Coordinates (Angstroms)
 Number     Number       Type             X           Y           Z
 ---------------------------------------------------------------------
      1          6           0       -0.601337   -0.408195    1.119966
      2          1           0        0.209042   -0.720382    1.791008
      3          5           0       -0.131037   -0.235199   -0.375342
      4          6           0       -1.128162    0.947143    1.630747
      5          1           0       -0.267893    1.615715    1.737611
      6          1           0       -1.555106    0.833701    2.633984
      7          6           0       -1.651061   -1.543940    1.105724
      8          1           0       -1.126483   -2.477343    0.869793
      9          6           0        2.258439    3.112454   -0.000806
     10          1           0        1.722333    3.548001   -0.837319
     11          1           0        2.779067    3.794123    0.659072
     12          6           0        2.271249    1.799177    0.210649
     13          6           0        1.558383    0.823208   -0.607274
     14          1           0        2.821751    1.403274    1.058840
     15          1           0       -2.077176   -1.678097    2.106649
     16          1           0        1.115871    1.167836   -1.533407
     17          6           0        1.814776   -0.540760   -0.544766
     18          8           0        0.823100   -1.300680   -0.915320
     19          8           0        2.846830   -1.060403    0.081688
     20          6           0        2.794005   -2.459950    0.408188
     21          1           0        1.893666   -2.680365    0.979406
     22          1           0        2.809286   -3.059614   -0.500273
     23          1           0        3.683498   -2.647334    1.002570
     24          6           0       -2.792342   -1.359790    0.092072
     25          1           0       -3.324374   -2.310223   -0.013416
     26          1           0       -3.526814   -0.660349    0.490177
     27          6           0       -1.300269    0.253953   -1.304165
     28          1           0       -0.978940    0.396375   -2.342621
     29          6           0       -2.336101   -0.895090   -1.300793
     30          1           0       -1.884105   -1.746608   -1.821921
     31          1           0       -3.214972   -0.610397   -1.890385
     32          6           0       -1.824554    1.602285   -0.775295
     33          1           0       -2.704143    1.918721   -1.347354
     34          1           0       -1.053408    2.357510   -0.967068
     35          6           0       -2.164867    1.630294    0.723732
     36          1           0       -2.269010    2.673153    1.038376
     37          1           0       -3.145295    1.182224    0.884170
 ---------------------------------------------------------------------

 SCF Done:  E(RHF) =  -679.680302686     A.U. after    2 cycles

 The electronic state is 1-A.
 Alpha  occ. eigenvalues --  -20.61651 -20.57322 -11.41153 -11.31503 -11.24647
 Alpha  occ. eigenvalues --  -11.23287 -11.22741 -11.21505 -11.21438 -11.21298
 Alpha  occ. eigenvalues --  -11.21178 -11.21027 -11.20971 -11.18991 -11.18837
 Alpha  occ. eigenvalues --   -7.59907  -1.58034  -1.49569  -1.11052  -1.09974
 Alpha  occ. eigenvalues --   -1.03108  -1.02210  -1.01916  -0.96548  -0.92404
 Alpha  occ. eigenvalues --   -0.90353  -0.82734  -0.79918  -0.78646  -0.78153
 Alpha  occ. eigenvalues --   -0.74993  -0.72527  -0.71742  -0.69975  -0.66678
 Alpha  occ. eigenvalues --   -0.64461  -0.62871  -0.62498  -0.61774  -0.59309
 Alpha  occ. eigenvalues --   -0.58259  -0.57885  -0.57478  -0.56062  -0.54961
 Alpha  occ. eigenvalues --   -0.54384  -0.53638  -0.51446  -0.50145  -0.49923
 Alpha  occ. eigenvalues --   -0.49663  -0.47902  -0.47095  -0.46133  -0.45562
 Alpha  occ. eigenvalues --   -0.43852  -0.41866  -0.41406  -0.37630  -0.31605
 Alpha virt. eigenvalues --    0.02515   0.02958   0.03263   0.03619   0.04624
 Alpha virt. eigenvalues --    0.04773   0.04918   0.05125   0.05591   0.06994
 Alpha virt. eigenvalues --    0.07112   0.07567   0.07743   0.08311   0.08448

 Mulliken charges:
               1
     1  C   -0.570832
     2  H   -0.194292
     3  B    2.895805
     4  C   -0.134891
     5  H    0.172167
     6  H    0.069026
     7  C   -0.390568
     8  H    0.112611
     9  C   -0.172837
    10  H   -0.172850
    11  H   -0.169013
    12  C    0.723727
    13  C   -0.068030
    14  H   -0.302342
    15  H    0.076053
    16  H   -0.278245
    17  C    2.563306
    18  O   -2.082046
    19  O   -1.849847
    20  C    0.019302
    21  H    0.159374
    22  H    0.155129
    23  H   -0.007818
    24  C   -0.275828
    25  H    0.056739
    26  H    0.221100
    27  C   -0.521015
    28  H    0.006250
    29  C   -0.260367
    30  H    0.217164
    31  H    0.052572
    32  C   -0.234266
    33  H    0.059006
    34  H    0.186021
    35  C   -0.310041
    36  H    0.041235
    37  H    0.208542
 Sum of Mulliken charges =   0.00000

 Dipole moment (field-independent basis, Debye):
    X=              1.6255    Y=             -1.6172    Z=              0.5472  Tot=              2.3573

 Test job not archived.
 1\1\GINC-SE083\SP\RHF\Aug-CC-pVDZ\C13H21B1O2\OHZDE\09-Apr-2025\0\\#t h
 f aug-cc-pvdz iop(5/13=1,5/36=2,99/5=2) pseudo=read geom=check guess=(
 read,tcheck) scf=(maxcycle=1)\\title\\0,1\C,0,-0.601337,-0.408195,1.11
 9966\H,0,0.209042,-0.720382,1.791008\B,0,-0.131037,-0.235199,-0.375342
 \C,0,-1.128162,0.947143,1.630747\H,0,-0.267893,1.615715,1.737611\H,0,-
 1.555106,0.833701,2.633984\C,0,-1.651061,-1.54394,1.105724\H,0,-1.1264
 83,-2.477343,0.869793\C,0,2.258439,3.112454,-0.000806\H,0,1.722333,3.5
 48001,-0.837319\H,0,2.779067,3.794123,0.659072\C,0,2.271249,1.799177,0

 Normal termination of Gaussian 16 at Wed Apr  9 01:23:39 2025.
