 Gaussian 16, Revision C.01,

 ----------------------------------------------------------------------
 #t hf aug-cc-pvdz symm=none int=(grid=ultrafine) guess=(read,tcheck) s
 table=(opt,rrhf)
 ----------------------------------------------------------------------
 -----
 title
 -----
 Symbolic Z-matrix:
 Charge =  1 Multiplicity = 1

 SCF Done:  E(RHF) =  -1418.02824414     A.U. after   20 cycles
 Normal termination of Gaussian 16 at Wed Apr  9 02:47:20 2025.
 Gaussian 16:  ES64L-G16RevC.01  3-Jul-2019

 ----------------------------------------------------------------------
 #t hf aug-cc-pvdz iop(5/13=1,5/36=2,99/5=2) pseudo=read geom=check gue
 ss=(read,tcheck) scf=(maxcycle=1)
 ----------------------------------------------------------------------
 -----
 title
 -----
 Structure from the checkpoint file:  "BH10_267_reverse_mol1.chk"
 Charge =  1 Multiplicity = 1

                         Standard orientation:
 ---------------------------------------------------------------------
 Center     Atomic      Atomic             Coordinates (Angstroms)
 Number     Number       Type             X           Y           Z
 ---------------------------------------------------------------------
      1          6           0       -1.496114    2.726775   -0.014690
      2          6           0       -1.585617    4.108166   -0.038923
      3          6           0       -2.831524    4.716361   -0.119314
      4          6           0       -3.990114    3.948381   -0.176223
      5          6           0       -3.909896    2.568343   -0.153390
      6          6           0       -2.655930    1.957252   -0.071988
      7          1           0       -0.528760    2.244618    0.046166
      8          1           0       -0.688326    4.711979    0.003636
      9          1           0       -2.902207    5.796772   -0.138400
     10          1           0       -4.957415    4.430323   -0.239114
     11          1           0       -4.801289    1.956074   -0.197595
     12          6           0       -2.574884    0.500399   -0.049336
     13          1           0       -1.338955    0.112252    0.043802
     14          7           0       -3.333449   -0.431443   -0.092892
     15         14           0       -3.757805   -2.174933   -0.112590
     16          6           0       -2.912695   -2.874918   -1.614889
     17          1           0       -1.827988   -2.800643   -1.520766
     18          1           0       -3.170624   -3.930099   -1.736339
     19          1           0       -3.218103   -2.355323   -2.525377
     20          6           0       -3.109570   -2.865782    1.488990
     21          1           0       -3.522660   -2.336800    2.350278
     22          1           0       -3.386714   -3.918632    1.585889
     23          1           0       -2.021166   -2.797041    1.528944
     24          6           0       -5.609699   -2.228646   -0.228695
     25          1           0       -5.966793   -1.742654   -1.138835
     26          1           0       -5.958579   -3.264349   -0.247390
     27          1           0       -6.077937   -1.737021    0.626377
     28          6           0        1.483092   -0.516070   -1.129136
     29          6           0        1.340603   -0.463457    1.545994
     30          6           0        2.671407    0.294904    1.504771
     31          6           0        3.535936   -0.083668    0.316472
     32          6           0        2.787962    0.261625   -0.965996
     33          1           0        2.470822    1.371664    1.469884
     34          1           0        3.194979    0.093407    2.441662
     35          1           0        3.751500   -1.153647    0.326973
     36          1           0        2.580645    1.336851   -0.969619
     37          1           0        3.421659    0.043486   -1.825502
     38          7           0        0.741786   -0.517816    0.173835
     39          8           0       -0.483516   -0.816443    0.118704
     40          6           0        0.604863    0.159785   -2.179888
     41          1           0        1.170544    0.222216   -3.109694
     42          1           0       -0.304466   -0.406950   -2.376755
     43          1           0        0.336787    1.176534   -1.887699
     44          6           0        1.740026   -1.975383   -1.529076
     45          1           0        0.802577   -2.532261   -1.558186
     46          1           0        2.186752   -1.997293   -2.523767
     47          1           0        2.426454   -2.478086   -0.849934
     48          6           0        0.364892    0.263684    2.469465
     49          1           0       -0.567229   -0.286803    2.588903
     50          1           0        0.826198    0.360750    3.452660
     51          1           0        0.141702    1.268721    2.107513
     52          6           0        1.531554   -1.907784    2.029038
     53          1           0        1.864961   -1.897957    3.067829
     54          1           0        0.587584   -2.451317    1.978113
     55          1           0        2.273470   -2.445563    1.440765
     56          7           0        4.818327    0.586332    0.381995
     57          6           0        5.875493    0.111911   -0.343239
     58          8           0        5.752377   -0.866901   -1.054457
     59          1           0        4.927636    1.412938    0.946443
     60          6           0        7.174694    0.859536   -0.203660
     61          1           0        7.497204    1.188085   -1.191831
     62          1           0        7.111326    1.722081    0.460157
     63          1           0        7.931252    0.171523    0.174806
 ---------------------------------------------------------------------

 SCF Done:  E(RHF) =  -1419.23200470     A.U. after    2 cycles

 The electronic state is 1-A.
 Alpha  occ. eigenvalues --  -69.64989 -20.80274 -20.58883 -15.75734 -15.63901
 Alpha  occ. eigenvalues --  -15.61914 -11.46428 -11.44056 -11.41992 -11.41256
 Alpha  occ. eigenvalues --  -11.38540 -11.38119 -11.37665 -11.37085 -11.36523
 Alpha  occ. eigenvalues --  -11.35948 -11.35833 -11.35685 -11.35090 -11.34664
 Alpha  occ. eigenvalues --  -11.34551 -11.34280 -11.33924 -11.32228 -11.31414
 Alpha  occ. eigenvalues --  -11.31357 -11.30715  -6.31744  -4.07175  -4.07009
 Alpha  occ. eigenvalues --   -4.06991  -1.72617  -1.54338  -1.38266  -1.34862
 Alpha  occ. eigenvalues --   -1.31713  -1.28475  -1.23801  -1.17856  -1.16241
 Alpha  occ. eigenvalues --   -1.14532  -1.13014  -1.09164  -1.08768  -1.07110
 Alpha  occ. eigenvalues --   -1.06336  -1.05950  -1.03753  -1.03352  -1.00829
 Alpha  occ. eigenvalues --   -0.97705  -0.97246  -0.96479  -0.93386  -0.91850
 Alpha  occ. eigenvalues --   -0.91504  -0.86731  -0.84192  -0.82455  -0.82095
 Alpha  occ. eigenvalues --   -0.80231  -0.79853  -0.77934  -0.77257  -0.75003
 Alpha  occ. eigenvalues --   -0.74355  -0.73806  -0.73637  -0.72661  -0.72319
 Alpha  occ. eigenvalues --   -0.71449  -0.71129  -0.70039  -0.69698  -0.69497
 Alpha  occ. eigenvalues --   -0.68967  -0.68665  -0.67798  -0.67132  -0.66942
 Alpha  occ. eigenvalues --   -0.66599  -0.65991  -0.65387  -0.65157  -0.65087
 Alpha  occ. eigenvalues --   -0.64864  -0.64728  -0.64383  -0.64201  -0.64083
 Alpha  occ. eigenvalues --   -0.63403  -0.62704  -0.62261  -0.62166  -0.61475
 Alpha  occ. eigenvalues --   -0.61129  -0.60630  -0.58918  -0.57829  -0.55436
 Alpha  occ. eigenvalues --   -0.55291  -0.50845  -0.50412  -0.47152  -0.46851
 Alpha  occ. eigenvalues --   -0.46229
 Alpha virt. eigenvalues --   -0.15379  -0.06457  -0.05734  -0.04827  -0.04640
 Alpha virt. eigenvalues --   -0.04302  -0.04027  -0.03690  -0.03500  -0.03315
 Alpha virt. eigenvalues --   -0.02628  -0.02211  -0.01818  -0.01586  -0.01220

 Mulliken charges:
               1
     1  C    0.969157
     2  C   -0.186553
     3  C    0.273591
     4  C   -0.217777
     5  C    0.532222
     6  C    2.642438
     7  H   -0.158111
     8  H   -0.366251
     9  H   -0.232263
    10  H   -0.247031
    11  H   -0.381600
    12  C   -4.984595
    13  H    0.489664
    14  N    2.343522
    15  Si   2.558113
    16  C   -0.446392
    17  H   -0.260660
    18  H   -0.031782
    19  H    0.044561
    20  C   -0.448988
    21  H    0.051310
    22  H   -0.031423
    23  H   -0.257305
    24  C   -0.614720
    25  H    0.023437
    26  H   -0.046486
    27  H    0.012741
    28  C   -2.983243
    29  C   -3.071632
    30  C    0.479777
    31  C   -1.675857
    32  C    0.784716
    33  H    0.294770
    34  H    0.140977
    35  H    0.020770
    36  H    0.285332
    37  H    0.169480
    38  N    3.817091
    39  O   -1.887114
    40  C    0.091705
    41  H    0.153861
    42  H    0.198656
    43  H    0.114966
    44  C   -0.039960
    45  H    0.076304
    46  H    0.228295
    47  H    0.238139
    48  C    0.209155
    49  H    0.207944
    50  H    0.158038
    51  H    0.131807
    52  C   -0.042614
    53  H    0.222885
    54  H    0.088390
    55  H    0.273417
    56  N    1.494264
    57  C    0.841199
    58  O   -1.380448
    59  H    0.258957
    60  C   -0.502725
    61  H    0.255310
    62  H    0.048562
    63  H    0.270009
 Sum of Mulliken charges =   1.00000

 Dipole moment (field-independent basis, Debye):
    X=             -2.7468    Y=              3.5032    Z=              2.2974  Tot=              5.0095

 Test job not archived.
 1\1\GINC-SE058\SP\RHF\Aug-CC-pVDZ\C21H36N3O2Si1(1+)\OHZDE\09-Apr-2025\
 0\\#t hf aug-cc-pvdz iop(5/13=1,5/36=2,99/5=2) pseudo=read geom=check
 guess=(read,tcheck) scf=(maxcycle=1)\\title\\1,1\C,0,-1.496114,2.72677
 5,-0.01469\C,0,-1.585617,4.108166,-0.038923\C,0,-2.831524,4.716361,-0.
 119314\C,0,-3.990114,3.948381,-0.176223\C,0,-3.909896,2.568343,-0.1533
 9\C,0,-2.65593,1.957252,-0.071988\H,0,-0.52876,2.244618,0.046166\H,0,-
 0.688326,4.711979,0.003636\H,0,-2.902207,5.796772,-0.1384\H,0,-4.95741
 5,4.430323,-0.239114\H,0,-4.801289,1.956074,-0.197595\C,0,-2.574884,0.

 Normal termination of Gaussian 16 at Wed Apr  9 02:52:12 2025.
