 Gaussian 16, Revision C.01,

 ----------------------------------------------------------------------
 #t hf aug-cc-pvdz symm=none int=(grid=ultrafine) guess=(read,tcheck) s
 table=(opt,rrhf)
 ----------------------------------------------------------------------
 -----
 title
 -----
 Symbolic Z-matrix:
 Charge = -1 Multiplicity = 1

 SCF Done:  E(RHF) =  -1778.61892089     A.U. after   20 cycles
 Normal termination of Gaussian 16 at Wed Apr  9 02:56:04 2025.
 Gaussian 16:  ES64L-G16RevC.01  3-Jul-2019

 ----------------------------------------------------------------------
 #t hf aug-cc-pvdz iop(5/13=1,5/36=2,99/5=2) pseudo=read geom=check gue
 ss=(read,tcheck) scf=(maxcycle=1)
 ----------------------------------------------------------------------
 -----
 title
 -----
 Structure from the checkpoint file:  "BH10_247_forward_mol1.chk"
 Charge = -1 Multiplicity = 1

                         Standard orientation:
 ---------------------------------------------------------------------
 Center     Atomic      Atomic             Coordinates (Angstroms)
 Number     Number       Type             X           Y           Z
 ---------------------------------------------------------------------
      1          7           0        2.714883    2.722776    0.357931
      2          6           0        3.906123    3.108973   -0.171150
      3          7           0        4.840782    2.100149   -0.453271
      4          6           0        4.681867    0.740243   -0.261896
      5          6           0        3.420669    0.399118    0.351707
      6          6           0        2.499424    1.439428    0.579116
      7          7           0        1.262119    1.088106    1.106117
      8          7           0        3.157286   -0.925291    0.582184
      9          6           0        1.971927   -1.214060    1.209235
     10          6           0        0.996419   -0.219620    1.461629
     11          6           0       -0.217473   -0.593581    2.040848
     12          6           0        1.677198   -2.554136    1.496768
     13          6           0        0.458594   -2.914159    2.029274
     14          6           0       -0.489504   -1.927095    2.289163
     15          1           0       -1.458234   -2.200468    2.688983
     16          1           0       -0.981204    0.145748    2.222812
     17          1           0        2.443305   -3.288138    1.280585
     18          1           0        0.231995   -3.954425    2.226544
     19          8           0        4.211273    4.266664   -0.417387
     20          8           0        5.539655   -0.056709   -0.626209
     21          6           0        3.658298   -2.624751   -2.362280
     22          6           0        2.527826   -1.813727   -1.766953
     23          1           0        4.618050   -2.147964   -2.158531
     24          1           0        3.541610   -2.725363   -3.446354
     25          1           0        3.678752   -3.631035   -1.935216
     26          6           0        1.261840   -2.402466   -1.552606
     27          1           0        2.501483   -0.769369   -2.095494
     28          6           0        0.117469   -1.667561   -1.258010
     29          1           0        1.196354   -3.487957   -1.517193
     30          6           0       -1.115760   -2.176874   -0.900510
     31          1           0        0.195761   -0.583766   -1.292719
     32          6           0       -2.165457   -1.308299   -0.514624
     33          1           0       -1.288256   -3.245724   -0.862065
     34          8           0       -2.144080   -0.084921   -0.447223
     35         16           0       -3.701756   -2.191856   -0.030795
     36          6           0       -4.732393   -0.752655    0.342897
     37          6           0       -5.258984   -0.063215   -0.913406
     38          1           0       -4.133445   -0.054060    0.926157
     39          1           0       -5.555620   -1.108712    0.964976
     40          7           0       -6.038157    1.125131   -0.615350
     41          1           0       -5.883668   -0.754638   -1.482552
     42          1           0       -4.418758    0.206878   -1.549101
     43          6           0       -5.568777    2.394890   -0.441025
     44          8           0       -6.306698    3.277739   -0.033763
     45          6           0       -4.129770    2.653681   -0.813744
     46          1           0       -4.025839    2.642659   -1.902039
     47          1           0       -3.443395    1.902254   -0.421156
     48          1           0       -3.860751    3.641941   -0.449387
     49          1           0       -6.993987    1.008140   -0.311768
     50          1           0        2.992389   -1.524124   -0.576576
     51          1           0        5.701845    2.400566   -0.886358
     52          6           0        0.218902    2.091488    1.250240
     53          1           0        0.596729    3.017631    0.830718
     54          1           0       -0.020982    2.247660    2.305529
     55          1           0       -0.676252    1.759949    0.718257
 ---------------------------------------------------------------------

 SCF Done:  E(RHF) =  -1780.06749781     A.U. after    2 cycles

 The electronic state is 1-A.
 Alpha  occ. eigenvalues --  -93.86762 -20.42812 -20.42695 -20.39517 -20.37917
 Alpha  occ. eigenvalues --  -15.45838 -15.45036 -15.44807 -15.42399 -15.35947
 Alpha  occ. eigenvalues --  -11.27919 -11.26293 -11.25971 -11.24817 -11.23865
 Alpha  occ. eigenvalues --  -11.21402 -11.20596 -11.19285 -11.19031 -11.17094
 Alpha  occ. eigenvalues --  -11.17091 -11.16839 -11.16650 -11.16155 -11.15855
 Alpha  occ. eigenvalues --  -11.15732 -11.15318 -11.14728 -11.14448 -11.14332
 Alpha  occ. eigenvalues --  -11.12403  -8.14953  -6.12767  -6.12612  -6.12424
 Alpha  occ. eigenvalues --   -1.37799  -1.36789  -1.34757  -1.33250  -1.23275
 Alpha  occ. eigenvalues --   -1.16701  -1.16112  -1.15259  -1.09035  -1.06081
 Alpha  occ. eigenvalues --   -1.02275  -1.01264  -0.96219  -0.95038  -0.94477
 Alpha  occ. eigenvalues --   -0.93239  -0.91422  -0.90714  -0.86261  -0.85739
 Alpha  occ. eigenvalues --   -0.82571  -0.79673  -0.76496  -0.75641  -0.74475
 Alpha  occ. eigenvalues --   -0.73473  -0.73202  -0.68982  -0.68380  -0.67132
 Alpha  occ. eigenvalues --   -0.64446  -0.63971  -0.62988  -0.61072  -0.60621
 Alpha  occ. eigenvalues --   -0.59238  -0.58631  -0.58326  -0.57545  -0.56388
 Alpha  occ. eigenvalues --   -0.55995  -0.55497  -0.55109  -0.53824  -0.53492
 Alpha  occ. eigenvalues --   -0.53168  -0.51583  -0.51278  -0.50680  -0.50342
 Alpha  occ. eigenvalues --   -0.50057  -0.49249  -0.48484  -0.48255  -0.47461
 Alpha  occ. eigenvalues --   -0.47182  -0.46542  -0.45485  -0.45133  -0.44378
 Alpha  occ. eigenvalues --   -0.44134  -0.44054  -0.43414  -0.42727  -0.41993
 Alpha  occ. eigenvalues --   -0.41195  -0.40573  -0.40246  -0.35841  -0.34404
 Alpha  occ. eigenvalues --   -0.34110  -0.33975  -0.33808  -0.33673  -0.31183
 Alpha  occ. eigenvalues --   -0.30624  -0.30510  -0.28850  -0.26167  -0.24947
 Alpha  occ. eigenvalues --   -0.23019  -0.14141
 Alpha virt. eigenvalues --    0.08663   0.08697   0.08959   0.09340   0.10143
 Alpha virt. eigenvalues --    0.10440   0.10868   0.11265   0.11448   0.12051
 Alpha virt. eigenvalues --    0.12394   0.12757   0.13046   0.14016   0.14174

 Mulliken charges:
               1
     1  N    1.957801
     2  C    0.615262
     3  N    0.988883
     4  C   -0.135191
     5  C    0.340945
     6  C   -4.068744
     7  N    1.700445
     8  N    2.312936
     9  C   -1.834405
    10  C   -1.103261
    11  C    1.161605
    12  C    1.343547
    13  C    0.017903
    14  C   -0.124789
    15  H   -0.352846
    16  H   -0.388480
    17  H   -0.345025
    18  H   -0.346719
    19  O   -1.440129
    20  O   -1.656294
    21  C   -0.236595
    22  C   -1.880869
    23  H    0.148855
    24  H    0.236088
    25  H    0.198525
    26  C    1.200329
    27  H   -0.020005
    28  C    0.968065
    29  H   -0.347757
    30  C    0.013972
    31  H   -0.305905
    32  C    1.444441
    33  H   -0.354959
    34  O   -1.953432
    35  S    0.310576
    36  C   -0.599068
    37  C   -0.650690
    38  H    0.267960
    39  H    0.084758
    40  N    0.750969
    41  H    0.041229
    42  H    0.212220
    43  C    0.531427
    44  O   -1.396136
    45  C   -0.253495
    46  H    0.279619
    47  H    0.326816
    48  H   -0.007404
    49  H    0.176664
    50  H    0.908644
    51  H    0.106833
    52  C   -0.123234
    53  H   -0.068974
    54  H    0.189838
    55  H    0.157250
 Sum of Mulliken charges =  -1.00000

 Dipole moment (field-independent basis, Debye):
    X=             -8.0804    Y=             -9.7308    Z=              0.4768  Tot=             12.6574

 Test job not archived.
 1\1\GINC-SE412\SP\RHF\Aug-CC-pVDZ\C21H24N5O4S1(1-)\OHZDE\09-Apr-2025\0
 \\#t hf aug-cc-pvdz iop(5/13=1,5/36=2,99/5=2) pseudo=read geom=check g
 uess=(read,tcheck) scf=(maxcycle=1)\\title\\-1,1\N,0,2.714883,2.722776
 ,0.357931\C,0,3.906123,3.108973,-0.17115\N,0,4.840782,2.100149,-0.4532
 71\C,0,4.681867,0.740243,-0.261896\C,0,3.420669,0.399118,0.351707\C,0,
 2.499424,1.439428,0.579116\N,0,1.262119,1.088106,1.106117\N,0,3.157286
 ,-0.925291,0.582184\C,0,1.971927,-1.21406,1.209235\C,0,0.996419,-0.219
 62,1.461629\C,0,-0.217473,-0.593581,2.040848\C,0,1.677198,-2.554136,1.

 Normal termination of Gaussian 16 at Wed Apr  9 03:00:29 2025.
