 Gaussian 16, Revision C.01,

 ----------------------------------------------------------------------
 #t hf aug-cc-pvdz symm=none int=(grid=ultrafine) guess=(read,tcheck) s
 table=opt
 ----------------------------------------------------------------------
 -----
 title
 -----
 Symbolic Z-matrix:
 Charge =  0 Multiplicity = 2

 SCF Done:  E(UHF) =  -1426.17203727     A.U. after   20 cycles

 1\1\GINC-SE073\Stability\UHF\Aug-CC-pVDZ\C6H11S3\OHZDE\09-Apr-2025\0\\
 #t hf aug-cc-pvdz symm=none int=(grid=ultrafine) guess=(read,tcheck) s
 table=opt\\title\\0,2\H,0,0.631352,0.697623,-0.237874\C,0,0.847165,-1.
 52259,-0.227314\H,0,0.429012,-2.460027,0.153362\C,0,2.907064,-0.032251
 ,-0.159627\H,0,3.81742,0.183034,0.400909\H,0,1.065552,-1.683402,-1.287
 095\H,0,3.198636,-0.317632,-1.172538\C,0,2.147609,-1.178506,0.502861\H
 ,0,2.789752,-2.063841,0.507465\H,0,1.937196,-0.929232,1.546342\C,0,-0.
 196502,-0.431792,-0.111345\C,0,-2.773189,0.304859,-0.453983\C,0,-2.224

 Normal termination of Gaussian 16 at Wed Apr  9 01:00:00 2025.
 Gaussian 16:  ES64L-G16RevC.01  3-Jul-2019

 ----------------------------------------------------------------------
 #t hf aug-cc-pvdz iop(5/13=1,5/36=2,99/5=2) pseudo=read geom=check gue
 ss=(read,tcheck) scf=(maxcycle=1)
 ----------------------------------------------------------------------
 -----
 title
 -----
 Structure from the checkpoint file:  "BH10_159_forward_mol1.chk"
 Charge =  0 Multiplicity = 2

                         Standard orientation:
 ---------------------------------------------------------------------
 Center     Atomic      Atomic             Coordinates (Angstroms)
 Number     Number       Type             X           Y           Z
 ---------------------------------------------------------------------
      1          1           0        0.631352    0.697623   -0.237874
      2          6           0        0.847165   -1.522590   -0.227314
      3          1           0        0.429012   -2.460027    0.153362
      4          6           0        2.907064   -0.032251   -0.159627
      5          1           0        3.817420    0.183034    0.400909
      6          1           0        1.065552   -1.683402   -1.287095
      7          1           0        3.198636   -0.317632   -1.172538
      8          6           0        2.147609   -1.178506    0.502861
      9          1           0        2.789752   -2.063841    0.507465
     10          1           0        1.937196   -0.929232    1.546342
     11          6           0       -0.196502   -0.431792   -0.111345
     12          6           0       -2.773189    0.304859   -0.453983
     13          6           0       -2.224237    0.895309    0.834084
     14          1           0       -3.296520    1.057789   -1.042974
     15          1           0       -3.450375   -0.522425   -0.244157
     16          1           0       -1.757173    1.865570    0.661143
     17          1           0       -3.003590    1.006587    1.587762
     18         16           0       -1.375925   -0.327808   -1.448589
     19         16           0       -0.975485   -0.255162    1.476378
     20         16           0        1.938365    1.517707   -0.226564
 ---------------------------------------------------------------------

 SCF Done:  E(UHF) =  -1426.60009834     A.U. after    2 cycles

 The electronic state is 2-A.
 Alpha  occ. eigenvalues --  -93.96399 -93.96277 -93.92719 -11.32239 -11.28963
 Alpha  occ. eigenvalues --  -11.28779 -11.26230 -11.25656 -11.24639  -8.24543
 Alpha  occ. eigenvalues --   -8.24401  -8.20809  -6.22328  -6.22211  -6.22206
 Alpha  occ. eigenvalues --   -6.22054  -6.22023  -6.21893  -6.19360  -6.18388
 Alpha  occ. eigenvalues --   -6.18115  -1.18962  -1.11388  -1.04435  -1.02963
 Alpha  occ. eigenvalues --   -0.98993  -0.90781  -0.83290  -0.80848  -0.77816
 Alpha  occ. eigenvalues --   -0.67650  -0.67106  -0.65460  -0.61671  -0.59995
 Alpha  occ. eigenvalues --   -0.58002  -0.56537  -0.53611  -0.52973  -0.52584
 Alpha  occ. eigenvalues --   -0.49884  -0.49008  -0.45668  -0.44960  -0.41105
 Alpha  occ. eigenvalues --   -0.37435  -0.34516  -0.30319
 Alpha virt. eigenvalues --    0.02997   0.03498   0.04123   0.04294   0.05062
 Alpha virt. eigenvalues --    0.05182   0.06099   0.06803   0.07630   0.08125
 Alpha virt. eigenvalues --    0.09173   0.09801   0.10886   0.11573   0.11922

  Beta  occ. eigenvalues --  -93.96382 -93.96233 -93.92210 -11.30326 -11.28954
  Beta  occ. eigenvalues --  -11.28783 -11.26301 -11.25793 -11.24564  -8.24525
  Beta  occ. eigenvalues --   -8.24349  -8.20221  -6.22369  -6.22221  -6.22202
  Beta  occ. eigenvalues --   -6.22048  -6.21872  -6.21672  -6.18117  -6.17794
  Beta  occ. eigenvalues --   -6.17134  -1.17502  -1.10810  -1.02777  -1.02588
  Beta  occ. eigenvalues --   -0.97227  -0.89475  -0.83075  -0.79895  -0.73766
  Beta  occ. eigenvalues --   -0.67032  -0.65810  -0.65085  -0.61366  -0.59723
  Beta  occ. eigenvalues --   -0.57076  -0.53223  -0.52941  -0.51687  -0.51173
  Beta  occ. eigenvalues --   -0.49423  -0.48765  -0.44845  -0.44311  -0.37390
  Beta  occ. eigenvalues --   -0.36246  -0.33381
  Beta virt. eigenvalues --    0.03003   0.03021   0.03855   0.04290   0.04401
  Beta virt. eigenvalues --    0.05086   0.05234   0.06328   0.06850   0.07670
  Beta virt. eigenvalues --    0.08233   0.09275   0.09882   0.10977   0.11778

 Mulliken charges and spin densities:
               1          2
     1  H    1.148120  -0.330603
     2  C   -0.247687  -0.144853
     3  H    0.130099   0.025139
     4  C   -0.638601  -0.059210
     5  H    0.171202   0.005227
     6  H    0.205412  -0.001075
     7  H    0.183971   0.001659
     8  C   -0.283025   0.031882
     9  H    0.144978  -0.003166
    10  H    0.158485   0.002045
    11  C   -1.387407   0.927574
    12  C   -0.692589  -0.005239
    13  C   -0.458936  -0.017516
    14  H    0.190669   0.000303
    15  H    0.203646  -0.003453
    16  H    0.171262   0.000351
    17  H    0.151871  -0.001044
    18  S    0.520166   0.028353
    19  S    0.436157   0.008106
    20  S   -0.107793   0.535518
 Sum of Mulliken charges =   0.00000   1.00000

 Dipole moment (field-independent basis, Debye):
    X=             -1.8998    Y=             -1.5202    Z=              0.5578  Tot=              2.4963
                          Isotropic Fermi Contact Couplings
        Atom                 a.u.       MegaHertz       Gauss      10(-4) cm-1
     1  H(1)              -0.05956    -266.24371     -95.00238     -88.80934
     2  C(13)             -0.02395     -26.92297      -9.60678      -8.98053
     3  H(1)               0.01189      53.15102      18.96561      17.72927
     4  C(13)             -0.01288     -14.48461      -5.16847      -4.83155
     5  H(1)               0.00482      21.55253       7.69048       7.18915
     6  H(1)               0.00123       5.48851       1.95844       1.83077
     7  H(1)               0.00025       1.12898       0.40285       0.37659
     8  C(13)              0.00880       9.89215       3.52976       3.29966

 Normal termination of Gaussian 16 at Wed Apr  9 01:00:14 2025.
