 Gaussian 16, Revision C.01,

 ----------------------------------------------------------------------
 #t hf aug-cc-pvdz symm=none int=(grid=ultrafine) guess=(read,tcheck) s
 table=(opt,rrhf)
 ----------------------------------------------------------------------
 -----
 title
 -----
 Symbolic Z-matrix:
 Charge =  0 Multiplicity = 1

 SCF Done:  E(RHF) =  -812.385291541     A.U. after   14 cycles
 Normal termination of Gaussian 16 at Wed Apr  9 00:58:15 2025.
 Gaussian 16:  ES64L-G16RevC.01  3-Jul-2019

 ----------------------------------------------------------------------
 #t hf aug-cc-pvdz iop(5/13=1,5/36=2,99/5=2) pseudo=read geom=check gue
 ss=(read,tcheck) scf=(maxcycle=1)
 ----------------------------------------------------------------------
 -----
 title
 -----
 Structure from the checkpoint file:  "BH10_150_forward_mol2.chk"
 Charge =  0 Multiplicity = 1

                         Standard orientation:
 ---------------------------------------------------------------------
 Center     Atomic      Atomic             Coordinates (Angstroms)
 Number     Number       Type             X           Y           Z
 ---------------------------------------------------------------------
      1          7           0       -0.612510   -1.091392   -0.278201
      2          1           0        0.070365   -1.526045   -0.885966
      3          6           0       -0.119102   -0.061500    0.622144
      4          6           0        1.321082   -0.350353    1.026578
      5          6           0       -0.271810    1.350155    0.021785
      6          1           0        1.704782    0.478589    1.616100
      7          1           0        1.349782   -1.252727    1.636938
      8         16           0        2.460863   -0.669419   -0.362623
      9          8           0        0.690024    2.058273   -0.211576
     10          1           0        2.399056    0.576563   -0.863686
     11          7           0       -1.548618    1.721134   -0.195862
     12          1           0       -1.719787    2.625014   -0.606549
     13          1           0       -2.316550    1.093232    0.012961
     14          6           0       -1.912179   -1.420669   -0.383091
     15          1           0       -2.094660   -2.256080   -1.075738
     16          8           0       -2.815189   -0.863977    0.216998
     17          1           0       -0.745523   -0.096202    1.518468
 ---------------------------------------------------------------------

 SCF Done:  E(RHF) =  -812.862119537     A.U. after    2 cycles

 The electronic state is 1-A.
 Alpha  occ. eigenvalues --  -93.95504 -20.53669 -20.52017 -15.55427 -15.52622
 Alpha  occ. eigenvalues --  -11.38102 -11.36766 -11.31056 -11.28799  -8.23634
 Alpha  occ. eigenvalues --   -6.21483  -6.21343  -6.21138  -1.48530  -1.47135
 Alpha  occ. eigenvalues --   -1.27872  -1.22679  -1.10522  -1.01074  -0.89291
 Alpha  occ. eigenvalues --   -0.88472  -0.82764  -0.78262  -0.76484  -0.71319
 Alpha  occ. eigenvalues --   -0.69385  -0.64484  -0.63413  -0.60968  -0.59734
 Alpha  occ. eigenvalues --   -0.58616  -0.57754  -0.53310  -0.47863  -0.46961
 Alpha  occ. eigenvalues --   -0.45293  -0.43945  -0.41872  -0.37863
 Alpha virt. eigenvalues --    0.03134   0.03892   0.04133   0.05248   0.05615
 Alpha virt. eigenvalues --    0.06093   0.07116   0.07571   0.08959   0.10529
 Alpha virt. eigenvalues --    0.11288   0.12174   0.12854   0.13181   0.13353

 Mulliken charges:
               1
     1  N    0.798124
     2  H    0.315426
     3  C   -1.183411
     4  C   -0.314387
     5  C    0.426558
     6  H    0.101282
     7  H    0.215428
     8  S   -0.029702
     9  O   -1.310766
    10  H    0.406701
    11  N    0.851745
    12  H    0.105683
    13  H    0.020813
    14  C    0.567193
    15  H    0.062901
    16  O   -1.152993
    17  H    0.119403
 Sum of Mulliken charges =  -0.00000

 Dipole moment (field-independent basis, Debye):
    X=             -0.7594    Y=             -1.5259    Z=             -0.1258  Tot=              1.7090

 Test job not archived.
 1\1\GINC-SE123\SP\RHF\Aug-CC-pVDZ\C4H8N2O2S1\OHZDE\09-Apr-2025\0\\#t h
 f aug-cc-pvdz iop(5/13=1,5/36=2,99/5=2) pseudo=read geom=check guess=(
 read,tcheck) scf=(maxcycle=1)\\title\\0,1\N,0,-0.61251,-1.091392,-0.27
 8201\H,0,0.070365,-1.526045,-0.885966\C,0,-0.119102,-0.0615,0.622144\C
 ,0,1.321082,-0.350353,1.026578\C,0,-0.27181,1.350155,0.021785\H,0,1.70
 4782,0.478589,1.6161\H,0,1.349782,-1.252727,1.636938\S,0,2.460863,-0.6
 69419,-0.362623\O,0,0.690024,2.058273,-0.211576\H,0,2.399056,0.576563,
 -0.863686\N,0,-1.548618,1.721134,-0.195862\H,0,-1.719787,2.625014,-0.6

 Normal termination of Gaussian 16 at Wed Apr  9 00:58:24 2025.
