 Gaussian 16, Revision C.01,

 ----------------------------------------------------------------------
 #t hf aug-cc-pvdz symm=none int=(grid=ultrafine) guess=(read,tcheck) s
 table=(opt,rrhf)
 ----------------------------------------------------------------------
 -----
 title
 -----
 Symbolic Z-matrix:
 Charge =  0 Multiplicity = 1

 SCF Done:  E(RHF) =  -997.660335358     A.U. after   17 cycles
 Normal termination of Gaussian 16 at Wed Apr  9 02:18:09 2025.
 Gaussian 16:  ES64L-G16RevC.01  3-Jul-2019

 ----------------------------------------------------------------------
 #t hf aug-cc-pvdz iop(5/13=1,5/36=2,99/5=2) pseudo=read geom=check gue
 ss=(read,tcheck) scf=(maxcycle=1)
 ----------------------------------------------------------------------
 -----
 title
 -----
 Structure from the checkpoint file:  "BH10_82_forward_mol1.chk"
 Charge =  0 Multiplicity = 1

                         Standard orientation:
 ---------------------------------------------------------------------
 Center     Atomic      Atomic             Coordinates (Angstroms)
 Number     Number       Type             X           Y           Z
 ---------------------------------------------------------------------
      1          6           0       -0.034324   -1.010743   -0.775456
      2          6           0       -2.263689   -0.731982    0.097381
      3          6           0        0.427816    0.075260   -0.018041
      4          1           0        0.124582    0.068704    1.022531
      5          6           0       -2.232378    0.688608    0.032345
      6          6           0       -3.678467    1.138138    0.033077
      7          6           0       -1.293806   -1.518049   -0.520080
      8          1           0       -1.609789   -2.470198   -0.936478
      9          1           0        0.544440   -1.383594   -1.610931
     10          6           0       -3.652207   -1.150873    0.261253
     11          6           0        1.705790    0.782420   -0.279915
     12          6           0        1.877737    2.039324    0.582492
     13          1           0        1.890977    1.786860    1.646341
     14          1           0        1.064859    2.747228    0.431556
     15          1           0        1.770271    1.041596   -1.342940
     16          1           0        2.811780    2.552906    0.353458
     17          7           0       -1.188348    1.430587   -0.094211
     18          6           0       -1.299390    2.794302   -0.571164
     19          1           0       -1.180923    3.500132    0.256574
     20          1           0       -0.492433    2.985370   -1.281312
     21          1           0       -2.244249    3.008171   -1.080576
     22          8           0       -4.124657   -2.248088    0.337180
     23          8           0       -4.445645   -0.024339    0.311194
     24          1           0       -3.976994    1.541823   -0.938388
     25          1           0       -3.875351    1.886072    0.803556
     26         14           0        3.180534   -0.417506    0.048196
     27          6           0        3.286188   -1.755996   -1.261545
     28          6           0        4.760728    0.595842   -0.013255
     29          6           0        2.971640   -1.189560    1.743261
     30          1           0        4.235826   -2.288636   -1.161435
     31          1           0        2.486307   -2.490970   -1.166421
     32          1           0        3.250165   -1.340974   -2.272041
     33          1           0        4.849226    1.147233   -0.953086
     34          1           0        4.824026    1.315008    0.805396
     35          1           0        5.628635   -0.064562    0.061697
     36          1           0        2.911644   -0.434317    2.530473
     37          1           0        2.066629   -1.799420    1.791251
     38          1           0        3.819913   -1.838192    1.976392
 ---------------------------------------------------------------------

 SCF Done:  E(RHF) =  -998.426639911     A.U. after    2 cycles

 The electronic state is 1-A.
 Alpha  occ. eigenvalues --  -69.52569 -20.57467 -20.50545 -15.50770 -11.36648
 Alpha  occ. eigenvalues --  -11.31396 -11.31161 -11.30562 -11.27459 -11.27449
 Alpha  occ. eigenvalues --  -11.24351 -11.24315 -11.22333 -11.22179 -11.22061
 Alpha  occ. eigenvalues --  -11.21817 -11.21804  -6.19604  -3.94939  -3.94924
 Alpha  occ. eigenvalues --   -3.94920  -1.52563  -1.43643  -1.25261  -1.13179
 Alpha  occ. eigenvalues --   -1.09348  -1.03435  -0.99199  -0.98577  -0.96565
 Alpha  occ. eigenvalues --   -0.94162  -0.93950  -0.92561  -0.84701  -0.81130
 Alpha  occ. eigenvalues --   -0.77884  -0.73778  -0.70579  -0.69219  -0.68072
 Alpha  occ. eigenvalues --   -0.67562  -0.65112  -0.63683  -0.62467  -0.61964
 Alpha  occ. eigenvalues --   -0.60841  -0.60308  -0.58444  -0.58102  -0.57640
 Alpha  occ. eigenvalues --   -0.56645  -0.55990  -0.55707  -0.55330  -0.55257
 Alpha  occ. eigenvalues --   -0.54805  -0.53872  -0.52671  -0.51833  -0.50167
 Alpha  occ. eigenvalues --   -0.48521  -0.45282  -0.45160  -0.43839  -0.42821
 Alpha  occ. eigenvalues --   -0.41503  -0.38920  -0.30591
 Alpha virt. eigenvalues --    0.02276   0.02418   0.02600   0.03181   0.04110
 Alpha virt. eigenvalues --    0.04265   0.04627   0.04923   0.05490   0.06034
 Alpha virt. eigenvalues --    0.06314   0.06448   0.06886   0.07390   0.07931

 Mulliken charges:
               1
     1  C    0.936510
     2  C    1.077460
     3  C   -0.316732
     4  H   -0.117961
     5  C   -2.643660
     6  C    0.839396
     7  C    0.121815
     8  H   -0.282537
     9  H   -0.326360
    10  C    1.404086
    11  C   -0.906956
    12  C   -0.090603
    13  H    0.227056
    14  H    0.022146
    15  H   -0.040047
    16  H    0.142628
    17  N    1.741933
    18  C   -0.349569
    19  H    0.244751
    20  H    0.138068
    21  H   -0.046557
    22  O   -1.472939
    23  O   -1.511040
    24  H    0.205858
    25  H    0.226791
    26  Si   2.400840
    27  C   -0.443847
    28  C   -0.527016
    29  C   -0.404164
    30  H   -0.102676
    31  H   -0.010356
    32  H    0.033125
    33  H    0.012913
    34  H   -0.012269
    35  H   -0.101883
    36  H   -0.007454
    37  H    0.052423
    38  H   -0.113173
 Sum of Mulliken charges =   0.00000

 Dipole moment (field-independent basis, Debye):
    X=              5.9489    Y=              4.4026    Z=             -1.4151  Tot=              7.5349

 Test job not archived.
 1\1\GINC-SE333\SP\RHF\Aug-CC-pVDZ\C13H21N1O2Si1\OHZDE\09-Apr-2025\0\\#
 t hf aug-cc-pvdz iop(5/13=1,5/36=2,99/5=2) pseudo=read geom=check gues
 s=(read,tcheck) scf=(maxcycle=1)\\title\\0,1\C,0,-0.034324,-1.010743,-
 0.775456\C,0,-2.263689,-0.731982,0.097381\C,0,0.427816,0.07526,-0.0180
 41\H,0,0.124582,0.068704,1.022531\C,0,-2.232378,0.688608,0.032345\C,0,
 -3.678467,1.138138,0.033077\C,0,-1.293806,-1.518049,-0.52008\H,0,-1.60
 9789,-2.470198,-0.936478\H,0,0.54444,-1.383594,-1.610931\C,0,-3.652207
 ,-1.150873,0.261253\C,0,1.70579,0.78242,-0.279915\C,0,1.877737,2.03932

 Normal termination of Gaussian 16 at Wed Apr  9 02:19:17 2025.
