 Gaussian 16, Revision C.01,

 ----------------------------------------------------------------------
 #t hf aug-cc-pvdz symm=none int=(grid=ultrafine) guess=(read,tcheck) s
 table=(opt,rrhf)
 ----------------------------------------------------------------------
 -----
 title
 -----
 Symbolic Z-matrix:
 Charge =  0 Multiplicity = 1

 SCF Done:  E(RHF) =  -689.957673619     A.U. after   13 cycles
 Normal termination of Gaussian 16 at Wed Apr  9 00:55:17 2025.
 Gaussian 16:  ES64L-G16RevC.01  3-Jul-2019

 ----------------------------------------------------------------------
 #t hf aug-cc-pvdz iop(5/13=1,5/36=2,99/5=2) pseudo=read geom=check gue
 ss=(read,tcheck) scf=(maxcycle=1)
 ----------------------------------------------------------------------
 -----
 title
 -----
 Structure from the checkpoint file:  "BH10-RE_131_mol2.chk"
 Charge =  0 Multiplicity = 1

                         Standard orientation:
 ---------------------------------------------------------------------
 Center     Atomic      Atomic             Coordinates (Angstroms)
 Number     Number       Type             X           Y           Z
 ---------------------------------------------------------------------
      1          8           0        0.763894    1.595683    0.000028
      2          6           0        0.686758    0.420319    0.000008
      3          6           0       -0.551443   -0.426284    0.000014
      4          6           0       -1.834980    0.393107    0.000019
      5          1           0       -0.492677   -1.085721    0.871229
      6          1           0       -0.492687   -1.085732   -0.871193
      7          1           0       -1.842970    1.049479    0.873177
      8          6           0       -3.071140   -0.498267    0.000022
      9          1           0       -1.842975    1.049483   -0.873135
     10          1           0       -3.096548   -1.142647   -0.882501
     11          1           0       -3.983707    0.099818    0.000007
     12          1           0       -3.096562   -1.142623    0.882561
     13         17           0        2.197753   -0.578869   -0.000044
 ---------------------------------------------------------------------

 SCF Done:  E(RHF) =  -690.274105535     A.U. after    2 cycles

 The electronic state is 1-A.
 Alpha  occ. eigenvalues -- -105.57333 -20.58293 -11.41621 -11.27503 -11.25081
 Alpha  occ. eigenvalues --  -11.24098 -10.62230  -7.79151  -7.78787  -7.78771
 Alpha  occ. eigenvalues --   -1.53594  -1.12161  -1.07470  -0.98458  -0.85092
 Alpha  occ. eigenvalues --   -0.77391  -0.69162  -0.68106  -0.66900  -0.60815
 Alpha  occ. eigenvalues --   -0.59353  -0.55010  -0.54504  -0.51797  -0.50230
 Alpha  occ. eigenvalues --   -0.47089  -0.46937  -0.44645
 Alpha virt. eigenvalues --    0.03263   0.03872   0.03903   0.04783   0.06889
 Alpha virt. eigenvalues --    0.07355   0.07834   0.09426   0.10669   0.11031
 Alpha virt. eigenvalues --    0.12036   0.13588   0.14753   0.14957   0.15061

 Mulliken charges:
               1
     1  O   -1.088836
     2  C    0.775707
     3  C   -0.285345
     4  C   -0.105908
     5  H    0.262354
     6  H    0.262344
     7  H    0.124876
     8  C   -0.368547
     9  H    0.124867
    10  H    0.163400
    11  H    0.124847
    12  H    0.163395
    13  Cl  -0.153152
 Sum of Mulliken charges =  -0.00000

 Dipole moment (field-independent basis, Debye):
    X=             -2.7606    Y=             -1.5990    Z=              0.0000  Tot=              3.1903

 Test job not archived.
 1\1\GINC-SE026\SP\RHF\Aug-CC-pVDZ\C4H7Cl1O1\OHZDE\09-Apr-2025\0\\#t hf
  aug-cc-pvdz iop(5/13=1,5/36=2,99/5=2) pseudo=read geom=check guess=(r
 ead,tcheck) scf=(maxcycle=1)\\title\\0,1\O,0,-0.763894,1.595683,-0.000
 028\C,0,-0.686758,0.420319,-0.000008\C,0,0.551443,-0.426284,-0.000014\
 C,0,1.83498,0.393107,-0.000019\H,0,0.492677,-1.085721,-0.871229\H,0,0.
 492687,-1.085732,0.871193\H,0,1.84297,1.049479,-0.873177\C,0,3.07114,-
 0.498267,-0.000022\H,0,1.842975,1.049483,0.873135\H,0,3.096548,-1.1426
 47,0.882501\H,0,3.983707,0.099818,-0.000007\H,0,3.096562,-1.142623,-0.

 Normal termination of Gaussian 16 at Wed Apr  9 00:55:21 2025.
