 Gaussian 16, Revision C.01,

 ----------------------------------------------------------------------
 #t hf aug-cc-pvdz symm=none int=(grid=ultrafine) guess=(read,tcheck) s
 table=opt
 ----------------------------------------------------------------------
 -----
 title
 -----
 Symbolic Z-matrix:
 Charge =  0 Multiplicity = 2

 SCF Done:  E(UHF) =  -551.037824016     A.U. after   20 cycles
 Normal termination of Gaussian 16 at Wed Apr  9 01:07:45 2025.
 Gaussian 16:  ES64L-G16RevC.01  3-Jul-2019

 ----------------------------------------------------------------------
 #t hf aug-cc-pvdz iop(5/13=1,5/36=2,99/5=2) pseudo=read geom=check gue
 ss=(read,tcheck) scf=(maxcycle=1)
 ----------------------------------------------------------------------
 -----
 title
 -----
 Structure from the checkpoint file:  "BH10_293_forward_mol3.chk"
 Charge =  0 Multiplicity = 2

                         Standard orientation:
 ---------------------------------------------------------------------
 Center     Atomic      Atomic             Coordinates (Angstroms)
 Number     Number       Type             X           Y           Z
 ---------------------------------------------------------------------
      1         16           0       -1.456914   -0.302031    0.067278
      2          6           0       -0.134035    0.878284   -0.256825
      3          6           0        1.215005    0.460348    0.312317
      4          8           0        1.652915   -0.776189   -0.201351
      5          1           0       -0.071722    0.949779   -1.348750
      6          1           0       -0.439059    1.862015    0.109158
      7          1           0        1.969690    1.196569    0.029097
      8          1           0        1.163056    0.436641    1.407647
      9          1           0        0.979517   -1.434798    0.004262
 ---------------------------------------------------------------------

 SCF Done:  E(UHF) =  -551.253091401     A.U. after    2 cycles

 The electronic state is 2-A.
 Alpha  occ. eigenvalues --  -93.97672 -20.55117 -11.29746 -11.28171  -8.25754
 Alpha  occ. eigenvalues --   -6.24929  -6.23165  -6.22862  -1.45634  -1.10043
 Alpha  occ. eigenvalues --   -0.96371  -0.83343  -0.70842  -0.65840  -0.61590
 Alpha  occ. eigenvalues --   -0.59341  -0.52757  -0.48723  -0.45798  -0.44157
 Alpha  occ. eigenvalues --   -0.39152
 Alpha virt. eigenvalues --    0.03575   0.04360   0.04982   0.05327   0.07199
 Alpha virt. eigenvalues --    0.08211   0.11805   0.12162   0.12619   0.14437
 Alpha virt. eigenvalues --    0.15541   0.15696   0.16436   0.17177   0.18069

  Beta  occ. eigenvalues --  -93.96777 -20.55117 -11.29736 -11.28296  -8.24726
  Beta  occ. eigenvalues --   -6.22642  -6.22324  -6.20954  -1.45633  -1.07270
  Beta  occ. eigenvalues --   -0.92356  -0.80235  -0.70566  -0.65316  -0.61205
  Beta  occ. eigenvalues --   -0.57577  -0.52285  -0.47771  -0.45273  -0.36999
  Beta virt. eigenvalues --   -0.00143   0.03641   0.04579   0.05068   0.05367
  Beta virt. eigenvalues --    0.07274   0.08328   0.12001   0.12556   0.13443
  Beta virt. eigenvalues --    0.14653   0.15620   0.16314   0.16673   0.17597

 Mulliken charges and spin densities:
               1          2
     1  S    0.201572   1.100128
     2  C   -0.869527  -0.124288
     3  C    0.699469  -0.004000
     4  O   -1.098825   0.001638
     5  H    0.270708   0.022210
     6  H    0.231919   0.011862
     7  H    0.068283   0.000694
     8  H    0.147524   0.001987
     9  H    0.348876  -0.010231
 Sum of Mulliken charges =  -0.00000   1.00000

 Dipole moment (field-independent basis, Debye):
    X=             -0.2821    Y=              1.5082    Z=              0.4250  Tot=              1.5921
                          Isotropic Fermi Contact Couplings
        Atom                 a.u.       MegaHertz       Gauss      10(-4) cm-1
     1  S(33)              0.18240      62.64984      22.35502      20.89774
     2  C(13)             -0.02473     -27.79888      -9.91933      -9.27271
     3  C(13)              0.00205       2.30155       0.82125       0.76772
     4  O(17)             -0.00052       0.31385       0.11199       0.10469
     5  H(1)               0.01525      68.14674      24.31645      22.73130
     6  H(1)               0.00771      34.46678      12.29861      11.49688
     7  H(1)              -0.00044      -1.97209      -0.70369      -0.65782
     8  H(1)              -0.00025      -1.10211      -0.39326      -0.36762

 Normal termination of Gaussian 16 at Wed Apr  9 01:07:48 2025.
