 Gaussian 16, Revision C.01,

 ----------------------------------------------------------------------
 #t hf aug-cc-pvdz symm=none int=(grid=ultrafine) guess=(read,tcheck) s
 table=(opt,rrhf)
 ----------------------------------------------------------------------
 -----
 title
 -----
 Symbolic Z-matrix:
 Charge =  0 Multiplicity = 1

 SCF Done:  E(RHF) =  -988.339901910     A.U. after   20 cycles
 Normal termination of Gaussian 16 at Wed Apr  9 02:01:05 2025.
 Gaussian 16:  ES64L-G16RevC.01  3-Jul-2019

 ----------------------------------------------------------------------
 #t hf aug-cc-pvdz iop(5/13=1,5/36=2,99/5=2) pseudo=read geom=check gue
 ss=(read,tcheck) scf=(maxcycle=1)
 ----------------------------------------------------------------------
 -----
 title
 -----
 Structure from the checkpoint file:  "BH10_369_forward_mol1.chk"
 Charge =  0 Multiplicity = 1

                         Standard orientation:
 ---------------------------------------------------------------------
 Center     Atomic      Atomic             Coordinates (Angstroms)
 Number     Number       Type             X           Y           Z
 ---------------------------------------------------------------------
      1          6           0        0.281274   -0.783254   -0.178074
      2          6           0       -0.500407    0.155483   -0.203987
      3          6           0        1.698993   -1.195101   -0.068881
      4          6           0       -0.729157    1.612599   -0.198050
      5          6           0        2.528529    0.071990   -0.389780
      6          1           0        3.577215   -0.100262   -0.135728
      7          1           0        2.479548    0.279217   -1.460843
      8          6           0        0.662881    2.227158   -0.497381
      9          1           0        0.633667    3.303640   -0.312767
     10          7           0       -0.998925   -2.600139   -0.062882
     11          7           0       -2.000880   -2.037899   -0.050260
     12          7           0       -2.540102   -0.926517   -0.189130
     13          6           0       -3.795555   -0.678901    0.510378
     14          1           0       -4.084610    0.346483    0.290838
     15          1           0       -4.588240   -1.339701    0.152393
     16          1           0       -3.691055   -0.791375    1.593447
     17         16           0        2.074091    1.610620    0.485923
     18          6           0       -1.698724    2.060099   -1.294779
     19          1           0       -2.694966    1.654860   -1.117715
     20          1           0       -1.768516    3.150714   -1.317659
     21          1           0       -1.367562    1.712076   -2.274615
     22          6           0       -1.227411    2.069009    1.176731
     23          1           0       -1.367651    3.153193    1.187220
     24          1           0       -2.181295    1.598454    1.417515
     25          1           0       -0.508834    1.802518    1.952438
     26          6           0        2.065849   -2.285340   -1.080025
     27          1           0        3.133176   -2.514089   -1.020606
     28          1           0        1.504447   -3.197048   -0.875765
     29          1           0        1.837431   -1.966858   -2.099147
     30          6           0        1.982358   -1.682454    1.355632
     31          1           0        1.352893   -2.540698    1.593365
     32          1           0        3.029314   -1.983500    1.449188
     33          1           0        1.780080   -0.892633    2.080060
     34          1           0        0.907053    2.079248   -1.551182
 ---------------------------------------------------------------------

 SCF Done:  E(RHF) =  -989.018104271     A.U. after    2 cycles

 The electronic state is 1-A.
 Alpha  occ. eigenvalues --  -93.93241 -15.66985 -15.60091 -15.54859 -11.28093
 Alpha  occ. eigenvalues --  -11.26609 -11.26444 -11.26153 -11.26054 -11.22979
 Alpha  occ. eigenvalues --  -11.22883 -11.22549 -11.22245 -11.21893 -11.21066
 Alpha  occ. eigenvalues --   -8.21292  -6.19120  -6.18961  -6.18764  -1.48288
 Alpha  occ. eigenvalues --   -1.28707  -1.14957  -1.11249  -1.04100  -1.01359
 Alpha  occ. eigenvalues --   -0.99710  -0.94202  -0.93883  -0.93502  -0.84719
 Alpha  occ. eigenvalues --   -0.83311  -0.78345  -0.77042  -0.73821  -0.72776
 Alpha  occ. eigenvalues --   -0.71320  -0.66321  -0.65521  -0.62601  -0.61869
 Alpha  occ. eigenvalues --   -0.61101  -0.60149  -0.59826  -0.58847  -0.57551
 Alpha  occ. eigenvalues --   -0.55362  -0.54806  -0.53749  -0.53292  -0.52026
 Alpha  occ. eigenvalues --   -0.51236  -0.50790  -0.50244  -0.48675  -0.47319
 Alpha  occ. eigenvalues --   -0.47055  -0.42064  -0.41476  -0.37747  -0.35442
 Alpha  occ. eigenvalues --   -0.33407
 Alpha virt. eigenvalues --    0.03167   0.03205   0.03709   0.03987   0.04106
 Alpha virt. eigenvalues --    0.04415   0.04558   0.05571   0.06208   0.06301
 Alpha virt. eigenvalues --    0.07422   0.07564   0.07703   0.08093   0.08311

 Mulliken charges:
               1
     1  C   -0.215383
     2  C    0.724254
     3  C   -1.573086
     4  C   -0.970378
     5  C   -0.018860
     6  H    0.126927
     7  H    0.136362
     8  C   -0.262739
     9  H    0.114884
    10  N    1.476116
    11  N   -3.067078
    12  N    1.356215
    13  C   -0.236717
    14  H    0.111565
    15  H    0.029963
    16  H    0.171479
    17  S    0.620864
    18  C   -0.001136
    19  H    0.111556
    20  H    0.169375
    21  H    0.218012
    22  C   -0.461108
    23  H    0.173957
    24  H    0.102640
    25  H    0.264101
    26  C   -0.166193
    27  H    0.157381
    28  H    0.267906
    29  H    0.183481
    30  C   -0.251307
    31  H    0.250748
    32  H    0.150286
    33  H    0.227985
    34  H    0.077929
 Sum of Mulliken charges =   0.00000

 Dipole moment (field-independent basis, Debye):
    X=             -1.7581    Y=              0.8930    Z=             -0.2738  Tot=              1.9908

 Test job not archived.
 1\1\GINC-SE460\SP\RHF\Aug-CC-pVDZ\C11H19N3S1\OHZDE\09-Apr-2025\0\\#t h
 f aug-cc-pvdz iop(5/13=1,5/36=2,99/5=2) pseudo=read geom=check guess=(
 read,tcheck) scf=(maxcycle=1)\\title\\0,1\C,0,0.281274,-0.783254,-0.17
 8074\C,0,-0.500407,0.155483,-0.203987\C,0,1.698992,-1.195102,-0.068881
 \C,0,-0.729156,1.612599,-0.19805\C,0,2.528529,0.071989,-0.38978\H,0,3.
 577215,-0.100264,-0.135728\H,0,2.479548,0.279216,-1.460843\C,0,0.66288
 2,2.227158,-0.497381\H,0,0.633668,3.30364,-0.312767\N,0,-0.998926,-2.6
 00139,-0.062882\N,0,-2.000881,-2.037898,-0.05026\N,0,-2.540103,-0.9265

 Normal termination of Gaussian 16 at Wed Apr  9 02:01:56 2025.
