 Gaussian 16, Revision C.01,

 ----------------------------------------------------------------------
 #t hf aug-cc-pvdz symm=none int=(grid=ultrafine) guess=(read,tcheck) s
 table=(opt,rrhf)
 ----------------------------------------------------------------------
 -----
 title
 -----
 Symbolic Z-matrix:
 Charge =  0 Multiplicity = 1

 SCF Done:  E(RHF) =  -1125.16353989     A.U. after   16 cycles
 Normal termination of Gaussian 16 at Wed Apr  9 02:08:45 2025.
 Gaussian 16:  ES64L-G16RevC.01  3-Jul-2019

 ----------------------------------------------------------------------
 #t hf aug-cc-pvdz iop(5/13=1,5/36=2,99/5=2) pseudo=read geom=check gue
 ss=(read,tcheck) scf=(maxcycle=1)
 ----------------------------------------------------------------------
 -----
 title
 -----
 Structure from the checkpoint file:  "BH10_296_forward_mol1.chk"
 Charge =  0 Multiplicity = 1

                         Standard orientation:
 ---------------------------------------------------------------------
 Center     Atomic      Atomic             Coordinates (Angstroms)
 Number     Number       Type             X           Y           Z
 ---------------------------------------------------------------------
      1          6           0        0.128961   -3.006560   -0.081461
      2          6           0       -0.113072   -1.870068    0.931470
      3          6           0        2.190256   -0.596158   -0.694610
      4          1           0       -0.550166   -2.880268   -0.933932
      5          6           0        0.943960   -1.825309    2.059530
      6          1           0        0.428518   -1.661501    3.011038
      7          1           0        1.437439   -2.798035    2.161014
      8          1           0        2.880652   -0.029820   -1.328882
      9          1           0       -1.072633   -2.108892    1.411099
     10          1           0       -0.634328    0.371892    1.201870
     11          6           0        1.996086   -0.717131    1.937285
     12          1           0        1.485690    0.245742    2.020828
     13          1           0        2.658173   -0.772946    2.808195
     14          6           0        2.880432   -0.680957    0.687131
     15          1           0        3.536137    0.188490    0.798386
     16          1           0        3.551049   -1.547226    0.688916
     17          6           0        2.106657   -1.968272   -1.394018
     18          1           0        1.521556   -1.847554   -2.313204
     19          6           0        1.556349   -3.146955   -0.599086
     20          1           0        1.606897   -4.036296   -1.236279
     21          1           0        2.224786   -3.356731    0.240952
     22          1           0        3.119654   -2.237077   -1.715736
     23          1           0       -0.147399   -3.959892    0.385548
     24          6           0        0.838690    0.166220   -0.710263
     25          1           0        0.435463   -0.002690   -1.720560
     26         14           0        1.020309    2.041020   -0.726279
     27          6           0        1.611372    2.788494    0.897303
     28          1           0        1.715455    3.872476    0.794143
     29          1           0        0.905226    2.600625    1.706729
     30          1           0        2.583381    2.390881    1.197031
     31          6           0       -0.638097    2.817946   -1.175388
     32          1           0       -1.007544    2.425990   -2.127038
     33          1           0       -1.399551    2.632694   -0.416244
     34          1           0       -0.539282    3.901669   -1.282364
     35          6           0        2.254346    2.551595   -2.058789
     36          1           0        1.997803    2.115692   -3.028311
     37          1           0        2.265849    3.638676   -2.177124
     38          1           0        3.272908    2.239351   -1.816065
     39          5           0       -0.295711   -0.425153    0.269131
     40          6           0       -1.996238    1.154156    1.806350
     41          6           0       -2.982287    0.546302    1.128211
     42          1           0       -3.954074    0.426877    1.588169
     43          6           0       -1.541974    2.031500    2.662659
     44          1           0       -0.684673    1.836950    3.291558
     45          1           0       -2.009797    3.008004    2.712109
     46          6           0       -2.769776   -0.126345   -0.105964
     47          8           0       -1.658496   -0.472460   -0.565852
     48          8           0       -3.856939   -0.479859   -0.758471
     49          6           0       -3.687072   -1.290491   -1.932907
     50          1           0       -3.084915   -0.761841   -2.670110
     51          1           0       -3.203943   -2.231315   -1.673404
     52          1           0       -4.692163   -1.461699   -2.306200
 ---------------------------------------------------------------------

 SCF Done:  E(RHF) =  -1126.07594072     A.U. after    2 cycles

 The electronic state is 1-A.
 Alpha  occ. eigenvalues --  -69.48292 -20.62487 -20.58438 -11.43373 -11.33808
 Alpha  occ. eigenvalues --  -11.31879 -11.25732 -11.25629 -11.20967 -11.20450
 Alpha  occ. eigenvalues --  -11.20415 -11.20241 -11.20201 -11.20182 -11.20164
 Alpha  occ. eigenvalues --  -11.19190 -11.19008 -11.18877 -11.17391 -11.16130
 Alpha  occ. eigenvalues --   -7.56072  -6.15366  -3.90710  -3.90704  -3.90671
 Alpha  occ. eigenvalues --   -1.59481  -1.50052  -1.12875  -1.10082  -1.04692
 Alpha  occ. eigenvalues --   -1.02894  -1.02596  -0.98176  -0.97030  -0.93934
 Alpha  occ. eigenvalues --   -0.91208  -0.90935  -0.89826  -0.86845  -0.85138
 Alpha  occ. eigenvalues --   -0.81049  -0.78030  -0.76606  -0.75535  -0.71575
 Alpha  occ. eigenvalues --   -0.71146  -0.69910  -0.67007  -0.65278  -0.64235
 Alpha  occ. eigenvalues --   -0.62728  -0.62694  -0.61899  -0.60897  -0.59537
 Alpha  occ. eigenvalues --   -0.57985  -0.57153  -0.56653  -0.56253  -0.55938
 Alpha  occ. eigenvalues --   -0.55763  -0.55467  -0.54586  -0.54284  -0.53035
 Alpha  occ. eigenvalues --   -0.52809  -0.52115  -0.51071  -0.50819  -0.48753
 Alpha  occ. eigenvalues --   -0.47829  -0.47467  -0.46979  -0.45656  -0.45108
 Alpha  occ. eigenvalues --   -0.44675  -0.42521  -0.42303  -0.41888  -0.40990
 Alpha  occ. eigenvalues --   -0.40251  -0.39327  -0.36423  -0.31519
 Alpha virt. eigenvalues --    0.02111   0.02221   0.02678   0.03559   0.04046
 Alpha virt. eigenvalues --    0.04235   0.04365   0.04560   0.04838   0.05872
 Alpha virt. eigenvalues --    0.06122   0.06417   0.06828   0.07106   0.07277

 Mulliken charges:
               1
     1  C   -0.560335
     2  C    0.059403
     3  C    0.180106
     4  H    0.111218
     5  C   -0.597767
     6  H    0.018261
     7  H    0.085711
     8  H    0.123242
     9  H   -0.119473
    10  H   -0.699048
    11  C    0.048285
    12  H    0.393663
    13  H   -0.097743
    14  C   -0.588573
    15  H    0.029476
    16  H    0.102092
    17  C   -0.418547
    18  H    0.159592
    19  C   -0.145686
    20  H    0.012196
    21  H    0.301439
    22  H    0.053578
    23  H   -0.010141
    24  C   -0.782426
    25  H   -0.022137
    26  Si   2.023070
    27  C   -0.246250
    28  H   -0.163564
    29  H   -0.085236
    30  H    0.035095
    31  C   -0.293612
    32  H    0.035745
    33  H    0.032363
    34  H   -0.149527
    35  C   -0.512427
    36  H    0.000898
    37  H   -0.179889
    38  H   -0.024379
    39  B    3.386898
    40  C    0.243173
    41  C    0.560474
    42  H   -0.325991
    43  C    0.046536
    44  H   -0.100217
    45  H   -0.101281
    46  C    1.969640
    47  O   -2.610201
    48  O   -1.752110
    49  C    0.185610
    50  H    0.246926
    51  H    0.217916
    52  H   -0.076048
 Sum of Mulliken charges =   0.00000

 Dipole moment (field-independent basis, Debye):
    X=             -3.7789    Y=              0.0770    Z=             -0.3582  Tot=              3.7966

 Test job not archived.
 1\1\GINC-SE051\SP\RHF\Aug-CC-pVDZ\C17H31B1O2Si1\OHZDE\09-Apr-2025\0\\#
 t hf aug-cc-pvdz iop(5/13=1,5/36=2,99/5=2) pseudo=read geom=check gues
 s=(read,tcheck) scf=(maxcycle=1)\\title\\0,1\C,0,0.128961,-3.00656,-0.
 081461\C,0,-0.113072,-1.870068,0.93147\C,0,2.190256,-0.596158,-0.69461
 \H,0,-0.550166,-2.880268,-0.933932\C,0,0.94396,-1.825309,2.05953\H,0,0
 .428518,-1.661501,3.011038\H,0,1.437439,-2.798035,2.161014\H,0,2.88065
 2,-0.02982,-1.328882\H,0,-1.072633,-2.108892,1.411099\H,0,-0.634328,0.
 371892,1.20187\C,0,1.996086,-0.717131,1.937285\H,0,1.48569,0.245742,2.

 Normal termination of Gaussian 16 at Wed Apr  9 02:11:54 2025.
