 Gaussian 16, Revision C.01,

 ----------------------------------------------------------------------
 #t hf aug-cc-pvdz symm=none int=(grid=ultrafine) guess=(read,tcheck) s
 table=opt
 ----------------------------------------------------------------------
 -----
 title
 -----
 Symbolic Z-matrix:
 Charge =  0 Multiplicity = 2

 SCF Done:  E(UHF) =  -856.898971602     A.U. after   22 cycles
 Normal termination of Gaussian 16 at Wed Apr  9 01:01:20 2025.
 Gaussian 16:  ES64L-G16RevC.01  3-Jul-2019

 ----------------------------------------------------------------------
 #t hf aug-cc-pvdz iop(5/13=1,5/36=2,99/5=2) pseudo=read geom=check gue
 ss=(read,tcheck) scf=(maxcycle=1)
 ----------------------------------------------------------------------
 -----
 title
 -----
 Structure from the checkpoint file:  "BH10_162_forward_mol1.chk"
 Charge =  0 Multiplicity = 2

                         Standard orientation:
 ---------------------------------------------------------------------
 Center     Atomic      Atomic             Coordinates (Angstroms)
 Number     Number       Type             X           Y           Z
 ---------------------------------------------------------------------
      1          6           0        2.517543   -2.127436   -0.340433
      2          6           0        0.282114   -1.435936   -0.233505
      3          6           0       -0.622592   -0.404628    0.380873
      4          6           0       -0.502448   -0.159115    1.857477
      5          6           0       -1.968502   -0.378030   -0.231828
      6          8           0       -2.856425    0.349789    0.472305
      7          8           0       -2.258810   -0.920295   -1.270259
      8         16           0        0.549791    2.040783   -0.783612
      9          6           0        1.896423    2.101747    0.432939
     10          1           0        2.569438   -1.970459   -1.424303
     11          1           0        2.256123   -3.174918   -0.145864
     12          1           0        3.490938   -1.916242    0.099366
     13          1           0        0.544905   -0.064088    2.137794
     14          1           0       -1.048716    0.734367    2.154399
     15          1           0       -0.920035   -1.007207    2.412872
     16          1           0       -0.082384   -2.443579    0.028499
     17          1           0        0.253961   -1.354407   -1.325135
     18          1           0        2.621987    2.827423    0.064499
     19          1           0        2.374414    1.127649    0.511291
     20          1           0        1.539209    2.429238    1.408036
     21          1           0       -0.117700    0.803347   -0.206565
     22          1           0       -3.683959    0.349841   -0.028202
     23          8           0        1.588976   -1.251131    0.255200
 ---------------------------------------------------------------------

 SCF Done:  E(UHF) =  -857.429332289     A.U. after    2 cycles

 The electronic state is 2-A.
 Alpha  occ. eigenvalues --  -93.94100 -20.60581 -20.55786 -20.54871 -11.39885
 Alpha  occ. eigenvalues --  -11.29885 -11.29071 -11.29058 -11.25746 -11.24259
 Alpha  occ. eigenvalues --   -8.22153  -6.20741  -6.19719  -6.19450  -1.55873
 Alpha  occ. eigenvalues --   -1.48131  -1.46435  -1.12907  -1.05440  -0.97676
 Alpha  occ. eigenvalues --   -0.93986  -0.89046  -0.87417  -0.79359  -0.72135
 Alpha  occ. eigenvalues --   -0.71631  -0.70234  -0.66385  -0.65274  -0.64028
 Alpha  occ. eigenvalues --   -0.61602  -0.59079  -0.58891  -0.58570  -0.57926
 Alpha  occ. eigenvalues --   -0.56337  -0.53351  -0.52888  -0.49814  -0.49542
 Alpha  occ. eigenvalues --   -0.47442  -0.45825  -0.43291  -0.35810  -0.35047
 Alpha virt. eigenvalues --    0.03205   0.03431   0.03794   0.04225   0.05322
 Alpha virt. eigenvalues --    0.05868   0.06052   0.06894   0.07633   0.08326
 Alpha virt. eigenvalues --    0.09015   0.09597   0.10565   0.11470   0.12529

  Beta  occ. eigenvalues --  -93.93587 -20.60614 -20.55774 -20.54280 -11.40203
  Beta  occ. eigenvalues --  -11.30076 -11.29076 -11.27170 -11.25800 -11.24438
  Beta  occ. eigenvalues --   -8.21562  -6.19455  -6.19125  -6.18469  -1.55671
  Beta  occ. eigenvalues --   -1.48095  -1.45472  -1.09481  -1.03115  -0.97604
  Beta  occ. eigenvalues --   -0.93408  -0.88911  -0.85140  -0.77689  -0.71767
  Beta  occ. eigenvalues --   -0.70113  -0.68847  -0.65698  -0.64225  -0.63486
  Beta  occ. eigenvalues --   -0.60282  -0.58850  -0.58300  -0.57790  -0.57476
  Beta  occ. eigenvalues --   -0.55810  -0.52642  -0.51286  -0.49393  -0.47178
  Beta  occ. eigenvalues --   -0.45400  -0.44346  -0.42966  -0.34750
  Beta virt. eigenvalues --    0.02004   0.03260   0.03485   0.03806   0.04236
  Beta virt. eigenvalues --    0.05412   0.05902   0.06063   0.06919   0.07656
  Beta virt. eigenvalues --    0.08362   0.09024   0.09622   0.10579   0.11499

 Mulliken charges and spin densities:
               1          2
     1  C    0.118322  -0.002921
     2  C    0.723264  -0.201690
     3  C   -1.849393   1.270365
     4  C   -0.390471  -0.152166
     5  C    3.255373  -0.244090
     6  O   -1.530346  -0.001548
     7  O   -1.406488   0.142218
     8  S   -0.182771   0.503425
     9  C   -0.633604  -0.048267
    10  H    0.229326   0.000344
    11  H    0.174192  -0.000830
    12  H   -0.018639  -0.000625
    13  H    0.251638   0.004692
    14  H    0.218609   0.009781
    15  H    0.183773   0.035486
    16  H    0.143502   0.027054
    17  H    0.159453   0.016272
    18  H    0.044938   0.004601
    19  H    0.118253   0.008612
    20  H    0.160172   0.001973
    21  H    1.099001  -0.371962
    22  H    0.444196  -0.001798
    23  O   -1.312299   0.001075
 Sum of Mulliken charges =  -0.00000   1.00000

 Dipole moment (field-independent basis, Debye):
    X=              1.0317    Y=             -1.4436    Z=              2.2546  Tot=              2.8690
                          Isotropic Fermi Contact Couplings
        Atom                 a.u.       MegaHertz       Gauss      10(-4) cm-1
     1  C(13)             -0.00156      -1.75215      -0.62521      -0.58446
     2  C(13)             -0.03811     -42.84719     -15.28894     -14.29228
     3  C(13)              0.21491     241.60434      86.21044      80.59053
     4  C(13)             -0.03373     -37.91751     -13.52991     -12.64792
     5  C(13)             -0.05089     -57.20954     -20.41379     -19.08305
     6  O(17)             -0.00866       5.24748       1.87243       1.75037
     7  O(17)              0.04569     -27.69804      -9.88335      -9.23907
     8  S(33)              0.10318      35.43837      12.64529      11.82097

 Normal termination of Gaussian 16 at Wed Apr  9 01:01:37 2025.
