 Gaussian 16, Revision C.01,

 ----------------------------------------------------------------------
 #t hf aug-cc-pvdz symm=none int=(grid=ultrafine) guess=(read,tcheck) s
 table=(opt,rrhf)
 ----------------------------------------------------------------------
 -----
 title
 -----
 Symbolic Z-matrix:
 Charge =  0 Multiplicity = 1

 SCF Done:  E(RHF) =  -1120.52298764     A.U. after   16 cycles
 Normal termination of Gaussian 16 at Wed Apr  9 02:06:06 2025.
 Gaussian 16:  ES64L-G16RevC.01  3-Jul-2019

 ----------------------------------------------------------------------
 #t hf aug-cc-pvdz iop(5/13=1,5/36=2,99/5=2) pseudo=read geom=check gue
 ss=(read,tcheck) scf=(maxcycle=1)
 ----------------------------------------------------------------------
 -----
 title
 -----
 Structure from the checkpoint file:  "BH10_46_forward_mol3.chk"
 Charge =  0 Multiplicity = 1

                         Standard orientation:
 ---------------------------------------------------------------------
 Center     Atomic      Atomic             Coordinates (Angstroms)
 Number     Number       Type             X           Y           Z
 ---------------------------------------------------------------------
      1          6           0        3.721433   -0.356419   -0.141190
      2          1           0        4.468336   -0.501601    0.634371
      3          1           0        3.442051    0.694288   -0.216972
      4          1           0        4.095557   -0.699007   -1.105408
      5          8           0        2.591215   -1.136036    0.262365
      6          6           0        1.537276   -1.089921   -0.557321
      7          8           0        1.525059   -0.459498   -1.584360
      8          6           0        0.378247   -1.892311   -0.070802
      9          6           0        0.482378   -2.720895    0.962328
     10          6           0       -0.901119   -1.672710   -0.812690
     11          1           0       -1.525900   -2.565174   -0.842514
     12          1           0       -0.729342   -1.303732   -1.821500
     13         16           0       -1.971055   -0.448825   -0.000401
     14          6           0       -0.919607    0.979802    0.172826
     15          6           0       -0.819142    1.873681   -0.882311
     16          6           0       -0.183006    1.133748    1.338168
     17          6           0        0.055696    2.942260   -0.770187
     18          1           0       -1.421203    1.729246   -1.769919
     19          6           0        0.690763    2.206603    1.437605
     20          1           0       -0.306757    0.426287    2.147290
     21          6           0        0.811231    3.104104    0.384480
     22          1           0        0.148301    3.649420   -1.584682
     23          1           0        1.271801    2.345151    2.340889
     24          1           0        1.494159    3.941169    0.466671
     25          8           0       -3.040577   -0.135218   -0.939614
     26          8           0       -2.272039   -0.951472    1.336120
     27          1           0       -0.373239   -3.288309    1.306616
     28          1           0        1.418962   -2.836401    1.490043
 ---------------------------------------------------------------------

 SCF Done:  E(RHF) =  -1121.31091477     A.U. after    2 cycles

 The electronic state is 1-A.
 Alpha  occ. eigenvalues --  -94.18431 -20.60216 -20.54563 -20.52940 -20.52879
 Alpha  occ. eigenvalues --  -11.40223 -11.30607 -11.28790 -11.28039 -11.27905
 Alpha  occ. eigenvalues --  -11.27875 -11.27002 -11.26877 -11.26789 -11.26164
 Alpha  occ. eigenvalues --  -11.25999  -8.43768  -6.41877  -6.41667  -6.41592
 Alpha  occ. eigenvalues --   -1.56300  -1.54212  -1.46552  -1.42525  -1.18866
 Alpha  occ. eigenvalues --   -1.14264  -1.07024  -1.04360  -1.02349  -0.98459
 Alpha  occ. eigenvalues --   -0.91297  -0.87539  -0.86266  -0.81859  -0.78132
 Alpha  occ. eigenvalues --   -0.74476  -0.72829  -0.70371  -0.69272  -0.68545
 Alpha  occ. eigenvalues --   -0.67628  -0.67060  -0.64902  -0.64159  -0.63057
 Alpha  occ. eigenvalues --   -0.62553  -0.62381  -0.58211  -0.57751  -0.56729
 Alpha  occ. eigenvalues --   -0.55028  -0.54086  -0.53744  -0.53015  -0.48665
 Alpha  occ. eigenvalues --   -0.48482  -0.46916  -0.46125  -0.45651  -0.44584
 Alpha  occ. eigenvalues --   -0.39744  -0.37746  -0.36663
 Alpha virt. eigenvalues --    0.02395   0.02968   0.03410   0.03864   0.04361
 Alpha virt. eigenvalues --    0.04830   0.05641   0.05955   0.06395   0.07172
 Alpha virt. eigenvalues --    0.07239   0.07329   0.08055   0.08831   0.09347

 Mulliken charges:
               1
     1  C    0.165910
     2  H   -0.012064
     3  H    0.162346
     4  H    0.181681
     5  O   -1.647956
     6  C    2.330718
     7  O   -1.419425
     8  C    1.249557
     9  C    0.152140
    10  C   -1.209319
    11  H    0.088811
    12  H    0.067414
    13  S    4.168906
    14  C    0.537244
    15  C   -0.194962
    16  C   -0.038757
    17  C    0.227741
    18  H   -0.322729
    19  C    0.285206
    20  H   -0.326246
    21  C    0.172794
    22  H   -0.236239
    23  H   -0.285318
    24  H   -0.252119
    25  O   -1.722934
    26  O   -1.799953
    27  H   -0.188782
    28  H   -0.133664
 Sum of Mulliken charges =  -0.00000

 Dipole moment (field-independent basis, Debye):
    X=              6.1364    Y=              0.3145    Z=              0.7671  Tot=              6.1921

 Test job not archived.
 1\1\GINC-SE454\SP\RHF\Aug-CC-pVDZ\C11H12O4S1\OHZDE\09-Apr-2025\0\\#t h
 f aug-cc-pvdz iop(5/13=1,5/36=2,99/5=2) pseudo=read geom=check guess=(
 read,tcheck) scf=(maxcycle=1)\\title\\0,1\C,0,3.721433,-0.356417,-0.14
 119\H,0,4.468336,-0.501599,0.634371\H,0,3.442051,0.69429,-0.216972\H,0
 ,4.095557,-0.699005,-1.105408\O,0,2.591216,-1.136035,0.262365\C,0,1.53
 7277,-1.08992,-0.557321\O,0,1.525059,-0.459497,-1.58436\C,0,0.378248,-
 1.892311,-0.070802\C,0,0.482379,-2.720895,0.962328\C,0,-0.901118,-1.67
 271,-0.81269\H,0,-1.525899,-2.565175,-0.842514\H,0,-0.729341,-1.303732

 Normal termination of Gaussian 16 at Wed Apr  9 02:06:43 2025.
