 Gaussian 16, Revision C.01,

 ----------------------------------------------------------------------
 #t hf aug-cc-pvdz symm=none int=(grid=ultrafine) guess=(read,tcheck) s
 table=(opt,rrhf)
 ----------------------------------------------------------------------
 -----
 title
 -----
 Symbolic Z-matrix:
 Charge =  1 Multiplicity = 1

 SCF Done:  E(RHF) =  -950.801866824     A.U. after   13 cycles
 Normal termination of Gaussian 16 at Wed Apr  9 01:33:20 2025.
 Gaussian 16:  ES64L-G16RevC.01  3-Jul-2019

 ----------------------------------------------------------------------
 #t hf aug-cc-pvdz iop(5/13=1,5/36=2,99/5=2) pseudo=read geom=check gue
 ss=(read,tcheck) scf=(maxcycle=1)
 ----------------------------------------------------------------------
 -----
 title
 -----
 Structure from the checkpoint file:  "BH10_325_forward_mol2.chk"
 Charge =  1 Multiplicity = 1

                         Standard orientation:
 ---------------------------------------------------------------------
 Center     Atomic      Atomic             Coordinates (Angstroms)
 Number     Number       Type             X           Y           Z
 ---------------------------------------------------------------------
      1          6           0       -2.943483   -1.188589   -0.505042
      2         16           0       -1.773104    0.183507   -0.455634
      3          6           0       -1.216424    0.164168    1.291627
      4          6           0       -2.888563    1.603460   -0.452918
      5          6           0        0.294617    0.140670    1.357148
      6          1           0       -1.662097   -0.704160    1.773956
      7          1           0       -1.601337    1.075176    1.746364
      8          6           0        0.941010   -1.158291    0.846465
      9          8           0        0.781997    1.176480    0.537158
     10          1           0        0.583227    0.306869    2.404421
     11          6           0        2.179158    0.882127    0.271312
     12          6           0        2.223423   -0.656262    0.136020
     13          8           0        2.145008   -1.074630   -1.210148
     14          1           0        3.123198   -1.054652    0.606908
     15          8           0        0.059489   -1.807595   -0.049440
     16          1           0        1.173004   -1.835494    1.670281
     17          7           0        2.681574    1.541258   -0.863703
     18          1           0        2.752505    1.191085    1.151411
     19          1           0        0.563479   -1.999234   -0.856980
     20          1           0        3.002152   -0.978797   -1.636819
     21          1           0        2.131441    1.369449   -1.695206
     22          1           0        2.835691    2.530332   -0.729009
     23          1           0       -3.369714    1.647962   -1.428833
     24          1           0       -2.273000    2.490724   -0.313339
     25          1           0       -3.632096    1.517135    0.337724
     26          1           0       -2.356332   -2.092310   -0.360497
     27          1           0       -3.402418   -1.192269   -1.492349
     28          1           0       -3.699440   -1.074471    0.269789
 ---------------------------------------------------------------------

 SCF Done:  E(RHF) =  -951.436051578     A.U. after    2 cycles

 The electronic state is 1-A.
 Alpha  occ. eigenvalues --  -94.19797 -20.68636 -20.68026 -20.67914 -15.60783
 Alpha  occ. eigenvalues --  -11.44087 -11.44020 -11.43716 -11.43278 -11.43039
 Alpha  occ. eigenvalues --  -11.42566 -11.42289  -8.47529  -6.45235  -6.45221
 Alpha  occ. eigenvalues --   -6.45013  -1.62241  -1.59730  -1.57461  -1.33291
 Alpha  occ. eigenvalues --   -1.31216  -1.19945  -1.16096  -1.13881  -1.06706
 Alpha  occ. eigenvalues --   -1.00759  -0.96057  -0.93930  -0.87871  -0.86328
 Alpha  occ. eigenvalues --   -0.84070  -0.82909  -0.81491  -0.79402  -0.78661
 Alpha  occ. eigenvalues --   -0.77862  -0.75889  -0.75126  -0.73685  -0.72486
 Alpha  occ. eigenvalues --   -0.71667  -0.69361  -0.68529  -0.67697  -0.66992
 Alpha  occ. eigenvalues --   -0.65324  -0.62248  -0.61114  -0.59660  -0.57733
 Alpha  occ. eigenvalues --   -0.55775  -0.54436
 Alpha virt. eigenvalues --   -0.06979  -0.06724  -0.06036  -0.05587  -0.04246
 Alpha virt. eigenvalues --   -0.03974  -0.03746  -0.03332  -0.03097  -0.01837
 Alpha virt. eigenvalues --   -0.01351  -0.01057  -0.00883   0.00048   0.00470

 Mulliken charges:
               1
     1  C   -0.490503
     2  S    0.704424
     3  C   -0.284997
     4  C   -0.535712
     5  C    0.868375
     6  H    0.174446
     7  H    0.181252
     8  C    1.092143
     9  O   -1.750031
    10  H    0.142241
    11  C   -1.078891
    12  C    1.154774
    13  O   -1.462134
    14  H    0.249871
    15  O   -1.638416
    16  H    0.145768
    17  N    1.077605
    18  H    0.016601
    19  H    0.478972
    20  H    0.324658
    21  H    0.281981
    22  H    0.173706
    23  H    0.135294
    24  H    0.205615
    25  H    0.238270
    26  H    0.224366
    27  H    0.135524
    28  H    0.234796
 Sum of Mulliken charges =   1.00000

 Dipole moment (field-independent basis, Debye):
    X=             -5.0510    Y=              0.8280    Z=              0.5329  Tot=              5.1460

 Test job not archived.
 1\1\GINC-SE328\SP\RHF\Aug-CC-pVDZ\C7H16N1O3S1(1+)\OHZDE\09-Apr-2025\0\
 \#t hf aug-cc-pvdz iop(5/13=1,5/36=2,99/5=2) pseudo=read geom=check gu
 ess=(read,tcheck) scf=(maxcycle=1)\\title\\1,1\C,0,-2.943483,-1.188589
 ,-0.505042\S,0,-1.773104,0.183507,-0.455634\C,0,-1.216424,0.164168,1.2
 91627\C,0,-2.888563,1.60346,-0.452918\C,0,0.294617,0.14067,1.357148\H,
 0,-1.662097,-0.70416,1.773956\H,0,-1.601337,1.075176,1.746364\C,0,0.94
 101,-1.158291,0.846465\O,0,0.781997,1.17648,0.537158\H,0,0.583227,0.30
 6869,2.404421\C,0,2.179158,0.882127,0.271312\C,0,2.223423,-0.656262,0.

 Normal termination of Gaussian 16 at Wed Apr  9 01:33:47 2025.
