 Gaussian 16, Revision C.01,

 ----------------------------------------------------------------------
 #t hf aug-cc-pvdz symm=none int=(grid=ultrafine) guess=(read,tcheck) s
 table=(opt,rrhf)
 ----------------------------------------------------------------------
 -----
 title
 -----
 Symbolic Z-matrix:
 Charge =  0 Multiplicity = 1

 SCF Done:  E(RHF) =  -678.898197236     A.U. after   15 cycles
 Normal termination of Gaussian 16 at Wed Apr  9 01:22:24 2025.
 Gaussian 16:  ES64L-G16RevC.01  3-Jul-2019

 ----------------------------------------------------------------------
 #t hf aug-cc-pvdz iop(5/13=1,5/36=2,99/5=2) pseudo=read geom=check gue
 ss=(read,tcheck) scf=(maxcycle=1)
 ----------------------------------------------------------------------
 -----
 title
 -----
 Structure from the checkpoint file:  "BH10_283_forward_mol1.chk"
 Charge =  0 Multiplicity = 1

                         Standard orientation:
 ---------------------------------------------------------------------
 Center     Atomic      Atomic             Coordinates (Angstroms)
 Number     Number       Type             X           Y           Z
 ---------------------------------------------------------------------
      1          6           0       -1.707965    1.004765   -0.597139
      2          6           0       -0.474269   -0.848354    0.778063
      3          6           0       -2.823491    1.043222    0.473101
      4          1           0       -2.627934    1.905613    1.120309
      5          1           0       -3.794528    1.231379    0.000182
      6          1           0        0.433158   -1.168462    1.298744
      7          1           0       -1.679116    2.000081   -1.055235
      8          1           0       -0.125825    1.408220    1.147304
      9          6           0       -1.596682   -0.793210    1.839018
     10          1           0       -1.774097   -1.797451    2.241610
     11          1           0       -1.232128   -0.185799    2.673962
     12          5           0       -0.381883    0.659239    0.223244
     13          6           0        1.057145    1.882515   -0.290856
     14          6           0        1.179758    0.699896   -0.916300
     15          1           0        0.751028    0.548693   -1.897593
     16          6           0        1.195420    3.125213    0.060183
     17          1           0        1.945050    3.722229   -0.447400
     18          1           0        0.592334    3.583596    0.829523
     19          6           0        2.227134   -0.281668   -0.532439
     20          8           0        2.547537   -1.211041   -1.224565
     21          8           0        2.775807   -0.006791    0.653603
     22          6           0        3.764154   -0.935167    1.110624
     23          1           0        4.597957   -0.977905    0.410561
     24          1           0        4.091007   -0.560616    2.076573
     25          1           0        3.328970   -1.929312    1.211008
     26          6           0       -0.752332   -1.851457   -0.357223
     27          1           0        0.156228   -1.961773   -0.954693
     28          1           0       -0.945877   -2.842348    0.070458
     29          6           0       -1.964719   -0.013633   -1.721388
     30          1           0       -1.222865    0.147896   -2.513141
     31          1           0       -2.933771    0.185211   -2.193940
     32          6           0       -2.936519   -0.214772    1.351705
     33          1           0       -3.488214   -0.984594    0.812803
     34          1           0       -3.552756    0.022274    2.224554
     35          6           0       -1.915383   -1.488688   -1.294775
     36          1           0       -1.847483   -2.112353   -2.191350
     37          1           0       -2.861986   -1.760090   -0.828205
 ---------------------------------------------------------------------

 SCF Done:  E(RHF) =  -679.608199062     A.U. after    2 cycles

 The electronic state is 1-A.
 Alpha  occ. eigenvalues --  -20.59764 -20.54044 -11.40190 -11.34104 -11.30130
 Alpha  occ. eigenvalues --  -11.28850 -11.28323 -11.20982 -11.20926 -11.20807
 Alpha  occ. eigenvalues --  -11.20681 -11.20494 -11.20206 -11.19139 -11.18643
 Alpha  occ. eigenvalues --   -7.55241  -1.55817  -1.46137  -1.15494  -1.10169
 Alpha  occ. eigenvalues --   -1.04346  -1.02489  -1.01289  -0.97607  -0.91746
 Alpha  occ. eigenvalues --   -0.89849  -0.84053  -0.78530  -0.77428  -0.76949
 Alpha  occ. eigenvalues --   -0.74864  -0.71900  -0.70308  -0.69580  -0.67811
 Alpha  occ. eigenvalues --   -0.66244  -0.65231  -0.63318  -0.60359  -0.58979
 Alpha  occ. eigenvalues --   -0.58371  -0.57504  -0.56921  -0.56158  -0.55021
 Alpha  occ. eigenvalues --   -0.53908  -0.53227  -0.49337  -0.48579  -0.48388
 Alpha  occ. eigenvalues --   -0.46808  -0.46582  -0.46010  -0.45791  -0.44797
 Alpha  occ. eigenvalues --   -0.43389  -0.41635  -0.39359  -0.39250  -0.37200
 Alpha virt. eigenvalues --    0.02130   0.02680   0.03066   0.03938   0.04530
 Alpha virt. eigenvalues --    0.04800   0.05083   0.05103   0.05434   0.06978
 Alpha virt. eigenvalues --    0.07165   0.07516   0.07692   0.07955   0.08432

 Mulliken charges:
               1
     1  C   -0.494148
     2  C   -0.637308
     3  C   -0.295405
     4  H    0.166413
     5  H    0.097131
     6  H    0.036760
     7  H   -0.085418
     8  H   -0.729256
     9  C   -0.168715
    10  H    0.094434
    11  H    0.154995
    12  B    2.291972
    13  C   -0.132720
    14  C   -0.462736
    15  H   -0.120455
    16  C    0.288019
    17  H   -0.120756
    18  H   -0.170163
    19  C    2.920361
    20  O   -1.509548
    21  O   -1.574668
    22  C    0.219129
    23  H    0.169704
    24  H    0.003353
    25  H    0.205056
    26  C   -0.182589
    27  H    0.066416
    28  H    0.090256
    29  C   -0.146296
    30  H    0.079971
    31  H    0.075326
    32  C   -0.335810
    33  H    0.216719
    34  H    0.060415
    35  C   -0.327918
    36  H    0.071973
    37  H    0.185507
 Sum of Mulliken charges =  -0.00000

 Dipole moment (field-independent basis, Debye):
    X=              2.1387    Y=              3.1385    Z=              1.1621  Tot=              3.9717

 Test job not archived.
 1\1\GINC-SE123\SP\RHF\Aug-CC-pVDZ\C13H21B1O2\OHZDE\09-Apr-2025\0\\#t h
 f aug-cc-pvdz iop(5/13=1,5/36=2,99/5=2) pseudo=read geom=check guess=(
 read,tcheck) scf=(maxcycle=1)\\title\\0,1\C,0,-1.707965,1.004765,-0.59
 7139\C,0,-0.474269,-0.848354,0.778063\C,0,-2.823491,1.043222,0.473101\
 H,0,-2.627934,1.905613,1.120309\H,0,-3.794528,1.231379,0.000182\H,0,0.
 433158,-1.168462,1.298744\H,0,-1.679116,2.000081,-1.055235\H,0,-0.1258
 25,1.40822,1.147304\C,0,-1.596682,-0.79321,1.839018\H,0,-1.774097,-1.7
 97451,2.24161\H,0,-1.232128,-0.185799,2.673962\B,0,-0.381883,0.659239,

 Normal termination of Gaussian 16 at Wed Apr  9 01:23:30 2025.
