 Gaussian 16, Revision C.01,

 ----------------------------------------------------------------------
 #t hf aug-cc-pvdz symm=none int=(grid=ultrafine) guess=(read,tcheck) s
 table=(opt,rrhf)
 ----------------------------------------------------------------------
 -----
 title
 -----
 Symbolic Z-matrix:
 Charge =  0 Multiplicity = 1

 SCF Done:  E(RHF) =  -893.871195412     A.U. after   16 cycles
 Normal termination of Gaussian 16 at Wed Apr  9 02:09:53 2025.
 Gaussian 16:  ES64L-G16RevC.01  3-Jul-2019

 ----------------------------------------------------------------------
 #t hf aug-cc-pvdz iop(5/13=1,5/36=2,99/5=2) pseudo=read geom=check gue
 ss=(read,tcheck) scf=(maxcycle=1)
 ----------------------------------------------------------------------
 -----
 title
 -----
 Structure from the checkpoint file:  "BH10_90_reverse_mol2.chk"
 Charge =  0 Multiplicity = 1

                         Standard orientation:
 ---------------------------------------------------------------------
 Center     Atomic      Atomic             Coordinates (Angstroms)
 Number     Number       Type             X           Y           Z
 ---------------------------------------------------------------------
      1          6           0        0.501536   -1.147049    0.407105
      2          6           0        0.222844   -0.517003    1.737293
      3          6           0        0.921261    1.198871    0.322218
      4          6           0        0.451546    0.798490    1.686007
      5         16           0        2.098734   -0.238463    0.024082
      6          8           0        2.408845   -0.347273   -1.434732
      7          6           0       -2.465033    0.672417    0.017792
      8          6           0       -0.437570   -0.576487   -0.680684
      9          6           0       -0.135614    0.934899   -0.769005
     10          1           0       -2.510155    0.758161    1.107418
     11          1           0       -3.486644    0.754818   -0.353407
     12          6           0       -1.482085    1.676613   -0.593884
     13          1           0       -1.374942    2.576135    0.014195
     14          1           0       -1.841777    1.999224   -1.572308
     15          6           0       -1.901954   -0.704330   -0.281833
     16          8           0       -2.501687   -1.742751   -0.196691
     17          1           0        0.342015    1.490932    2.509647
     18          1           0       -0.110705   -1.072761    2.602777
     19          1           0       -0.261358   -1.096845   -1.622349
     20          1           0        0.614136   -2.226790    0.391420
     21          1           0        0.321158    1.172953   -1.728368
     22          1           0        1.421692    2.161239    0.246993
 ---------------------------------------------------------------------

 SCF Done:  E(RHF) =  -894.436799737     A.U. after    2 cycles

 The electronic state is 1-A.
 Alpha  occ. eigenvalues --  -94.07457 -20.54375 -20.50537 -11.34379 -11.29548
 Alpha  occ. eigenvalues --  -11.29214 -11.27446 -11.27331 -11.26187 -11.26105
 Alpha  occ. eigenvalues --  -11.25528 -11.25145  -8.34191  -6.32018  -6.31803
 Alpha  occ. eigenvalues --   -6.31670  -1.48150  -1.44015  -1.22373  -1.12312
 Alpha  occ. eigenvalues --   -1.04267  -1.02571  -0.96977  -0.93031  -0.83153
 Alpha  occ. eigenvalues --   -0.81904  -0.77565  -0.74307  -0.72755  -0.68886
 Alpha  occ. eigenvalues --   -0.67505  -0.63342  -0.61735  -0.60896  -0.60026
 Alpha  occ. eigenvalues --   -0.59380  -0.57219  -0.56238  -0.55743  -0.54267
 Alpha  occ. eigenvalues --   -0.50963  -0.50016  -0.49312  -0.48389  -0.41802
 Alpha  occ. eigenvalues --   -0.41056  -0.39716  -0.36177
 Alpha virt. eigenvalues --    0.02232   0.02827   0.03419   0.03907   0.05033
 Alpha virt. eigenvalues --    0.05242   0.05483   0.06098   0.07427   0.08537
 Alpha virt. eigenvalues --    0.08814   0.08981   0.10545   0.11334   0.11875

 Mulliken charges:
               1
     1  C   -0.511052
     2  C    0.454170
     3  C   -0.542092
     4  C    0.492610
     5  S    2.063225
     6  O   -1.568316
     7  C   -0.465528
     8  C   -0.458796
     9  C    0.163562
    10  H    0.330364
    11  H    0.138958
    12  C   -0.001932
    13  H    0.137474
    14  H    0.148227
    15  C    1.567962
    16  O   -1.573574
    17  H   -0.181173
    18  H   -0.169507
    19  H    0.120492
    20  H   -0.103595
    21  H    0.092567
    22  H   -0.134045
 Sum of Mulliken charges =  -0.00000

 Dipole moment (field-independent basis, Debye):
    X=             -1.3537    Y=              3.4756    Z=              2.9299  Tot=              4.7431

 Test job not archived.
 1\1\GINC-SE227\SP\RHF\Aug-CC-pVDZ\C9H10O2S1\OHZDE\09-Apr-2025\0\\#t hf
  aug-cc-pvdz iop(5/13=1,5/36=2,99/5=2) pseudo=read geom=check guess=(r
 ead,tcheck) scf=(maxcycle=1)\\title\\0,1\C,0,0.501536,-1.147049,0.4071
 05\C,0,0.222844,-0.517003,1.737293\C,0,0.921261,1.198871,0.322218\C,0,
 0.451546,0.79849,1.686007\S,0,2.098734,-0.238463,0.024082\O,0,2.408845
 ,-0.347273,-1.434732\C,0,-2.465033,0.672417,0.017792\C,0,-0.43757,-0.5
 76487,-0.680684\C,0,-0.135614,0.934899,-0.769005\H,0,-2.510155,0.75816
 1,1.107418\H,0,-3.486644,0.754818,-0.353407\C,0,-1.482085,1.676613,-0.

 Normal termination of Gaussian 16 at Wed Apr  9 02:10:12 2025.
