 Gaussian 16, Revision C.01,

 ----------------------------------------------------------------------
 #t hf aug-cc-pvdz symm=none int=(grid=ultrafine) guess=(read,tcheck) s
 table=(opt,rrhf)
 ----------------------------------------------------------------------
 -----
 title
 -----
 Symbolic Z-matrix:
 Charge =  0 Multiplicity = 1

 SCF Done:  E(RHF) =  -336.386537780     A.U. after   12 cycles

 1\1\GINC-SE250\Stability\RHF\Aug-CC-pVDZ\C8H15B1\OHZDE\09-Apr-2025\0\\
 #t hf aug-cc-pvdz symm=none int=(grid=ultrafine) guess=(read,tcheck) s
 table=(opt,rrhf)\\title\\0,1\C,0,-0.004175,1.297467,0.706683\C,0,-0.00
 4185,-1.297467,0.706683\C,0,-1.287618,1.287234,-0.174055\H,0,-2.150528
 ,1.44512,0.483636\H,0,-1.266469,2.148245,-0.851023\H,0,-0.031724,-2.21
 5011,1.30083\H,0,-0.031707,2.215011,1.300831\H,0,-0.444351,0.000001,2.
 721408\C,0,-1.287635,-1.28722,-0.174047\H,0,-2.150544,-1.445087,0.4836
 5\H,0,-1.266504,-2.148236,-0.851009\B,0,-0.136935,0.,1.565978\C,0,1.31

 Normal termination of Gaussian 16 at Wed Apr  9 01:04:59 2025.
 Gaussian 16:  ES64L-G16RevC.01  3-Jul-2019

 ----------------------------------------------------------------------
 #t hf aug-cc-pvdz iop(5/13=1,5/36=2,99/5=2) pseudo=read geom=check gue
 ss=(read,tcheck) scf=(maxcycle=1)
 ----------------------------------------------------------------------
 -----
 title
 -----
 Structure from the checkpoint file:  "BH10_282_forward_mol3.chk"
 Charge =  0 Multiplicity = 1

                         Standard orientation:
 ---------------------------------------------------------------------
 Center     Atomic      Atomic             Coordinates (Angstroms)
 Number     Number       Type             X           Y           Z
 ---------------------------------------------------------------------
      1          6           0        0.004174   -1.297467    0.706683
      2          6           0        0.004186    1.297467    0.706683
      3          6           0        1.287617   -1.287235   -0.174055
      4          1           0        2.150527   -1.445121    0.483636
      5          1           0        1.266468   -2.148246   -0.851023
      6          1           0        0.031725    2.215011    1.300830
      7          1           0        0.031706   -2.215011    1.300831
      8          1           0        0.444351   -0.000001    2.721408
      9          6           0        1.287636    1.287219   -0.174047
     10          1           0        2.150545    1.445086    0.483650
     11          1           0        1.266505    2.148235   -0.851009
     12          5           0        0.136935   -0.000000    1.565978
     13          6           0       -1.316342    1.287603   -0.093432
     14          1           0       -2.135028    1.450855    0.617181
     15          1           0       -1.341782    2.143177   -0.777862
     16          6           0       -1.316360   -1.287587   -0.093423
     17          1           0       -2.135045   -1.450820    0.617196
     18          1           0       -1.341817   -2.143166   -0.777846
     19          6           0        1.515361   -0.000007   -0.980270
     20          1           0        0.879740    0.000001   -1.864476
     21          1           0        2.541732   -0.000013   -1.359190
     22          6           0       -1.601385    0.000007   -0.878454
     23          1           0       -2.651891    0.000012   -1.184187
     24          1           0       -1.031732   -0.000000   -1.807138
 ---------------------------------------------------------------------

 SCF Done:  E(RHF) =  -336.755662739     A.U. after    2 cycles

 The electronic state is 1-A.
 Alpha  occ. eigenvalues --  -11.22836 -11.22832 -11.22337 -11.22333 -11.22186
 Alpha  occ. eigenvalues --  -11.21897 -11.19839 -11.19799  -7.56755  -1.11958
 Alpha  occ. eigenvalues --   -1.04279  -1.02674  -0.93538  -0.91367  -0.79579
 Alpha  occ. eigenvalues --   -0.78481  -0.75879  -0.68032  -0.65470  -0.60432
 Alpha  occ. eigenvalues --   -0.59206  -0.58601  -0.58016  -0.56878  -0.55016
 Alpha  occ. eigenvalues --   -0.50960  -0.49141  -0.48534  -0.48309  -0.48084
 Alpha  occ. eigenvalues --   -0.46436  -0.42772  -0.40231  -0.39569
 Alpha virt. eigenvalues --    0.02974   0.03136   0.03348   0.03701   0.05299
 Alpha virt. eigenvalues --    0.05515   0.05559   0.05589   0.05609   0.08657
 Alpha virt. eigenvalues --    0.08875   0.08926   0.08938   0.09083   0.09194

 Mulliken charges:
               1
     1  C    0.075688
     2  C    0.075688
     3  C   -0.297796
     4  H    0.107496
     5  H    0.104855
     6  H   -0.055862
     7  H   -0.055861
     8  H    0.290308
     9  C   -0.297793
    10  H    0.107496
    11  H    0.104851
    12  B    0.028833
    13  C   -0.308040
    14  H    0.114941
    15  H    0.137854
    16  C   -0.308039
    17  H    0.114940
    18  H    0.137851
    19  C   -0.319852
    20  H    0.187576
    21  H    0.081942
    22  C   -0.298360
    23  H    0.086149
    24  H    0.185138
 Sum of Mulliken charges =  -0.00000

 Dipole moment (field-independent basis, Debye):
    X=             -0.0246    Y=              0.0000    Z=             -0.4923  Tot=              0.4929

 Test job not archived.
 1\1\GINC-SE250\SP\RHF\Aug-CC-pVDZ\C8H15B1\OHZDE\09-Apr-2025\0\\#t hf a
 ug-cc-pvdz iop(5/13=1,5/36=2,99/5=2) pseudo=read geom=check guess=(rea
 d,tcheck) scf=(maxcycle=1)\\title\\0,1\C,0,-0.004175,1.297467,0.706683
 \C,0,-0.004185,-1.297467,0.706683\C,0,-1.287618,1.287234,-0.174055\H,0
 ,-2.150528,1.44512,0.483636\H,0,-1.266469,2.148245,-0.851023\H,0,-0.03
 1724,-2.215011,1.30083\H,0,-0.031707,2.215011,1.300831\H,0,-0.444351,0
 .000001,2.721408\C,0,-1.287635,-1.28722,-0.174047\H,0,-2.150544,-1.445
 087,0.48365\H,0,-1.266504,-2.148236,-0.851009\B,0,-0.136935,0.,1.56597

 Normal termination of Gaussian 16 at Wed Apr  9 01:05:14 2025.
