 Gaussian 16, Revision C.01,

 ----------------------------------------------------------------------
 #t hf aug-cc-pvdz symm=none int=(grid=ultrafine) guess=(read,tcheck) s
 table=(opt,rrhf)
 ----------------------------------------------------------------------
 -----
 title
 -----
 Symbolic Z-matrix:
 Charge =  0 Multiplicity = 1

 SCF Done:  E(RHF) =  -1375.42845775     A.U. after   17 cycles
 Normal termination of Gaussian 16 at Wed Apr  9 03:11:15 2025.
 Gaussian 16:  ES64L-G16RevC.01  3-Jul-2019

 ----------------------------------------------------------------------
 #t hf aug-cc-pvdz iop(5/13=1,5/36=2,99/5=2) pseudo=read geom=check gue
 ss=(read,tcheck) scf=(maxcycle=1)
 ----------------------------------------------------------------------
 -----
 title
 -----
 Structure from the checkpoint file:  "BH10_396_forward_mol2.chk"
 Charge =  0 Multiplicity = 1

                         Standard orientation:
 ---------------------------------------------------------------------
 Center     Atomic      Atomic             Coordinates (Angstroms)
 Number     Number       Type             X           Y           Z
 ---------------------------------------------------------------------
      1          6           0       -1.304497    2.521784    0.958721
      2          1           0       -1.729347    3.502140    1.178283
      3          1           0       -0.852581    2.137083    1.894699
      4          6           0       -0.220092    2.658602   -0.080101
      5          6           0       -0.870717    0.449484   -0.990657
      6          1           0       -1.428384    0.855550   -1.839926
      7          1           0       -0.481412   -0.521547   -1.277261
      8          6           0       -1.849566    0.317601    0.184964
      9          1           0       -1.278986   -0.071567    1.052776
     10          7           0       -2.368571    1.642136    0.504593
     11          6           0        1.570903    1.054357   -0.722588
     12          6           0        0.202464    3.845444   -0.501077
     13          6           0        2.649780    1.889815   -0.181926
     14          6           0        3.950510    1.758414   -0.430376
     15          6           0        0.262747    1.370995   -0.628473
     16          6           0        5.012148    2.606667    0.189559
     17          1           0        4.588545    3.358826    0.857433
     18          1           0        5.712111    1.993457    0.765188
     19          1           0        5.600865    3.120326   -0.576314
     20          6           0       -2.955456   -0.681163   -0.102761
     21          6           0       -3.483343    1.597454    1.431675
     22          1           0       -3.726540    2.619406    1.729372
     23          1           0       -3.223098    1.041030    2.350794
     24          6           0       -4.671890    0.952589    0.745054
     25          1           0       -5.024837    1.620644   -0.046349
     26          6           0       -4.292503   -0.380441    0.156162
     27          1           0       -5.494536    0.822932    1.453011
     28          6           0       -5.272289   -1.334455   -0.112050
     29          1           0       -6.310033   -1.092324    0.092091
     30          6           0       -2.629157   -1.946859   -0.590181
     31          1           0       -1.591678   -2.206128   -0.763016
     32          6           0       -4.942496   -2.578813   -0.619102
     33          1           0       -5.717898   -3.308098   -0.820360
     34          6           0       -3.608695   -2.889212   -0.851178
     35          1           0       -3.331557   -3.864852   -1.231579
     36         16           0        2.046897   -0.449311   -1.570195
     37          6           0        2.742540   -1.426413   -0.251819
     38          6           0        2.350696   -1.282854    1.074620
     39          6           0        2.894580   -2.105983    2.049222
     40          6           0        3.818480   -3.085332    1.710192
     41          6           0        4.202582   -3.231944    0.384353
     42          6           0        3.674380   -2.402312   -0.593806
     43          1           0        1.627352   -0.524008    1.343999
     44          1           0        2.588218   -1.983013    3.081301
     45          1           0        4.237819   -3.728098    2.474262
     46          1           0        4.926113   -3.989614    0.108048
     47          1           0        3.989845   -2.506841   -1.625340
     48          1           0        0.970775    3.936220   -1.258424
     49          1           0       -0.219340    4.762616   -0.105979
     50          1           0        2.329926    2.665113    0.505819
     51          1           0        4.281640    0.990240   -1.122114
 ---------------------------------------------------------------------

 SCF Done:  E(RHF) =  -1376.49752240     A.U. after    2 cycles

 The electronic state is 1-A.
 Alpha  occ. eigenvalues --  -93.95021 -15.49308 -11.27244 -11.27123 -11.27039
 Alpha  occ. eigenvalues --  -11.26633 -11.25910 -11.25700 -11.25015 -11.24480
 Alpha  occ. eigenvalues --  -11.24453 -11.24295 -11.24119 -11.24026 -11.23986
 Alpha  occ. eigenvalues --  -11.23964 -11.23552 -11.23516 -11.23477 -11.23453
 Alpha  occ. eigenvalues --  -11.23379 -11.23338 -11.23334 -11.23051 -11.23028
 Alpha  occ. eigenvalues --  -11.22950  -8.23137  -6.20965  -6.20796  -6.20602
 Alpha  occ. eigenvalues --   -1.25766  -1.17319  -1.15781  -1.14423  -1.09150
 Alpha  occ. eigenvalues --   -1.07124  -1.05989  -1.05709  -1.02388  -1.02031
 Alpha  occ. eigenvalues --   -1.00146  -0.97890  -0.94680  -0.93977  -0.91100
 Alpha  occ. eigenvalues --   -0.87113  -0.84796  -0.84217  -0.82811  -0.81884
 Alpha  occ. eigenvalues --   -0.79965  -0.76728  -0.75676  -0.71925  -0.71167
 Alpha  occ. eigenvalues --   -0.70096  -0.68291  -0.67401  -0.65688  -0.65480
 Alpha  occ. eigenvalues --   -0.64696  -0.63905  -0.63427  -0.62382  -0.61909
 Alpha  occ. eigenvalues --   -0.60554  -0.60385  -0.60081  -0.58630  -0.57813
 Alpha  occ. eigenvalues --   -0.57327  -0.57104  -0.56418  -0.54932  -0.54460
 Alpha  occ. eigenvalues --   -0.53696  -0.53337  -0.52686  -0.52486  -0.51986
 Alpha  occ. eigenvalues --   -0.50982  -0.50405  -0.49336  -0.48526  -0.47620
 Alpha  occ. eigenvalues --   -0.47114  -0.45751  -0.42299  -0.40525  -0.39888
 Alpha  occ. eigenvalues --   -0.38321  -0.35002  -0.33696  -0.33059  -0.31574
 Alpha  occ. eigenvalues --   -0.30402
 Alpha virt. eigenvalues --    0.02547   0.02730   0.03057   0.03481   0.03585
 Alpha virt. eigenvalues --    0.03783   0.04184   0.04402   0.04844   0.05050
 Alpha virt. eigenvalues --    0.05609   0.05684   0.05895   0.06609   0.07201

 Mulliken charges:
               1
     1  C   -1.620597
     2  H   -0.154311
     3  H    0.217144
     4  C    0.725524
     5  C   -0.784467
     6  H    0.223201
     7  H    0.269876
     8  C   -3.137925
     9  H    0.132345
    10  N    1.758663
    11  C    0.434545
    12  C    0.430432
    13  C    0.996354
    14  C   -0.295786
    15  C    0.557465
    16  C   -0.848318
    17  H    0.056961
    18  H    0.248544
    19  H    0.248091
    20  C    1.850352
    21  C   -0.424089
    22  H   -0.009458
    23  H    0.099841
    24  C   -0.427303
    25  H    0.244200
    26  C    0.666212
    27  H    0.149670
    28  C    0.396666
    29  H   -0.339494
    30  C    0.722742
    31  H   -0.328965
    32  C   -0.035027
    33  H   -0.242315
    34  C   -0.755898
    35  H   -0.308530
    36  S    0.286703
    37  C    0.688069
    38  C    0.235383
    39  C    0.081818
    40  C    0.308761
    41  C    0.165034
    42  C   -0.143659
    43  H   -0.352799
    44  H   -0.312909
    45  H   -0.244479
    46  H   -0.248041
    47  H   -0.324627
    48  H   -0.163568
    49  H   -0.231211
    50  H   -0.259247
    51  H   -0.201573
 Sum of Mulliken charges =   0.00000

 Dipole moment (field-independent basis, Debye):
    X=              0.0642    Y=              0.7102    Z=              2.2145  Tot=              2.3265

 Test job not archived.
 1\1\GINC-SE174\SP\RHF\Aug-CC-pVDZ\C24H25N1S1\OHZDE\09-Apr-2025\0\\#t h
 f aug-cc-pvdz iop(5/13=1,5/36=2,99/5=2) pseudo=read geom=check guess=(
 read,tcheck) scf=(maxcycle=1)\\title\\0,1\C,0,-1.304497,2.521784,0.958
 721\H,0,-1.729347,3.50214,1.178283\H,0,-0.852581,2.137083,1.894699\C,0
 ,-0.220092,2.658602,-0.080101\C,0,-0.870717,0.449484,-0.990657\H,0,-1.
 428384,0.85555,-1.839926\H,0,-0.481412,-0.521547,-1.277261\C,0,-1.8495
 66,0.317601,0.184964\H,0,-1.278986,-0.071567,1.052776\N,0,-2.368571,1.
 642136,0.504593\C,0,1.570903,1.054357,-0.722588\C,0,0.202464,3.845444,

 Normal termination of Gaussian 16 at Wed Apr  9 03:14:34 2025.
