 Gaussian 16, Revision C.01,

 ----------------------------------------------------------------------
 #t hf aug-cc-pvdz symm=none int=(grid=ultrafine) guess=(read,tcheck) s
 table=(opt,rrhf)
 ----------------------------------------------------------------------
 -----
 title
 -----
 Symbolic Z-matrix:
 Charge =  0 Multiplicity = 1

 SCF Done:  E(RHF) =  -678.893542095     A.U. after   15 cycles
 Normal termination of Gaussian 16 at Wed Apr  9 01:21:32 2025.
 Gaussian 16:  ES64L-G16RevC.01  3-Jul-2019

 ----------------------------------------------------------------------
 #t hf aug-cc-pvdz iop(5/13=1,5/36=2,99/5=2) pseudo=read geom=check gue
 ss=(read,tcheck) scf=(maxcycle=1)
 ----------------------------------------------------------------------
 -----
 title
 -----
 Structure from the checkpoint file:  "BH10_282_forward_mol1.chk"
 Charge =  0 Multiplicity = 1

                         Standard orientation:
 ---------------------------------------------------------------------
 Center     Atomic      Atomic             Coordinates (Angstroms)
 Number     Number       Type             X           Y           Z
 ---------------------------------------------------------------------
      1          6           0       -1.971191   -0.346818   -1.232411
      2          6           0       -0.756032    0.365443    0.971413
      3          6           0       -2.225515    1.143353   -1.552998
      4          1           0       -1.462002    1.458891   -2.270632
      5          1           0       -3.192321    1.250254   -2.059619
      6          1           0        0.151515    0.356398    1.582578
      7          1           0       -1.917903   -0.869154   -2.194055
      8          1           0        0.299287    0.116284   -1.175297
      9          6           0       -1.033066    1.847067    0.636262
     10          1           0       -0.111034    2.251862    0.209314
     11          1           0       -1.224041    2.412399    1.556396
     12          5           0       -0.552694   -0.335809   -0.450920
     13          6           0        0.876554   -1.648108   -0.258831
     14          6           0        2.147706   -1.406424   -0.067318
     15          1           0        2.788875   -2.268241    0.081883
     16          6           0       -0.291711   -2.273059   -0.341913
     17          1           0       -0.652604   -2.654366   -1.288324
     18          1           0       -0.812255   -2.576141    0.556651
     19          6           0        2.827164   -0.091441   -0.037220
     20          8           0        2.323773    0.996853   -0.047959
     21          8           0        4.156737   -0.292295    0.018535
     22          6           0        4.956766    0.892561    0.063327
     23          1           0        4.704737    1.487187    0.941190
     24          1           0        5.986185    0.548810    0.114537
     25          1           0        4.795703    1.493111   -0.831691
     26          6           0       -1.870802   -0.314617    1.784837
     27          1           0       -1.507570   -1.294801    2.120389
     28          1           0       -2.057597    0.246992    2.707720
     29          6           0       -3.095127   -0.991632   -0.404954
     30          1           0       -2.947784   -2.077854   -0.403238
     31          1           0       -4.058861   -0.832005   -0.902610
     32          6           0       -2.191158    2.093335   -0.344697
     33          1           0       -3.141700    2.038914    0.186776
     34          1           0       -2.126411    3.121841   -0.713159
     35          6           0       -3.208346   -0.502324    1.049526
     36          1           0       -3.826958   -1.209187    1.611701
     37          1           0       -3.759337    0.437374    1.069343
 ---------------------------------------------------------------------

 SCF Done:  E(RHF) =  -679.604255113     A.U. after    2 cycles

 The electronic state is 1-A.
 Alpha  occ. eigenvalues --  -20.59885 -20.54018 -11.40301 -11.33904 -11.30111
 Alpha  occ. eigenvalues --  -11.29127 -11.28407 -11.20973 -11.20753 -11.20737
 Alpha  occ. eigenvalues --  -11.20344 -11.19972 -11.19624 -11.19267 -11.17658
 Alpha  occ. eigenvalues --   -7.53941  -1.55651  -1.46125  -1.15056  -1.09904
 Alpha  occ. eigenvalues --   -1.04953  -1.02241  -1.00969  -0.97675  -0.91242
 Alpha  occ. eigenvalues --   -0.89550  -0.83856  -0.78206  -0.76903  -0.75981
 Alpha  occ. eigenvalues --   -0.75023  -0.71993  -0.70749  -0.68443  -0.67236
 Alpha  occ. eigenvalues --   -0.66523  -0.64861  -0.63042  -0.60998  -0.58673
 Alpha  occ. eigenvalues --   -0.57504  -0.57129  -0.56676  -0.56647  -0.55234
 Alpha  occ. eigenvalues --   -0.54055  -0.52873  -0.49333  -0.48790  -0.46783
 Alpha  occ. eigenvalues --   -0.46340  -0.46219  -0.45850  -0.45410  -0.44728
 Alpha  occ. eigenvalues --   -0.43268  -0.41237  -0.38788  -0.38489  -0.36608
 Alpha virt. eigenvalues --    0.02194   0.02907   0.02953   0.03889   0.04373
 Alpha virt. eigenvalues --    0.04652   0.04957   0.05316   0.05521   0.06299
 Alpha virt. eigenvalues --    0.07035   0.07237   0.07501   0.07887   0.08652

 Mulliken charges:
               1
     1  C   -0.518976
     2  C   -0.342087
     3  C   -0.318521
     4  H    0.166701
     5  H    0.086113
     6  H   -0.078232
     7  H   -0.003252
     8  H   -0.352559
     9  C   -0.350313
    10  H    0.192984
    11  H    0.088363
    12  B    1.685440
    13  C   -0.246477
    14  C    0.585226
    15  H   -0.295718
    16  C   -0.211075
    17  H    0.002286
    18  H    0.082894
    19  C    2.090155
    20  O   -1.301921
    21  O   -1.575054
    22  C    0.258461
    23  H    0.186103
    24  H   -0.016610
    25  H    0.170365
    26  C   -0.113243
    27  H    0.108055
    28  H    0.068915
    29  C   -0.167889
    30  H    0.149814
    31  H    0.097956
    32  C   -0.379822
    33  H    0.177173
    34  H    0.067789
    35  C   -0.273784
    36  H    0.048196
    37  H    0.232544
 Sum of Mulliken charges =   0.00000

 Dipole moment (field-independent basis, Debye):
    X=              2.5603    Y=             -3.0274    Z=              0.0276  Tot=              3.9650

 Test job not archived.
 1\1\GINC-SE095\SP\RHF\Aug-CC-pVDZ\C13H21B1O2\OHZDE\09-Apr-2025\0\\#t h
 f aug-cc-pvdz iop(5/13=1,5/36=2,99/5=2) pseudo=read geom=check guess=(
 read,tcheck) scf=(maxcycle=1)\\title\\0,1\C,0,-1.971191,-0.346818,-1.2
 32411\C,0,-0.756032,0.365443,0.971413\C,0,-2.225515,1.143353,-1.552998
 \H,0,-1.462002,1.458891,-2.270632\H,0,-3.192321,1.250254,-2.059619\H,0
 ,0.151515,0.356398,1.582578\H,0,-1.917903,-0.869154,-2.194055\H,0,0.29
 9287,0.116284,-1.175297\C,0,-1.033066,1.847067,0.636262\H,0,-0.111034,
 2.251862,0.209314\H,0,-1.224041,2.412399,1.556396\B,0,-0.552694,-0.335

 Normal termination of Gaussian 16 at Wed Apr  9 01:22:34 2025.
