 Gaussian 16, Revision C.01,

 ----------------------------------------------------------------------
 #t hf aug-cc-pvdz symm=none int=(grid=ultrafine) guess=(read,tcheck) s
 table=(opt,rrhf)
 ----------------------------------------------------------------------
 -----
 title
 -----
 Symbolic Z-matrix:
 Charge =  0 Multiplicity = 1

 SCF Done:  E(RHF) =  -882.420515867     A.U. after   14 cycles
 Normal termination of Gaussian 16 at Wed Apr  9 00:58:08 2025.
 Gaussian 16:  ES64L-G16RevC.01  3-Jul-2019

 ----------------------------------------------------------------------
 #t hf aug-cc-pvdz iop(5/13=1,5/36=2,99/5=2) pseudo=read geom=check gue
 ss=(read,tcheck) scf=(maxcycle=1)
 ----------------------------------------------------------------------
 -----
 title
 -----
 Structure from the checkpoint file:  "BH10-RE_128_mol3.chk"
 Charge =  0 Multiplicity = 1

                         Standard orientation:
 ---------------------------------------------------------------------
 Center     Atomic      Atomic             Coordinates (Angstroms)
 Number     Number       Type             X           Y           Z
 ---------------------------------------------------------------------
      1          6           0        2.830055    0.460317    0.001654
      2          6           0        2.401084   -0.620679    0.986220
      3          6           0        1.644037    1.159617   -0.652470
      4          6           0        1.081757   -1.259530    0.565787
      5          6           0       -0.051925   -0.219787    0.616931
      6          6           0        0.453282    1.198387    0.300082
      7          6           0       -2.749633    0.147323    0.099494
      8          6           0       -4.021773   -0.047548   -0.683510
      9          8           0       -2.667709    0.867199    1.059890
     10          1           0        2.301991   -0.178238    1.982100
     11          1           0        3.198848   -1.362619    1.048389
     12          1           0        1.378560    0.595952   -1.551389
     13          1           0        1.924139    2.161728   -0.979619
     14          1           0        0.833518   -2.110565    1.201183
     15          1           0        1.196407   -1.652780   -0.448420
     16          1           0       -0.521962   -0.218166    1.599303
     17          1           0        0.746116    1.679674    1.238659
     18          1           0       -0.353931    1.806361   -0.105090
     19          1           0       -4.851719   -0.155908    0.014691
     20          1           0       -3.974024   -0.909243   -1.348161
     21          1           0       -4.196079    0.850406   -1.280496
     22         16           0       -1.359809   -0.767533   -0.538000
     23          9           0        3.599669   -0.138492   -1.015053
     24          1           0        3.498424    1.174172    0.488076
 ---------------------------------------------------------------------

 SCF Done:  E(RHF) =  -882.975998537     A.U. after    2 cycles

 The electronic state is 1-A.
 Alpha  occ. eigenvalues --  -93.96066 -26.43409 -20.54601 -11.37234 -11.31754
 Alpha  occ. eigenvalues --  -11.27691 -11.25651 -11.24500 -11.24123 -11.24106
 Alpha  occ. eigenvalues --  -11.23630  -8.24351  -6.22153  -6.21972  -6.21803
 Alpha  occ. eigenvalues --   -1.55369  -1.49026  -1.15313  -1.08234  -1.03080
 Alpha  occ. eigenvalues --   -1.02527  -0.96319  -0.87758  -0.84170  -0.76077
 Alpha  occ. eigenvalues --   -0.74107  -0.71354  -0.68272  -0.67970  -0.64533
 Alpha  occ. eigenvalues --   -0.64179  -0.63366  -0.62161  -0.59806  -0.57978
 Alpha  occ. eigenvalues --   -0.57215  -0.55692  -0.54003  -0.53605  -0.52921
 Alpha  occ. eigenvalues --   -0.51747  -0.49790  -0.47499  -0.46220  -0.44313
 Alpha  occ. eigenvalues --   -0.40791  -0.37719
 Alpha virt. eigenvalues --    0.03158   0.03321   0.03552   0.04365   0.04851
 Alpha virt. eigenvalues --    0.05367   0.05702   0.06571   0.06750   0.07547
 Alpha virt. eigenvalues --    0.08149   0.08711   0.09620   0.11332   0.12161

 Mulliken charges:
               1
     1  C    1.134585
     2  C   -0.456904
     3  C   -0.601800
     4  C   -0.131524
     5  C   -0.557956
     6  C   -0.110899
     7  C    0.769689
     8  C   -0.512964
     9  O   -1.310187
    10  H    0.188592
    11  H    0.117189
    12  H    0.265363
    13  H    0.080125
    14  H    0.058697
    15  H    0.230455
    16  H    0.200699
    17  H    0.185161
    18  H    0.058204
    19  H    0.210063
    20  H    0.197114
    21  H    0.280321
    22  S    0.555067
    23  F   -0.893473
    24  H    0.044384
 Sum of Mulliken charges =  -0.00000

 Dipole moment (field-independent basis, Debye):
    X=             -0.9260    Y=              0.0366    Z=              0.4494  Tot=              1.0300

 Test job not archived.
 1\1\GINC-SE187\SP\RHF\Aug-CC-pVDZ\C8H13F1O1S1\OHZDE\09-Apr-2025\0\\#t
 hf aug-cc-pvdz iop(5/13=1,5/36=2,99/5=2) pseudo=read geom=check guess=
 (read,tcheck) scf=(maxcycle=1)\\title\\0,1\C,0,2.830055,0.460317,0.001
 654\C,0,2.401084,-0.620679,0.98622\C,0,1.644037,1.159617,-0.65247\C,0,
 1.081757,-1.25953,0.565787\C,0,-0.051925,-0.219787,0.616931\C,0,0.4532
 82,1.198387,0.300082\C,0,-2.749633,0.147323,0.099494\C,0,-4.021773,-0.
 047548,-0.68351\O,0,-2.667709,0.867199,1.05989\H,0,2.301991,-0.178238,
 1.9821\H,0,3.198848,-1.362619,1.048389\H,0,1.37856,0.595952,-1.551389\

 Normal termination of Gaussian 16 at Wed Apr  9 00:58:27 2025.
