 Gaussian 16, Revision C.01,

 ----------------------------------------------------------------------
 #t hf aug-cc-pvdz symm=none int=(grid=ultrafine) guess=(read,tcheck) s
 table=(opt,rrhf)
 ----------------------------------------------------------------------
 -----
 title
 -----
 Symbolic Z-matrix:
 Charge =  0 Multiplicity = 1

 SCF Done:  E(RHF) =  -1125.16563879     A.U. after   15 cycles
 Normal termination of Gaussian 16 at Wed Apr  9 02:12:07 2025.
 Gaussian 16:  ES64L-G16RevC.01  3-Jul-2019

 ----------------------------------------------------------------------
 #t hf aug-cc-pvdz iop(5/13=1,5/36=2,99/5=2) pseudo=read geom=check gue
 ss=(read,tcheck) scf=(maxcycle=1)
 ----------------------------------------------------------------------
 -----
 title
 -----
 Structure from the checkpoint file:  "BH10_297_forward_mol1.chk"
 Charge =  0 Multiplicity = 1

                         Standard orientation:
 ---------------------------------------------------------------------
 Center     Atomic      Atomic             Coordinates (Angstroms)
 Number     Number       Type             X           Y           Z
 ---------------------------------------------------------------------
      1          6           0        1.710966   -2.792700   -0.758595
      2          6           0        0.834357   -2.104453    0.314562
      3          6           0        2.827710    0.213955   -0.135770
      4          1           0        1.077283   -3.424784   -1.390719
      5          6           0        1.492524   -2.168841    1.705632
      6          1           0        0.843263   -1.661196    2.427486
      7          1           0        1.547366   -3.216762    2.024381
      8          1           0        3.420566    1.119175   -0.297496
      9          1           0       -0.077853   -2.707104    0.415037
     10          1           0       -0.266302   -0.214814    0.968700
     11          6           0        2.894806   -1.579772    1.795901
     12          1           0        3.233786   -1.656378    2.833976
     13          1           0        3.586467   -2.201336    1.220405
     14          6           0        3.042588   -0.123259    1.358114
     15          1           0        2.378805    0.499616    1.965194
     16          1           0        4.060600    0.186346    1.616995
     17          6           0        3.442057   -0.835838   -1.094191
     18          1           0        3.884038   -0.295370   -1.937501
     19          6           0        2.498838   -1.879385   -1.701841
     20          1           0        1.790054   -1.359839   -2.353383
     21          1           0        3.091851   -2.511821   -2.370964
     22          1           0        4.280353   -1.335812   -0.599025
     23          1           0        2.400035   -3.490324   -0.269046
     24          6           0        1.365978    0.565200   -0.521820
     25          1           0        1.368423    0.613492   -1.618071
     26         14           0        0.852884    2.321611   -0.052750
     27          6           0        0.466498    2.559253    1.775171
     28          1           0        1.361405    2.475054    2.395278
     29          1           0        0.046228    3.555158    1.941243
     30          1           0       -0.259258    1.828846    2.138807
     31          6           0       -0.687704    2.787701   -1.037953
     32          1           0       -0.959543    3.829094   -0.845546
     33          1           0       -0.515555    2.692538   -2.113903
     34          1           0       -1.554310    2.175477   -0.780792
     35          6           0        2.206570    3.544637   -0.523849
     36          1           0        2.509718    3.422063   -1.567343
     37          1           0        1.855788    4.572871   -0.400708
     38          1           0        3.098654    3.426975    0.095693
     39          5           0        0.350379   -0.597816   -0.006067
     40          6           0       -1.597081   -0.556274   -0.402787
     41          6           0       -2.590536   -0.354681    0.422475
     42          1           0       -2.445063   -0.112076    1.464233
     43          6           0       -0.875271   -0.823731   -1.486014
     44          1           0       -0.676075   -0.036042   -2.200522
     45          1           0       -0.728263   -1.846240   -1.807749
     46          6           0       -3.980905   -0.454737   -0.088806
     47          8           0       -4.302817   -0.716079   -1.216564
     48          8           0       -4.849938   -0.206243    0.900080
     49          6           0       -6.234399   -0.267466    0.539560
     50          1           0       -6.485752   -1.262393    0.173130
     51          1           0       -6.783275   -0.042749    1.449671
     52          1           0       -6.455642    0.465791   -0.235488
 ---------------------------------------------------------------------

 SCF Done:  E(RHF) =  -1126.07980310     A.U. after    2 cycles

 The electronic state is 1-A.
 Alpha  occ. eigenvalues --  -69.49131 -20.60578 -20.54597 -11.40893 -11.34281
 Alpha  occ. eigenvalues --  -11.30626 -11.28722 -11.28237 -11.21966 -11.21418
 Alpha  occ. eigenvalues --  -11.21204 -11.21152 -11.21018 -11.20875 -11.20790
 Alpha  occ. eigenvalues --  -11.19993 -11.19722 -11.19633 -11.19154 -11.17865
 Alpha  occ. eigenvalues --   -7.56096  -6.16217  -3.91559  -3.91551  -3.91522
 Alpha  occ. eigenvalues --   -1.56312  -1.46716  -1.15356  -1.10961  -1.05285
 Alpha  occ. eigenvalues --   -1.03953  -1.03295  -0.98337  -0.97525  -0.94081
 Alpha  occ. eigenvalues --   -0.91935  -0.91679  -0.90637  -0.86686  -0.83878
 Alpha  occ. eigenvalues --   -0.79683  -0.78200  -0.76722  -0.73163  -0.71398
 Alpha  occ. eigenvalues --   -0.71005  -0.68966  -0.67631  -0.66583  -0.65225
 Alpha  occ. eigenvalues --   -0.64179  -0.63366  -0.61325  -0.60864  -0.60152
 Alpha  occ. eigenvalues --   -0.58089  -0.57517  -0.57267  -0.57115  -0.56646
 Alpha  occ. eigenvalues --   -0.56055  -0.55677  -0.54707  -0.54382  -0.53642
 Alpha  occ. eigenvalues --   -0.53305  -0.52826  -0.51029  -0.49223  -0.48568
 Alpha  occ. eigenvalues --   -0.47519  -0.47082  -0.46913  -0.46298  -0.45700
 Alpha  occ. eigenvalues --   -0.44607  -0.43398  -0.43096  -0.42428  -0.41475
 Alpha  occ. eigenvalues --   -0.41316  -0.40107  -0.39683  -0.36725
 Alpha virt. eigenvalues --    0.02261   0.02513   0.02618   0.03459   0.03844
 Alpha virt. eigenvalues --    0.04308   0.04422   0.04591   0.04797   0.05592
 Alpha virt. eigenvalues --    0.05986   0.06202   0.06716   0.07164   0.07326

 Mulliken charges:
               1
     1  C   -0.452339
     2  C   -0.167297
     3  C   -0.133470
     4  H   -0.009027
     5  C   -0.369847
     6  H    0.206094
     7  H    0.064250
     8  H    0.065913
     9  H    0.046953
    10  H    0.042194
    11  C   -0.412744
    12  H    0.019517
    13  H    0.257145
    14  C   -0.099343
    15  H    0.161808
    16  H   -0.019354
    17  C   -0.453546
    18  H    0.039223
    19  C   -0.024271
    20  H    0.307912
    21  H   -0.053745
    22  H    0.137524
    23  H    0.115142
    24  C   -0.859071
    25  H    0.040926
    26  Si   2.072814
    27  C   -0.389019
    28  H   -0.003344
    29  H   -0.124001
    30  H    0.005898
    31  C   -0.314324
    32  H   -0.128952
    33  H    0.021325
    34  H    0.000395
    35  C   -0.461963
    36  H    0.003523
    37  H   -0.228310
    38  H   -0.049481
    39  B    1.384306
    40  C   -0.135328
    41  C    0.348846
    42  H   -0.414164
    43  C   -0.237631
    44  H    0.160982
    45  H   -0.002133
    46  C    2.432278
    47  O   -1.393203
    48  O   -1.525576
    49  C    0.172805
    50  H    0.180141
    51  H   -0.010538
    52  H    0.184106
 Sum of Mulliken charges =  -0.00000

 Dipole moment (field-independent basis, Debye):
    X=             -2.1536    Y=             -0.0013    Z=              0.4254  Tot=              2.1952

 Test job not archived.
 1\1\GINC-SE459\SP\RHF\Aug-CC-pVDZ\C17H31B1O2Si1\OHZDE\09-Apr-2025\0\\#
 t hf aug-cc-pvdz iop(5/13=1,5/36=2,99/5=2) pseudo=read geom=check gues
 s=(read,tcheck) scf=(maxcycle=1)\\title\\0,1\C,0,1.710966,-2.7927,-0.7
 58595\C,0,0.834357,-2.104453,0.314562\C,0,2.82771,0.213955,-0.13577\H,
 0,1.077283,-3.424784,-1.390719\C,0,1.492524,-2.168841,1.705632\H,0,0.8
 43263,-1.661196,2.427486\H,0,1.547366,-3.216762,2.024381\H,0,3.420566,
 1.119175,-0.297496\H,0,-0.077853,-2.707104,0.415037\H,0,-0.266302,-0.2
 14814,0.9687\C,0,2.894806,-1.579772,1.795901\H,0,3.233786,-1.656378,2.

 Normal termination of Gaussian 16 at Wed Apr  9 02:14:59 2025.
