 Gaussian 16, Revision C.01,

 ----------------------------------------------------------------------
 #t hf aug-cc-pvdz symm=none int=(grid=ultrafine) guess=(read,tcheck) s
 table=(opt,rrhf)
 ----------------------------------------------------------------------
 -----
 title
 -----
 Symbolic Z-matrix:
 Charge =  0 Multiplicity = 1

 SCF Done:  E(RHF) =  -652.084251353     A.U. after   13 cycles
 Normal termination of Gaussian 16 at Wed Apr  9 00:55:05 2025.
 Gaussian 16:  ES64L-G16RevC.01  3-Jul-2019

 ----------------------------------------------------------------------
 #t hf aug-cc-pvdz iop(5/13=1,5/36=2,99/5=2) pseudo=read geom=check gue
 ss=(read,tcheck) scf=(maxcycle=1)
 ----------------------------------------------------------------------
 -----
 title
 -----
 Structure from the checkpoint file:  "BH10_103_reverse_mol3.chk"
 Charge =  0 Multiplicity = 1

                         Standard orientation:
 ---------------------------------------------------------------------
 Center     Atomic      Atomic             Coordinates (Angstroms)
 Number     Number       Type             X           Y           Z
 ---------------------------------------------------------------------
      1          6           0       -0.380747    0.001459    0.045696
      2          6           0       -0.844677   -1.218970   -0.725290
      3          6           0       -0.887678    1.308391   -0.517167
      4          8           0       -0.750123   -0.047966    1.379864
      5          1           0       -1.935001   -1.266269   -0.683253
      6          1           0       -0.434203   -2.131542   -0.289600
      7          1           0       -0.528141   -1.165870   -1.766038
      8          1           0       -0.575186    1.428923   -1.553154
      9          1           0       -0.504853    2.139214    0.073184
     10          1           0       -1.978358    1.312671   -0.466339
     11          1           0       -0.467256   -0.885034    1.762377
     12         17           0        1.476623    0.023904   -0.055031
 ---------------------------------------------------------------------

 SCF Done:  E(RHF) =  -652.366220338     A.U. after    2 cycles

 The electronic state is 1-A.
 Alpha  occ. eigenvalues -- -105.54296 -20.57723 -11.37083 -11.24915 -11.24168
 Alpha  occ. eigenvalues --  -10.59179  -7.76092  -7.75757  -7.75749  -1.49591
 Alpha  occ. eigenvalues --   -1.10922  -0.99933  -0.97341  -0.81195  -0.70536
 Alpha  occ. eigenvalues --   -0.65441  -0.65174  -0.58510  -0.56785  -0.56305
 Alpha  occ. eigenvalues --   -0.54061  -0.51297  -0.46382  -0.44226  -0.43961
 Alpha virt. eigenvalues --    0.03441   0.04286   0.04659   0.05186   0.06718
 Alpha virt. eigenvalues --    0.07249   0.07563   0.09844   0.12263   0.12847
 Alpha virt. eigenvalues --    0.14647   0.15005   0.15800   0.16056   0.17196

 Mulliken charges:
               1
     1  C    0.201348
     2  C   -0.063618
     3  C   -0.097305
     4  O   -1.411135
     5  H    0.237343
     6  H    0.115538
     7  H    0.218006
     8  H    0.230057
     9  H    0.176599
    10  H    0.232486
    11  H    0.310419
    12  Cl  -0.149738
 Sum of Mulliken charges =   0.00000

 Dipole moment (field-independent basis, Debye):
    X=             -1.9842    Y=             -1.1851    Z=             -0.6507  Tot=              2.4010

 Test job not archived.
 1\1\GINC-SE435\SP\RHF\Aug-CC-pVDZ\C3H7Cl1O1\OHZDE\09-Apr-2025\0\\#t hf
  aug-cc-pvdz iop(5/13=1,5/36=2,99/5=2) pseudo=read geom=check guess=(r
 ead,tcheck) scf=(maxcycle=1)\\title\\0,1\C,0,-0.380747,0.001459,0.0456
 96\C,0,-0.844677,-1.21897,-0.72529\C,0,-0.887678,1.308391,-0.517167\O,
 0,-0.750123,-0.047966,1.379864\H,0,-1.935002,-1.266268,-0.683253\H,0,-
 0.434204,-2.131542,-0.2896\H,0,-0.528141,-1.16587,-1.766038\H,0,-0.575
 186,1.428923,-1.553154\H,0,-0.504852,2.139214,0.073184\H,0,-1.978358,1
 .312672,-0.466339\H,0,-0.467256,-0.885034,1.762377\Cl,0,1.476623,0.023

 Normal termination of Gaussian 16 at Wed Apr  9 00:55:09 2025.
