 Gaussian 16, Revision C.01,

 ----------------------------------------------------------------------
 #t hf aug-cc-pvdz symm=none int=(grid=ultrafine) guess=(read,tcheck) s
 table=(opt,rrhf)
 ----------------------------------------------------------------------
 -----
 title
 -----
 Symbolic Z-matrix:
 Charge =  0 Multiplicity = 1

 SCF Done:  E(RHF) =  -727.123485622     A.U. after   15 cycles
 Normal termination of Gaussian 16 at Wed Apr  9 00:59:35 2025.
 Gaussian 16:  ES64L-G16RevC.01  3-Jul-2019

 ----------------------------------------------------------------------
 #t hf aug-cc-pvdz iop(5/13=1,5/36=2,99/5=2) pseudo=read geom=check gue
 ss=(read,tcheck) scf=(maxcycle=1)
 ----------------------------------------------------------------------
 -----
 title
 -----
 Structure from the checkpoint file:  "BH10_173_reverse_mol3.chk"
 Charge =  0 Multiplicity = 1

                         Standard orientation:
 ---------------------------------------------------------------------
 Center     Atomic      Atomic             Coordinates (Angstroms)
 Number     Number       Type             X           Y           Z
 ---------------------------------------------------------------------
      1          6           0       -1.815315    0.000000    0.005602
      2          6           0       -1.150887   -1.209639   -0.001488
      3          6           0        0.236097   -1.202484   -0.013530
      4          6           0        0.936100    0.000002   -0.007742
      5          6           0        0.236096    1.202485   -0.013497
      6          6           0       -1.150890    1.209638   -0.001474
      7         16           0        2.727776    0.000028   -0.071307
      8          1           0       -1.714646   -2.133159   -0.002616
      9          1           0        0.781079   -2.137321   -0.027009
     10          1           0        0.781079    2.137322   -0.026925
     11          1           0       -1.714650    2.133158   -0.002585
     12          9           0       -3.162355   -0.000003    0.014986
     13          1           0        2.936707   -0.000437    1.257938
 ---------------------------------------------------------------------

 SCF Done:  E(RHF) =  -727.508427258     A.U. after    2 cycles

 The electronic state is 1-A.
 Alpha  occ. eigenvalues --  -93.96302 -26.48362 -11.34639 -11.28271 -11.26845
 Alpha  occ. eigenvalues --  -11.26843 -11.26029 -11.26010  -8.24347  -6.22197
 Alpha  occ. eigenvalues --   -6.22058  -6.21835  -1.61457  -1.18747  -1.07754
 Alpha  occ. eigenvalues --   -1.04872  -0.97478  -0.87968  -0.83746  -0.75646
 Alpha  occ. eigenvalues --   -0.71612  -0.68131  -0.67406  -0.63865  -0.62818
 Alpha  occ. eigenvalues --   -0.60851  -0.57610  -0.52862  -0.52723  -0.48746
 Alpha  occ. eigenvalues --   -0.38462  -0.37241  -0.35679
 Alpha virt. eigenvalues --    0.03532   0.03629   0.04142   0.05412   0.05559
 Alpha virt. eigenvalues --    0.07576   0.08534   0.09511   0.09927   0.11191
 Alpha virt. eigenvalues --    0.12305   0.12481   0.13256   0.13426   0.14352

 Mulliken charges:
               1
     1  C    1.085471
     2  C   -0.043819
     3  C    0.065717
     4  C    0.162780
     5  C    0.065737
     6  C   -0.043810
     7  S    0.032915
     8  H   -0.183490
     9  H   -0.162397
    10  H   -0.162374
    11  H   -0.183487
    12  F   -0.978364
    13  H    0.345123
 Sum of Mulliken charges =  -0.00000

 Dipole moment (field-independent basis, Debye):
    X=              0.1318    Y=             -0.0003    Z=              0.8704  Tot=              0.8803

 Test job not archived.
 1\1\GINC-SE109\SP\RHF\Aug-CC-pVDZ\C6H5F1S1\OHZDE\09-Apr-2025\0\\#t hf
 aug-cc-pvdz iop(5/13=1,5/36=2,99/5=2) pseudo=read geom=check guess=(re
 ad,tcheck) scf=(maxcycle=1)\\title\\0,1\C,0,1.815315,0.,0.005602\C,0,1
 .150887,1.209639,-0.001488\C,0,-0.236097,1.202484,-0.01353\C,0,-0.9361
 ,-0.000002,-0.007742\C,0,-0.236096,-1.202485,-0.013497\C,0,1.15089,-1.
 209638,-0.001474\S,0,-2.727776,-0.000028,-0.071307\H,0,1.714646,2.1331
 59,-0.002616\H,0,-0.781079,2.137321,-0.027009\H,0,-0.781079,-2.137322,
 -0.026925\H,0,1.71465,-2.133158,-0.002585\F,0,3.162355,0.000003,0.0149

 Normal termination of Gaussian 16 at Wed Apr  9 00:59:41 2025.
