 Gaussian 16, Revision C.01,

 ----------------------------------------------------------------------
 #t hf aug-cc-pvdz symm=none int=(grid=ultrafine) guess=(read,tcheck) s
 table=(opt,rrhf)
 ----------------------------------------------------------------------
 -----
 title
 -----
 Symbolic Z-matrix:
 Charge =  0 Multiplicity = 1

 SCF Done:  E(RHF) =  -778.934783087     A.U. after   15 cycles
 Normal termination of Gaussian 16 at Wed Apr  9 02:07:18 2025.
 Gaussian 16:  ES64L-G16RevC.01  3-Jul-2019

 ----------------------------------------------------------------------
 #t hf aug-cc-pvdz iop(5/13=1,5/36=2,99/5=2) pseudo=read geom=check gue
 ss=(read,tcheck) scf=(maxcycle=1)
 ----------------------------------------------------------------------
 -----
 title
 -----
 Structure from the checkpoint file:  "BH10_93_forward_mol1.chk"
 Charge =  0 Multiplicity = 1

                         Standard orientation:
 ---------------------------------------------------------------------
 Center     Atomic      Atomic             Coordinates (Angstroms)
 Number     Number       Type             X           Y           Z
 ---------------------------------------------------------------------
      1          6           0       -0.132916    0.495284    1.254942
      2          6           0       -0.623141    1.649136    0.707817
      3          6           0       -0.132954    0.495326   -1.254922
      4          6           0       -0.623163    1.649160   -0.707744
      5          1           0        0.075912    0.308241   -2.298220
      6          1           0       -1.066972    2.440227   -1.296375
      7          1           0       -1.066933    2.440184    1.296488
      8          1           0        0.075981    0.308165    2.298228
      9         16           0        0.924336   -0.266683   -0.000018
     10          6           0       -1.772543   -0.992009    0.687050
     11          6           0       -1.772563   -0.991986   -0.687029
     12          1           0       -1.256074   -1.777834    1.220977
     13          1           0       -1.256111   -1.777794   -1.220997
     14          1           0       -2.524502   -0.442746    1.236284
     15          1           0       -2.524539   -0.442705   -1.236222
     16          8           0        2.223203    0.394285   -0.000027
     17          8           0        0.913990   -1.721569   -0.000042
 ---------------------------------------------------------------------

 SCF Done:  E(RHF) =  -779.386349607     A.U. after    2 cycles

 The electronic state is 1-A.
 Alpha  occ. eigenvalues --  -94.19100 -20.53464 -20.53027 -11.30267 -11.30224
 Alpha  occ. eigenvalues --  -11.27723 -11.27662 -11.26312 -11.26226  -8.44388
 Alpha  occ. eigenvalues --   -6.42471  -6.42271  -6.42214  -1.54697  -1.42537
 Alpha  occ. eigenvalues --   -1.19478  -1.05017  -1.02782  -0.97839  -0.82492
 Alpha  occ. eigenvalues --   -0.80922  -0.79065  -0.74206  -0.68562  -0.64479
 Alpha  occ. eigenvalues --   -0.64478  -0.64089  -0.61666  -0.61139  -0.59147
 Alpha  occ. eigenvalues --   -0.54284  -0.53426  -0.49022  -0.48923  -0.44604
 Alpha  occ. eigenvalues --   -0.43733  -0.36271  -0.35193
 Alpha virt. eigenvalues --    0.02395   0.02814   0.03819   0.04010   0.04418
 Alpha virt. eigenvalues --    0.04975   0.05577   0.06338   0.08613   0.09850
 Alpha virt. eigenvalues --    0.10339   0.12010   0.12779   0.12877   0.13213

 Mulliken charges:
               1
     1  C   -0.393371
     2  C    0.410823
     3  C   -0.393369
     4  C    0.410824
     5  H   -0.207356
     6  H   -0.142655
     7  H   -0.142654
     8  H   -0.207356
     9  S    3.816435
    10  C    0.081186
    11  C    0.081186
    12  H    0.048398
    13  H    0.048397
    14  H   -0.037754
    15  H   -0.037754
    16  O   -1.646983
    17  O   -1.687998
 Sum of Mulliken charges =  -0.00000

 Dipole moment (field-independent basis, Debye):
    X=             -5.0272    Y=              2.5020    Z=              0.0001  Tot=              5.6154

 Test job not archived.
 1\1\GINC-SE249\SP\RHF\Aug-CC-pVDZ\C6H8O2S1\OHZDE\09-Apr-2025\0\\#t hf
 aug-cc-pvdz iop(5/13=1,5/36=2,99/5=2) pseudo=read geom=check guess=(re
 ad,tcheck) scf=(maxcycle=1)\\title\\0,1\C,0,-0.132916,0.495284,1.25494
 2\C,0,-0.623141,1.649136,0.707817\C,0,-0.132954,0.495326,-1.254922\C,0
 ,-0.623163,1.64916,-0.707744\H,0,0.075912,0.308241,-2.29822\H,0,-1.066
 972,2.440227,-1.296375\H,0,-1.066933,2.440184,1.296488\H,0,0.075981,0.
 308165,2.298228\S,0,0.924336,-0.266683,-0.000018\C,0,-1.772543,-0.9920
 09,0.68705\C,0,-1.772563,-0.991986,-0.687029\H,0,-1.256074,-1.777834,1

 Normal termination of Gaussian 16 at Wed Apr  9 02:07:27 2025.
