 Gaussian 16, Revision C.01,

 ----------------------------------------------------------------------
 #t hf aug-cc-pvdz symm=none int=(grid=ultrafine) guess=(read,tcheck) s
 table=(opt,rrhf)
 ----------------------------------------------------------------------
 -----
 title
 -----
 Symbolic Z-matrix:
 Charge =  0 Multiplicity = 1

 SCF Done:  E(RHF) =  -693.164090879     A.U. after   12 cycles
 Normal termination of Gaussian 16 at Wed Apr  9 01:16:48 2025.
 Gaussian 16:  ES64L-G16RevC.01  3-Jul-2019

 ----------------------------------------------------------------------
 #t hf aug-cc-pvdz iop(5/13=1,5/36=2,99/5=2) pseudo=read geom=check gue
 ss=(read,tcheck) scf=(maxcycle=1)
 ----------------------------------------------------------------------
 -----
 title
 -----
 Structure from the checkpoint file:  "BH10_305_reverse_mol3.chk"
 Charge =  0 Multiplicity = 1

                         Standard orientation:
 ---------------------------------------------------------------------
 Center     Atomic      Atomic             Coordinates (Angstroms)
 Number     Number       Type             X           Y           Z
 ---------------------------------------------------------------------
      1          6           0       -0.502912    0.507249    0.000000
      2          6           0        0.161190   -0.020589    1.260541
      3         17           0       -0.479661    2.322932    0.000000
      4          6           0        0.161190   -0.020589   -1.260541
      5          6           0        0.161190   -1.551374    1.259575
      6          6           0        0.821970   -2.108825   -0.000000
      7          6           0        0.161190   -1.551374   -1.259575
      8          1           0       -0.352609    0.367329    2.142024
      9          1           0        1.190039    0.351466    1.296694
     10          1           0        1.190039    0.351466   -1.296694
     11          1           0       -0.352609    0.367329   -2.142024
     12          1           0       -0.871203   -1.915200    1.318859
     13          1           0        0.670738   -1.916679    2.154391
     14          1           0        0.775953   -3.200735   -0.000000
     15          1           0        1.884249   -1.838633   -0.000000
     16          1           0       -0.871203   -1.915200   -1.318859
     17          1           0        0.670738   -1.916679   -2.154391
     18          1           0       -1.562808    0.248707    0.000000
 ---------------------------------------------------------------------

 SCF Done:  E(RHF) =  -693.498394362     A.U. after    2 cycles

 The electronic state is 1-A'.
 Alpha  occ. eigenvalues -- -105.54296 -11.29881 -11.23839 -11.23813 -11.23644
 Alpha  occ. eigenvalues --  -11.23626 -11.23343 -10.59123  -7.76058  -7.75707
 Alpha  occ. eigenvalues --   -7.75701  -1.15421  -1.06911  -1.02110  -0.96873
 Alpha  occ. eigenvalues --   -0.85305  -0.82771  -0.77593  -0.67146  -0.63074
 Alpha  occ. eigenvalues --   -0.62409  -0.61965  -0.56328  -0.55218  -0.54534
 Alpha  occ. eigenvalues --   -0.52003  -0.50587  -0.47529  -0.46618  -0.46012
 Alpha  occ. eigenvalues --   -0.43054  -0.42754
 Alpha virt. eigenvalues --    0.03301   0.03383   0.03427   0.04433   0.05874
 Alpha virt. eigenvalues --    0.06009   0.06466   0.06761   0.07172   0.09276
 Alpha virt. eigenvalues --    0.09390   0.10940   0.13480   0.13570   0.14419

 Mulliken charges:
               1
     1  C   -0.449960
     2  C   -0.118909
     3  Cl  -0.100038
     4  C   -0.118909
     5  C   -0.237478
     6  C   -0.256817
     7  C   -0.237478
     8  H    0.111938
     9  H    0.202065
    10  H    0.202065
    11  H    0.111938
    12  H    0.152959
    13  H    0.097744
    14  H    0.113292
    15  H    0.153570
    16  H    0.152959
    17  H    0.097744
    18  H    0.123315
 Sum of Mulliken charges =  -0.00000

 Dipole moment (field-independent basis, Debye):
    X=              0.2226    Y=             -2.7863    Z=             -0.0000  Tot=              2.7952

 Test job not archived.
 1\1\GINC-SE402\SP\RHF\Aug-CC-pVDZ\C6H11Cl1\OHZDE\09-Apr-2025\0\\#t hf
 aug-cc-pvdz iop(5/13=1,5/36=2,99/5=2) pseudo=read geom=check guess=(re
 ad,tcheck) scf=(maxcycle=1)\\title\\0,1\C,0,-0.60927,0.,0.372843\C,0,0
 .057091,1.260541,-0.152141\Cl,0,-2.370987,0.,-0.067158\C,0,0.057091,-1
 .260541,-0.152141\C,0,1.546883,1.259575,0.199742\C,0,2.2413,0.,-0.3152
 01\C,0,1.546883,-1.259575,0.199742\H,0,-0.438547,2.142024,0.258728\H,0
 ,-0.068499,1.296694,-1.238963\H,0,-0.068499,-1.296694,-1.238963\H,0,-0
 .438547,-2.142024,0.258728\H,0,1.663649,1.318859,1.288122\H,0,2.019536

 Normal termination of Gaussian 16 at Wed Apr  9 01:16:53 2025.
