 Gaussian 16, Revision C.01,

 ----------------------------------------------------------------------
 #t hf aug-cc-pvdz symm=none int=(grid=ultrafine) guess=(read,tcheck) s
 table=(opt,rrhf)
 ----------------------------------------------------------------------
 -----
 title
 -----
 Symbolic Z-matrix:
 Charge =  0 Multiplicity = 1

 SCF Done:  E(RHF) =  -420.789369903     A.U. after   13 cycles
 Normal termination of Gaussian 16 at Wed Apr  9 02:08:15 2025.
 Gaussian 16:  ES64L-G16RevC.01  3-Jul-2019

 ----------------------------------------------------------------------
 #t hf aug-cc-pvdz iop(5/13=1,5/36=2,99/5=2) pseudo=read geom=check gue
 ss=(read,tcheck) scf=(maxcycle=1)
 ----------------------------------------------------------------------
 -----
 title
 -----
 Structure from the checkpoint file:  "BH10_99_forward_mol2.chk"
 Charge =  0 Multiplicity = 1

                         Standard orientation:
 ---------------------------------------------------------------------
 Center     Atomic      Atomic             Coordinates (Angstroms)
 Number     Number       Type             X           Y           Z
 ---------------------------------------------------------------------
      1          6           0       -0.285603    0.383929   -0.658697
      2          6           0        1.048336    0.027845   -0.005033
      3          8           0        1.491756   -1.181264   -0.397078
      4          8           0        1.660603    0.737222    0.741152
      5          6           0       -1.311899   -0.707010   -0.426580
      6          1           0       -0.096088    0.400766   -1.738681
      7          7           0       -0.816255    1.660898   -0.246853
      8          1           0        2.339468   -1.340862    0.041317
      9          1           0       -0.119546    2.389925   -0.339623
     10          1           0       -1.079345    1.627333    0.732084
     11          1           0       -2.250406   -0.438794   -0.910782
     12          9           0       -1.560957   -0.807101    0.944686
     13          1           0       -0.955563   -1.676988   -0.769256
 ---------------------------------------------------------------------

 SCF Done:  E(RHF) =  -421.205957430     A.U. after    2 cycles

 The electronic state is 1-A.
 Alpha  occ. eigenvalues --  -26.45595 -20.61256 -20.54956 -15.49891 -11.40079
 Alpha  occ. eigenvalues --  -11.33290 -11.29952  -1.57736  -1.56322  -1.46789
 Alpha  occ. eigenvalues --   -1.21239  -1.03895  -0.92192  -0.82367  -0.74493
 Alpha  occ. eigenvalues --   -0.73608  -0.72212  -0.69110  -0.67608  -0.64811
 Alpha  occ. eigenvalues --   -0.64130  -0.61196  -0.58421  -0.53623  -0.52628
 Alpha  occ. eigenvalues --   -0.48834  -0.47569  -0.44232
 Alpha virt. eigenvalues --    0.03342   0.03963   0.04736   0.05189   0.06414
 Alpha virt. eigenvalues --    0.07535   0.09740   0.10601   0.10980   0.13288
 Alpha virt. eigenvalues --    0.13996   0.14222   0.14651   0.15666   0.16749

 Mulliken charges:
               1
     1  C   -2.122085
     2  C    2.572603
     3  O   -1.291150
     4  O   -1.216507
     5  C    0.855291
     6  H    0.259164
     7  N    0.640315
     8  H    0.380617
     9  H    0.168234
    10  H    0.248471
    11  H    0.129529
    12  F   -0.727361
    13  H    0.102880
 Sum of Mulliken charges =  -0.00000

 Dipole moment (field-independent basis, Debye):
    X=              0.6901    Y=             -1.1655    Z=             -2.0131  Tot=              2.4264

 Test job not archived.
 1\1\GINC-SE345\SP\RHF\Aug-CC-pVDZ\C3H6F1N1O2\OHZDE\09-Apr-2025\0\\#t h
 f aug-cc-pvdz iop(5/13=1,5/36=2,99/5=2) pseudo=read geom=check guess=(
 read,tcheck) scf=(maxcycle=1)\\title\\0,1\C,0,-0.285603,0.383929,-0.65
 8697\C,0,1.048336,0.027845,-0.005033\O,0,1.491756,-1.181264,-0.397078\
 O,0,1.660603,0.737222,0.741152\C,0,-1.311899,-0.70701,-0.42658\H,0,-0.
 096088,0.400766,-1.738681\N,0,-0.816255,1.660898,-0.246853\H,0,2.33946
 8,-1.340862,0.041317\H,0,-0.119545,2.389925,-0.339623\H,0,-1.079345,1.
 627333,0.732084\H,0,-2.250406,-0.438793,-0.910782\F,0,-1.560957,-0.807

 Normal termination of Gaussian 16 at Wed Apr  9 02:08:20 2025.
