 Gaussian 16, Revision C.01,

 ----------------------------------------------------------------------
 #t hf aug-cc-pvdz symm=none int=(grid=ultrafine) guess=(read,tcheck) s
 table=(opt,rrhf)
 ----------------------------------------------------------------------
 -----
 title
 -----
 Symbolic Z-matrix:
 Charge =  0 Multiplicity = 1

 SCF Done:  E(RHF) =  -1512.97738407     A.U. after   12 cycles
 Normal termination of Gaussian 16 at Wed Apr  9 01:27:45 2025.
 Gaussian 16:  ES64L-G16RevC.01  3-Jul-2019

 ----------------------------------------------------------------------
 #t hf aug-cc-pvdz iop(5/13=1,5/36=2,99/5=2) pseudo=read geom=check gue
 ss=(read,tcheck) scf=(maxcycle=1)
 ----------------------------------------------------------------------
 -----
 title
 -----
 Structure from the checkpoint file:  "BH10_293_forward_mol2.chk"
 Charge =  0 Multiplicity = 1

                         Standard orientation:
 ---------------------------------------------------------------------
 Center     Atomic      Atomic             Coordinates (Angstroms)
 Number     Number       Type             X           Y           Z
 ---------------------------------------------------------------------
      1         14           0       -0.001297   -0.000582   -0.783101
      2         14           0        1.120783    1.922582   -0.042876
      3         14           0        1.106070   -1.931925   -0.042894
      4         14           0       -2.227730    0.008606   -0.043123
      5          6           0       -2.988203    1.722644   -0.233086
      6          1           0       -4.037014    1.716141    0.077277
      7          1           0       -2.466529    2.461782    0.379202
      8          1           0       -2.949795    2.063602   -1.270349
      9          6           0       -3.247251   -1.224860   -1.035366
     10          1           0       -2.848494   -2.237489   -0.944073
     11          1           0       -4.284238   -1.240245   -0.687641
     12          1           0       -3.254308   -0.966078   -2.096720
     13          6           0       -2.280186   -0.474708    1.778492
     14          1           0       -1.673126    0.196245    2.390445
     15          1           0       -3.304984   -0.435447    2.158353
     16          1           0       -1.909656   -1.490738    1.932746
     17          6           0        0.005886   -3.450464   -0.232662
     18          1           0        0.539673   -4.353886    0.076098
     19          1           0       -0.894510   -3.372145    0.380913
     20          1           0       -0.309511   -3.588103   -1.269585
     21          6           0        2.685484   -2.196542   -1.033354
     22          1           0        3.360670   -1.342738   -0.944209
     23          1           0        3.219567   -3.084241   -0.682248
     24          1           0        2.466262   -2.336091   -2.094440
     25          6           0        1.548832   -1.734090    1.779144
     26          1           0        0.663390   -1.544536    2.390055
     27          1           0        2.027661   -2.640653    2.159902
     28          1           0        2.242646   -0.904592    1.933882
     29          6           0        2.985585    1.724080   -0.230266
     30          1           0        3.502675    2.637073    0.078732
     31          1           0        3.365590    0.904464    0.383854
     32          1           0        3.262879    1.518898   -1.266923
     33          6           0        0.567003    3.423871   -1.035602
     34          1           0       -0.509540    3.585843   -0.949334
     35          1           0        1.071161    4.328613   -0.683761
     36          1           0        0.799870    3.302416   -2.096039
     37          6           0        0.725667    2.211638    1.777930
     38          1           0        1.276367    3.076505    2.158513
     39          1           0       -0.338658    2.405740    1.929337
     40          1           0        0.996364    1.349248    2.391207
     41          1           0       -0.000875   -0.000538   -2.278651
 ---------------------------------------------------------------------

 SCF Done:  E(RHF) =  -1513.51448084     A.U. after    2 cycles

 The electronic state is 1-A.
 Alpha  occ. eigenvalues --  -69.50420 -69.50416 -69.50416 -69.47940 -11.20827
 Alpha  occ. eigenvalues --  -11.20823 -11.20821 -11.20785 -11.20781 -11.20779
 Alpha  occ. eigenvalues --  -11.20616 -11.20612 -11.20609  -6.17520  -6.17508
 Alpha  occ. eigenvalues --   -6.17506  -6.15502  -3.92836  -3.92833  -3.92831
 Alpha  occ. eigenvalues --   -3.92830  -3.92827  -3.92825  -3.92823  -3.92822
 Alpha  occ. eigenvalues --   -3.92822  -3.90790  -3.90759  -3.90759  -0.98313
 Alpha  occ. eigenvalues --   -0.97407  -0.97403  -0.93028  -0.92693  -0.92692
 Alpha  occ. eigenvalues --   -0.92310  -0.92307  -0.92097  -0.74134  -0.64338
 Alpha  occ. eigenvalues --   -0.64332  -0.60537  -0.58071  -0.58064  -0.57361
 Alpha  occ. eigenvalues --   -0.56963  -0.56959  -0.56525  -0.56143  -0.56139
 Alpha  occ. eigenvalues --   -0.55647  -0.54787  -0.54618  -0.54615  -0.54219
 Alpha  occ. eigenvalues --   -0.54216  -0.53955  -0.53453  -0.53446  -0.53446
 Alpha  occ. eigenvalues --   -0.45151  -0.44292  -0.44290  -0.43716  -0.43712
 Alpha  occ. eigenvalues --   -0.43421  -0.41514  -0.35283  -0.35277
 Alpha virt. eigenvalues --    0.02900   0.02902   0.03016   0.03384   0.04652
 Alpha virt. eigenvalues --    0.04653   0.05133   0.05135   0.05160   0.06780
 Alpha virt. eigenvalues --    0.06907   0.07271   0.07272   0.07505   0.07507

 Mulliken charges:
               1
     1  Si  -0.439427
     2  Si   2.709978
     3  Si   2.711777
     4  Si   2.708437
     5  C   -0.552503
     6  H   -0.125437
     7  H   -0.107662
     8  H   -0.063865
     9  C   -0.610998
    10  H   -0.095390
    11  H   -0.089603
    12  H   -0.099809
    13  C   -0.358458
    14  H   -0.061897
    15  H   -0.113856
    16  H   -0.104729
    17  C   -0.552955
    18  H   -0.125854
    19  H   -0.107397
    20  H   -0.063712
    21  C   -0.610699
    22  H   -0.096498
    23  H   -0.088497
    24  H   -0.100967
    25  C   -0.356577
    26  H   -0.062889
    27  H   -0.113384
    28  H   -0.105514
    29  C   -0.551163
    30  H   -0.126101
    31  H   -0.108402
    32  H   -0.062942
    33  C   -0.610561
    34  H   -0.095829
    35  H   -0.089037
    36  H   -0.100708
    37  C   -0.356648
    38  H   -0.113554
    39  H   -0.106470
    40  H   -0.061507
    41  H   -0.538693
 Sum of Mulliken charges =  -0.00000

 Dipole moment (field-independent basis, Debye):
    X=             -0.0033    Y=             -0.0015    Z=              0.4320  Tot=              0.4320

 Test job not archived.
 1\1\GINC-SE045\SP\RHF\Aug-CC-pVDZ\C9H28Si4\OHZDE\09-Apr-2025\0\\#t hf
 aug-cc-pvdz iop(5/13=1,5/36=2,99/5=2) pseudo=read geom=check guess=(re
 ad,tcheck) scf=(maxcycle=1)\\title\\0,1\Si,0,0.001297,0.000582,-0.7831
 01\Si,0,-1.120691,-1.922635,-0.042876\Si,0,-1.106162,1.931872,-0.04289
 4\Si,0,2.227731,-0.0085,-0.043123\C,0,2.988285,-1.722501,-0.233086\H,0
 ,4.037096,-1.715948,0.077277\H,0,2.466647,-2.461664,0.379202\H,0,2.949
 894,-2.063461,-1.270349\C,0,3.247193,1.225015,-1.035366\H,0,2.848387,2
 .237625,-0.944073\H,0,4.284179,1.24045,-0.687641\H,0,3.254262,0.966233

 Normal termination of Gaussian 16 at Wed Apr  9 01:29:00 2025.
