 Gaussian 16, Revision C.01,

 ----------------------------------------------------------------------
 #t hf aug-cc-pvdz symm=none int=(grid=ultrafine) guess=(read,tcheck) s
 table=(opt,rrhf)
 ----------------------------------------------------------------------
 -----
 title
 -----
 Symbolic Z-matrix:
 Charge =  0 Multiplicity = 1

 SCF Done:  E(RHF) =  -842.589272331     A.U. after   16 cycles
 Normal termination of Gaussian 16 at Wed Apr  9 00:55:54 2025.
 Gaussian 16:  ES64L-G16RevC.01  3-Jul-2019

 ----------------------------------------------------------------------
 #t hf aug-cc-pvdz iop(5/13=1,5/36=2,99/5=2) pseudo=read geom=check gue
 ss=(read,tcheck) scf=(maxcycle=1)
 ----------------------------------------------------------------------
 -----
 title
 -----
 Structure from the checkpoint file:  "BH10-RE_117_mol3.chk"
 Charge =  0 Multiplicity = 1

                         Standard orientation:
 ---------------------------------------------------------------------
 Center     Atomic      Atomic             Coordinates (Angstroms)
 Number     Number       Type             X           Y           Z
 ---------------------------------------------------------------------
      1          6           0       -2.414060   -0.066162    0.803693
      2          6           0       -0.954872    0.052425    0.523914
      3          6           0       -0.145172   -1.072174    0.480287
      4          6           0       -0.371240    1.299392    0.292479
      5          1           0       -0.579262   -2.050844    0.652400
      6          6           0        1.215739   -0.975597    0.214845
      7          6           0        0.976768    1.414784    0.027967
      8          6           0        1.779867    0.274597   -0.013579
      9          1           0       -0.987872    2.190968    0.316417
     10          1           0        1.816472   -1.873371    0.190562
     11          1           0        1.437454    2.377787   -0.150528
     12          8           0        3.092792    0.485170   -0.279737
     13          6           0        3.953599   -0.633752   -0.345960
     14          1           0        4.941057   -0.239906   -0.574642
     15          1           0        3.647197   -1.324643   -1.137062
     16          1           0        3.988654   -1.165854    0.609488
     17          1           0       -2.802056    0.807264    1.321088
     18          1           0       -2.645999   -0.958768    1.378308
     19         17           0       -3.400103   -0.200298   -0.721766
 ---------------------------------------------------------------------

 SCF Done:  E(RHF) =  -843.060806478     A.U. after    2 cycles

 The electronic state is 1-A.
 Alpha  occ. eigenvalues -- -105.54770 -20.57825 -11.31333 -11.30688 -11.29992
 Alpha  occ. eigenvalues --  -11.25481 -11.25304 -11.24720 -11.24419 -11.24046
 Alpha  occ. eigenvalues --  -10.59576  -7.76511  -7.76143  -7.76137  -1.50785
 Alpha  occ. eigenvalues --   -1.17336  -1.10129  -1.03492  -1.02379  -0.96181
 Alpha  occ. eigenvalues --   -0.89775  -0.85547  -0.81036  -0.73697  -0.70041
 Alpha  occ. eigenvalues --   -0.67120  -0.66512  -0.63638  -0.62393  -0.61063
 Alpha  occ. eigenvalues --   -0.58416  -0.57724  -0.54736  -0.53385  -0.53014
 Alpha  occ. eigenvalues --   -0.49464  -0.47244  -0.43978  -0.43812  -0.35938
 Alpha  occ. eigenvalues --   -0.32319
 Alpha virt. eigenvalues --    0.03123   0.03477   0.03789   0.04643   0.05100
 Alpha virt. eigenvalues --    0.05139   0.06923   0.07851   0.08502   0.09088
 Alpha virt. eigenvalues --    0.09715   0.10044   0.10430   0.11988   0.12767

 Mulliken charges:
               1
     1  C   -0.758957
     2  C    1.361435
     3  C    0.167696
     4  C    0.469441
     5  H   -0.285786
     6  C   -0.117278
     7  C   -0.036803
     8  C    1.640372
     9  H   -0.298677
    10  H   -0.437952
    11  H   -0.300155
    12  O   -1.873501
    13  C    0.105415
    14  H   -0.040453
    15  H    0.183110
    16  H    0.182038
    17  H    0.072779
    18  H    0.054095
    19  Cl  -0.086819
 Sum of Mulliken charges =  -0.00000

 Dipole moment (field-independent basis, Debye):
    X=              2.4221    Y=             -0.9749    Z=              1.6773  Tot=              3.1033

 Test job not archived.
 1\1\GINC-SE424\SP\RHF\Aug-CC-pVDZ\C8H9Cl1O1\OHZDE\09-Apr-2025\0\\#t hf
  aug-cc-pvdz iop(5/13=1,5/36=2,99/5=2) pseudo=read geom=check guess=(r
 ead,tcheck) scf=(maxcycle=1)\\title\\0,1\C,0,-2.41406,-0.066162,0.8036
 93\C,0,-0.954872,0.052425,0.523914\C,0,-0.145172,-1.072174,0.480287\C,
 0,-0.37124,1.299392,0.292479\H,0,-0.579262,-2.050844,0.6524\C,0,1.2157
 39,-0.975597,0.214845\C,0,0.976768,1.414784,0.027967\C,0,1.779867,0.27
 4597,-0.013579\H,0,-0.987872,2.190968,0.316417\H,0,1.816472,-1.873371,
 0.190562\H,0,1.437454,2.377787,-0.150528\O,0,3.092792,0.48517,-0.27973

 Normal termination of Gaussian 16 at Wed Apr  9 00:56:04 2025.
