 Gaussian 16, Revision C.01,

 ----------------------------------------------------------------------
 #t hf aug-cc-pvdz symm=none int=(grid=ultrafine) guess=(read,tcheck) s
 table=opt
 ----------------------------------------------------------------------
 -----
 title
 -----
 Symbolic Z-matrix:
 Charge =  0 Multiplicity = 2

 SCF Done:  E(UHF) =  -1465.23720462     A.U. after   18 cycles

 1\1\GINC-SE074\Stability\UHF\Aug-CC-pVDZ\C7H13S3\OHZDE\09-Apr-2025\0\\
 #t hf aug-cc-pvdz symm=none int=(grid=ultrafine) guess=(read,tcheck) s
 table=opt\\title\\0,2\C,0,0.262198,-1.907548,0.57679\H,0,0.271418,-2.6
 10818,-0.261651\H,0,-0.108039,-2.47985,1.438634\C,0,1.701787,-1.456627
 ,0.871813\H,0,1.691184,-0.654355,1.614594\C,0,2.032275,0.209945,-1.097
 733\H,0,2.671658,0.379787,-1.965432\H,0,2.223966,-2.293418,1.344053\H,
 0,1.015354,0.092513,-1.46596\C,0,2.512615,-1.031244,-0.352149\H,0,3.54
 9107,-0.870058,-0.043778\H,0,2.524879,-1.86181,-1.068751\C,0,-0.691771

 Normal termination of Gaussian 16 at Wed Apr  9 01:03:42 2025.
 Gaussian 16:  ES64L-G16RevC.01  3-Jul-2019

 ----------------------------------------------------------------------
 #t hf aug-cc-pvdz iop(5/13=1,5/36=2,99/5=2) pseudo=read geom=check gue
 ss=(read,tcheck) scf=(maxcycle=1)
 ----------------------------------------------------------------------
 -----
 title
 -----
 Structure from the checkpoint file:  "BH10_168_reverse_mol2.chk"
 Charge =  0 Multiplicity = 2

                         Standard orientation:
 ---------------------------------------------------------------------
 Center     Atomic      Atomic             Coordinates (Angstroms)
 Number     Number       Type             X           Y           Z
 ---------------------------------------------------------------------
      1          6           0        0.262198   -1.907548    0.576790
      2          1           0        0.271418   -2.610818   -0.261651
      3          1           0       -0.108039   -2.479850    1.438634
      4          6           0        1.701787   -1.456627    0.871813
      5          1           0        1.691184   -0.654355    1.614594
      6          6           0        2.032275    0.209945   -1.097733
      7          1           0        2.671658    0.379787   -1.965432
      8          1           0        2.223966   -2.293418    1.344053
      9          1           0        1.015354    0.092513   -1.465960
     10          6           0        2.512615   -1.031244   -0.352149
     11          1           0        3.549107   -0.870057   -0.043778
     12          1           0        2.524879   -1.861810   -1.068751
     13          6           0       -0.691771   -0.802544    0.262793
     14          6           0       -1.923692    1.476548    0.214450
     15          6           0       -2.746329    0.579656   -0.696324
     16          1           0       -2.550668    2.197777    0.738040
     17          1           0       -1.148979    2.005454   -0.341843
     18          1           0       -3.646739    0.232451   -0.190349
     19          1           0       -3.025905    1.094421   -1.615323
     20         16           0       -1.130254    0.402646    1.452016
     21         16           0       -1.733789   -0.872491   -1.144849
     22         16           0        2.141686    1.774465   -0.158766
     23          1           0        1.207974    1.484867    0.765513
 ---------------------------------------------------------------------

 SCF Done:  E(UHF) =  -1465.70720114     A.U. after    2 cycles

 The electronic state is 2-A.
 Alpha  occ. eigenvalues --  -93.96293 -93.96154 -93.93503 -11.28772 -11.28651
 Alpha  occ. eigenvalues --  -11.28601 -11.26108 -11.24906 -11.23584 -11.23558
 Alpha  occ. eigenvalues --   -8.24403  -8.24268  -8.21604  -6.22163  -6.22043
 Alpha  occ. eigenvalues --   -6.22041  -6.21952  -6.21905  -6.21825  -6.19462
 Alpha  occ. eigenvalues --   -6.19318  -6.19106  -1.18439  -1.10789  -1.06274
 Alpha  occ. eigenvalues --   -1.02965  -1.00844  -0.94454  -0.87798  -0.83075
 Alpha  occ. eigenvalues --   -0.79122  -0.74684  -0.67391  -0.66296  -0.65420
 Alpha  occ. eigenvalues --   -0.62351  -0.60127  -0.58818  -0.57055  -0.55338
 Alpha  occ. eigenvalues --   -0.54737  -0.53191  -0.50751  -0.49541  -0.49102
 Alpha  occ. eigenvalues --   -0.47318  -0.46032  -0.44780  -0.44292  -0.37413
 Alpha  occ. eigenvalues --   -0.35471  -0.28064
 Alpha virt. eigenvalues --    0.03052   0.03554   0.03685   0.04257   0.05015
 Alpha virt. eigenvalues --    0.05174   0.05544   0.06725   0.07062   0.08150
 Alpha virt. eigenvalues --    0.08323   0.08817   0.09424   0.10701   0.11199

  Beta  occ. eigenvalues --  -93.96298 -93.96122 -93.93504 -11.28623 -11.28600
  Beta  occ. eigenvalues --  -11.26137 -11.26100 -11.25218 -11.23573 -11.23446
  Beta  occ. eigenvalues --   -8.24410  -8.24231  -8.21606  -6.22313  -6.22143
  Beta  occ. eigenvalues --   -6.22132  -6.21952  -6.21726  -6.21501  -6.19465
  Beta  occ. eigenvalues --   -6.19323  -6.19107  -1.16625  -1.10565  -1.05257
  Beta  occ. eigenvalues --   -1.02575  -0.99642  -0.94341  -0.87502  -0.82872
  Beta  occ. eigenvalues --   -0.78569  -0.71125  -0.66871  -0.65558  -0.64951
  Beta  occ. eigenvalues --   -0.62057  -0.59662  -0.57906  -0.56700  -0.54708
  Beta  occ. eigenvalues --   -0.54105  -0.50422  -0.49940  -0.49071  -0.48584
  Beta  occ. eigenvalues --   -0.47138  -0.44743  -0.44223  -0.40648  -0.35664
  Beta  occ. eigenvalues --   -0.35142
  Beta virt. eigenvalues --    0.03061   0.03470   0.03647   0.04270   0.05025
  Beta virt. eigenvalues --    0.05167   0.05539   0.06745   0.07077   0.08164
  Beta virt. eigenvalues --    0.08331   0.08847   0.09499   0.10240   0.10935

 Mulliken charges and spin densities:
               1          2
     1  C   -0.658284  -0.287391
     2  H    0.201593  -0.004468
     3  H    0.149608   0.034910
     4  C   -0.204214   0.029427
     5  H    0.176424  -0.004310
     6  C   -0.530488   0.005655
     7  H    0.180370   0.003809
     8  H    0.131195  -0.001970
     9  H    0.194313  -0.024463
    10  C   -0.405492   0.000737
    11  H    0.121727  -0.000013
    12  H    0.161173   0.000424
    13  C    0.009361   1.314606
    14  C   -0.586068  -0.015898
    15  C   -0.551818  -0.020629
    16  H    0.177731  -0.000622
    17  H    0.147233  -0.001065
    18  H    0.187300  -0.006169
    19  H    0.212228   0.000404
    20  S    0.244715  -0.033897
    21  S    0.322241   0.010112
    22  S   -0.132013   0.003953
    23  H    0.451165  -0.003142
 Sum of Mulliken charges =   0.00000   1.00000

 Dipole moment (field-independent basis, Debye):
    X=             -1.5893    Y=             -0.5744    Z=             -0.4616  Tot=              1.7518
                          Isotropic Fermi Contact Couplings
        Atom                 a.u.       MegaHertz       Gauss      10(-4) cm-1
     1  C(13)             -0.05559     -62.49782     -22.30077     -20.84703
     2  H(1)               0.00215       9.60078       3.42580       3.20248
     3  H(1)               0.01810      80.90863      28.87021      26.98821
     4  C(13)              0.02789      31.35380      11.18782      10.45850
     5  H(1)              -0.00103      -4.59708      -1.64035      -1.53342
     6  C(13)              0.00130       1.45800       0.52025       0.48634
     7  H(1)               0.00082       3.65730       1.30501       1.21994
     8  H(1)              -0.00064      -2.87842      -1.02709      -0.96014

 Normal termination of Gaussian 16 at Wed Apr  9 01:04:02 2025.
