 Gaussian 16, Revision C.01,

 ----------------------------------------------------------------------
 #t hf aug-cc-pvdz symm=none int=(grid=ultrafine) guess=(read,tcheck) s
 table=opt
 ----------------------------------------------------------------------
 -----
 title
 -----
 Symbolic Z-matrix:
 Charge =  0 Multiplicity = 2

 SCF Done:  E(UHF) =  -558.544165738     A.U. after   23 cycles
 Normal termination of Gaussian 16 at Wed Apr  9 01:03:16 2025.
 Gaussian 16:  ES64L-G16RevC.01  3-Jul-2019

 ----------------------------------------------------------------------
 #t hf aug-cc-pvdz iop(5/13=1,5/36=2,99/5=2) pseudo=read geom=check gue
 ss=(read,tcheck) scf=(maxcycle=1)
 ----------------------------------------------------------------------
 -----
 title
 -----
 Structure from the checkpoint file:  "BH10_273_forward_mol1.chk"
 Charge =  0 Multiplicity = 2

                         Standard orientation:
 ---------------------------------------------------------------------
 Center     Atomic      Atomic             Coordinates (Angstroms)
 Number     Number       Type             X           Y           Z
 ---------------------------------------------------------------------
      1          6           0        1.015292    0.273427    1.820316
      2          1           0        1.990610    0.745535    1.972916
      3          1           0        0.253249    0.924844    2.252571
      4          1           0        1.005932   -0.666822    2.375086
      5          6           0        1.911730   -1.223986   -0.749669
      6          1           0        1.895592   -2.179387   -0.221432
      7          1           0        1.686205   -1.416860   -1.800422
      8          1           0        2.930242   -0.827737   -0.692902
      9          6           0        0.650208    1.601938   -0.955633
     10          1           0        1.619214    2.107644   -0.903221
     11          1           0        0.418447    1.435242   -2.009795
     12          1           0       -0.101404    2.279567   -0.545339
     13         14           0        0.693988   -0.011696   -0.001610
     14          1           0       -0.840200   -0.650255   -0.119404
     15          8           0       -2.089418   -0.963529   -0.162056
     16          8           0       -2.785613    0.208670    0.132499
     17          1           0       -3.036853    0.542567   -0.739156
 ---------------------------------------------------------------------

 SCF Done:  E(UHF) =  -558.858527366     A.U. after    2 cycles

 The electronic state is 2-A.
 Alpha  occ. eigenvalues --  -69.52279 -20.63578 -20.61475 -11.21783 -11.21773
 Alpha  occ. eigenvalues --  -11.21486  -6.19374  -3.95115  -3.94548  -3.94545
 Alpha  occ. eigenvalues --   -1.61004  -1.25444  -0.98640  -0.93749  -0.93564
 Alpha  occ. eigenvalues --   -0.74425  -0.71383  -0.65118  -0.61343  -0.58476
 Alpha  occ. eigenvalues --   -0.57642  -0.57447  -0.55677  -0.55521  -0.54459
 Alpha  occ. eigenvalues --   -0.49369  -0.48418  -0.45350  -0.45228  -0.36029
 Alpha virt. eigenvalues --    0.03141   0.03558   0.04104   0.04561   0.06182
 Alpha virt. eigenvalues --    0.06501   0.06734   0.07359   0.07740   0.09210
 Alpha virt. eigenvalues --    0.09652   0.10762   0.11562   0.12638   0.14073

  Beta  occ. eigenvalues --  -69.51973 -20.61506 -20.60155 -11.21733 -11.21728
  Beta  occ. eigenvalues --  -11.21443  -6.18918  -3.94354  -3.94351  -3.93834
  Beta  occ. eigenvalues --   -1.56804  -1.18686  -0.98020  -0.93543  -0.93367
  Beta  occ. eigenvalues --   -0.70817  -0.65865  -0.60860  -0.58485  -0.57548
  Beta  occ. eigenvalues --   -0.57360  -0.56480  -0.55297  -0.55213  -0.54406
  Beta  occ. eigenvalues --   -0.45853  -0.44855  -0.44681  -0.41997
  Beta virt. eigenvalues --    0.03000   0.03560   0.04125   0.04563   0.06157
  Beta virt. eigenvalues --    0.06506   0.06714   0.06852   0.07464   0.07984
  Beta virt. eigenvalues --    0.09216   0.09943   0.10848   0.11623   0.12720

 Mulliken charges and spin densities:
               1          2
     1  C   -0.598977   0.008302
     2  H    0.024432   0.003884
     3  H   -0.042217  -0.003850
     4  H   -0.046899  -0.003259
     5  C   -0.627876   0.010296
     6  H   -0.051060  -0.000499
     7  H   -0.056466  -0.002014
     8  H    0.027894   0.004334
     9  C   -0.620966   0.007118
    10  H    0.012298   0.003295
    11  H   -0.043922  -0.003887
    12  H   -0.040531  -0.002582
    13  Si   2.274398   0.392390
    14  H    0.285598  -0.075176
    15  O   -0.471734   0.701847
    16  O   -0.468387  -0.038053
    17  H    0.444416  -0.002146
 Sum of Mulliken charges =  -0.00000   1.00000

 Dipole moment (field-independent basis, Debye):
    X=              1.5495    Y=              1.2210    Z=             -1.2581  Tot=              2.3398
                          Isotropic Fermi Contact Couplings
        Atom                 a.u.       MegaHertz       Gauss      10(-4) cm-1
     1  C(13)              0.00981      11.03254       3.93668       3.68006
     2  H(1)               0.00455      20.32236       7.25152       6.77881
     3  H(1)              -0.00002      -0.08925      -0.03185      -0.02977
     4  H(1)              -0.00010      -0.43611      -0.15562      -0.14547
     5  C(13)              0.01196      13.44611       4.79791       4.48514
     6  H(1)              -0.00010      -0.45211      -0.16132      -0.15081
     7  H(1)              -0.00012      -0.53266      -0.19007      -0.17768
     8  H(1)               0.00487      21.75962       7.76437       7.25823

 Normal termination of Gaussian 16 at Wed Apr  9 01:03:23 2025.
