 Gaussian 16, Revision C.01,

 ----------------------------------------------------------------------
 #t hf aug-cc-pvdz symm=none int=(grid=ultrafine) guess=(read,tcheck) s
 table=(opt,rrhf)
 ----------------------------------------------------------------------
 -----
 title
 -----
 Symbolic Z-matrix:
 Charge = -1 Multiplicity = 1

 SCF Done:  E(RHF) =  -1024.35313574     A.U. after   13 cycles
 Normal termination of Gaussian 16 at Wed Apr  9 01:39:14 2025.
 Gaussian 16:  ES64L-G16RevC.01  3-Jul-2019

 ----------------------------------------------------------------------
 #t hf aug-cc-pvdz iop(5/13=1,5/36=2,99/5=2) pseudo=read geom=check gue
 ss=(read,tcheck) scf=(maxcycle=1)
 ----------------------------------------------------------------------
 -----
 title
 -----
 Structure from the checkpoint file:  "BH10_328_reverse_mol3.chk"
 Charge = -1 Multiplicity = 1

                         Standard orientation:
 ---------------------------------------------------------------------
 Center     Atomic      Atomic             Coordinates (Angstroms)
 Number     Number       Type             X           Y           Z
 ---------------------------------------------------------------------
      1          8           0        2.141791    0.612321   -0.939810
      2         15           0        1.964502   -0.577876   -0.017879
      3          8           0        2.831974   -1.773916   -0.018348
      4          8           0        1.883446    0.032779    1.508659
      5          8           0        0.399689   -1.097711   -0.254679
      6          6           0       -0.540532   -0.199192   -0.809021
      7          6           0       -1.047543    0.844494    0.217070
      8          8           0       -2.474284    0.759685    0.200882
      9          6           0       -2.821131   -0.583598   -0.133091
     10          6           0       -1.809483   -0.955648   -1.216062
     11          1           0       -2.161651   -0.603396   -2.187725
     12          1           0       -1.605309   -2.023939   -1.280649
     13          1           0       -0.082421    0.301408   -1.663913
     14          1           0        1.638276    0.967629    1.468782
     15          6           0       -0.642013    2.281241   -0.072337
     16          1           0       -0.669663    0.562203    1.204885
     17          8           0        0.718863    2.523614    0.201231
     18          1           0       -1.228830    2.943614    0.568537
     19          1           0       -0.890859    2.521103   -1.115936
     20          1           0        1.285690    1.939905   -0.372492
     21          6           0       -2.755434   -1.497042    1.083752
     22          1           0       -3.845338   -0.544162   -0.512618
     23          1           0       -3.122444   -2.494142    0.825537
     24          1           0       -3.371927   -1.096057    1.891313
     25          1           0       -1.728062   -1.601731    1.437113
 ---------------------------------------------------------------------

 SCF Done:  E(RHF) =  -1025.09216431     A.U. after    2 cycles

 The electronic state is 1-A.
 Alpha  occ. eigenvalues --  -84.25500 -20.43601 -20.40591 -20.40573 -20.40462
 Alpha  occ. eigenvalues --  -20.33222 -20.31801 -11.18460 -11.16699 -11.16398
 Alpha  occ. eigenvalues --  -11.16210 -11.12636 -11.12286  -6.70245  -4.24498
 Alpha  occ. eigenvalues --   -4.23772  -4.23529  -1.36309  -1.35054  -1.31071
 Alpha  occ. eigenvalues --   -1.29227  -1.22175  -1.18523  -0.96045  -0.92702
 Alpha  occ. eigenvalues --   -0.85645  -0.77474  -0.69385  -0.68733  -0.63384
 Alpha  occ. eigenvalues --   -0.60136  -0.57653  -0.55287  -0.52790  -0.52007
 Alpha  occ. eigenvalues --   -0.49432  -0.48482  -0.47897  -0.47407  -0.44961
 Alpha  occ. eigenvalues --   -0.43733  -0.43243  -0.42610  -0.40132  -0.39526
 Alpha  occ. eigenvalues --   -0.37506  -0.36442  -0.35952  -0.33118  -0.32582
 Alpha  occ. eigenvalues --   -0.30790  -0.30214  -0.29713  -0.28518  -0.26973
 Alpha  occ. eigenvalues --   -0.25906
 Alpha virt. eigenvalues --    0.10230   0.11310   0.11708   0.12997   0.13475
 Alpha virt. eigenvalues --    0.14024   0.15747   0.15958   0.16520   0.17458
 Alpha virt. eigenvalues --    0.18088   0.18864   0.19997   0.21006   0.21382

 Mulliken charges:
               1
     1  O   -1.580206
     2  P    4.160834
     3  O   -1.512772
     4  O   -1.372583
     5  O   -2.075676
     6  C    0.805256
     7  C    0.636376
     8  O   -1.747584
     9  C    0.623105
    10  C   -0.343615
    11  H    0.138941
    12  H    0.140719
    13  H    0.106739
    14  H    0.469007
    15  C    0.669701
    16  H    0.081700
    17  O   -1.331524
    18  H    0.068802
    19  H    0.197924
    20  H    0.632761
    21  C   -0.265707
    22  H   -0.040064
    23  H    0.142763
    24  H    0.165900
    25  H    0.229201
 Sum of Mulliken charges =  -1.00000

 Dipole moment (field-independent basis, Debye):
    X=             -9.6489    Y=              1.3340    Z=             -0.3903  Tot=              9.7485

 Test job not archived.
 1\1\GINC-SE341\SP\RHF\Aug-CC-pVDZ\C6H12O6P1(1-)\OHZDE\09-Apr-2025\0\\#
 t hf aug-cc-pvdz iop(5/13=1,5/36=2,99/5=2) pseudo=read geom=check gues
 s=(read,tcheck) scf=(maxcycle=1)\\title\\-1,1\O,0,2.141791,0.612321,-0
 .93981\P,0,1.964502,-0.577876,-0.017879\O,0,2.831974,-1.773916,-0.0183
 48\O,0,1.883446,0.032779,1.508659\O,0,0.399689,-1.097711,-0.254679\C,0
 ,-0.540532,-0.199192,-0.809021\C,0,-1.047543,0.844494,0.21707\O,0,-2.4
 74284,0.759685,0.200882\C,0,-2.821131,-0.583598,-0.133091\C,0,-1.80948
 3,-0.955648,-1.216062\H,0,-2.161651,-0.603396,-2.187725\H,0,-1.605309,

 Normal termination of Gaussian 16 at Wed Apr  9 01:39:38 2025.
