 Gaussian 16, Revision C.01,

 ----------------------------------------------------------------------
 #t hf aug-cc-pvdz symm=none int=(grid=ultrafine) guess=(read,tcheck) s
 table=(opt,rrhf)
 ----------------------------------------------------------------------
 -----
 title
 -----
 Symbolic Z-matrix:
 Charge =  0 Multiplicity = 1

 SCF Done:  E(RHF) =  -1125.28076311     A.U. after   15 cycles
 Normal termination of Gaussian 16 at Wed Apr  9 02:02:45 2025.
 Gaussian 16:  ES64L-G16RevC.01  3-Jul-2019

 ----------------------------------------------------------------------
 #t hf aug-cc-pvdz iop(5/13=1,5/36=2,99/5=2) pseudo=read geom=check gue
 ss=(read,tcheck) scf=(maxcycle=1)
 ----------------------------------------------------------------------
 -----
 title
 -----
 Structure from the checkpoint file:  "BH10_300_forward_mol2.chk"
 Charge =  0 Multiplicity = 1

                         Standard orientation:
 ---------------------------------------------------------------------
 Center     Atomic      Atomic             Coordinates (Angstroms)
 Number     Number       Type             X           Y           Z
 ---------------------------------------------------------------------
      1          6           0        0.119974   -2.817476    0.101194
      2          6           0       -0.204308   -1.488519    0.837928
      3          6           0        2.561577   -0.686739   -0.340166
      4          1           0       -0.820892   -3.250305   -0.247757
      5          6           0        0.597200   -1.313426    2.146251
      6          1           0        0.445228   -0.301056    2.536511
      7          1           0        0.164516   -1.986374    2.894288
      8          1           0        3.435075   -0.238635   -0.822912
      9          1           0       -1.254359   -1.535584    1.137462
     10          6           0        2.091589   -1.608353    2.071440
     11          1           0        2.504429   -1.531845    3.082206
     12          1           0        2.238263   -2.651701    1.779235
     13          6           0        2.919834   -0.710839    1.157300
     14          1           0        2.901102    0.310427    1.548466
     15          1           0        3.962466   -1.036660    1.238010
     16          6           0        2.442975   -2.112615   -0.938079
     17          1           0        2.905723   -2.104840   -1.929785
     18          6           0        1.037993   -2.700113   -1.122841
     19          1           0        0.518111   -2.112554   -1.889101
     20          1           0        1.151299   -3.696733   -1.560713
     21          1           0        3.049362   -2.799903   -0.338966
     22          1           0        0.536277   -3.540344    0.809554
     23          6           0        1.353918    0.209126   -0.689513
     24          1           0        1.258736    0.249225   -1.785536
     25         14           0        1.562388    2.064576   -0.293402
     26          6           0        0.944563    2.505841    1.430124
     27          1           0        1.515817    2.017248    2.221565
     28          1           0        1.016514    3.585084    1.590212
     29          1           0       -0.105072    2.228257    1.556759
     30          6           0        0.562471    3.047826   -1.540400
     31          1           0        0.638872    4.120839   -1.345440
     32          1           0        0.916666    2.869400   -2.559211
     33          1           0       -0.491041    2.766189   -1.499289
     34          6           0        3.371479    2.554328   -0.447720
     35          1           0        3.758411    2.325012   -1.444059
     36          1           0        3.483213    3.630794   -0.291803
     37          1           0        4.007251    2.047125    0.280633
     38          5           0       -0.022074   -0.297885   -0.171814
     39          6           0       -3.113602    0.744922    0.503388
     40          6           0       -4.510404    0.491985    0.802823
     41          1           0       -4.986467   -0.297546    0.230800
     42          6           0       -5.213159    1.157555    1.718174
     43          1           0       -4.767565    1.948955    2.311462
     44          1           0       -6.255377    0.931364    1.902698
     45          6           0       -2.410037    0.052894   -0.392429
     46          8           0       -1.122489    0.358008   -0.706588
     47          8           0       -2.918177   -1.008664   -1.053620
     48          6           0       -2.669837   -1.062463   -2.457498
     49          1           0       -3.189147   -1.947095   -2.817730
     50          1           0       -3.069388   -0.172004   -2.949621
     51          1           0       -1.604028   -1.148654   -2.670833
     52          1           0       -2.595074    1.528924    1.041395
 ---------------------------------------------------------------------

 SCF Done:  E(RHF) =  -1126.19594023     A.U. after    2 cycles

 The electronic state is 1-A.
 Alpha  occ. eigenvalues --  -69.50460 -20.57697 -20.56686 -11.35769 -11.29821
 Alpha  occ. eigenvalues --  -11.23727 -11.23068 -11.22751 -11.22575 -11.22331
 Alpha  occ. eigenvalues --  -11.22278 -11.22225 -11.22113 -11.22082 -11.21978
 Alpha  occ. eigenvalues --  -11.20479 -11.20370 -11.19938 -11.19761 -11.18639
 Alpha  occ. eigenvalues --   -7.60847  -6.17474  -3.92816  -3.92809  -3.92799
 Alpha  occ. eigenvalues --   -1.53994  -1.46636  -1.12322  -1.08759  -1.05214
 Alpha  occ. eigenvalues --   -1.04627  -1.00949  -0.98669  -0.95583  -0.94254
 Alpha  occ. eigenvalues --   -0.92583  -0.92150  -0.91709  -0.88785  -0.84075
 Alpha  occ. eigenvalues --   -0.80262  -0.79144  -0.76560  -0.73434  -0.72420
 Alpha  occ. eigenvalues --   -0.70181  -0.68235  -0.66699  -0.65174  -0.63779
 Alpha  occ. eigenvalues --   -0.62460  -0.62118  -0.61173  -0.60006  -0.59886
 Alpha  occ. eigenvalues --   -0.58697  -0.58181  -0.57680  -0.57256  -0.56855
 Alpha  occ. eigenvalues --   -0.56632  -0.55834  -0.55181  -0.54501  -0.54040
 Alpha  occ. eigenvalues --   -0.53458  -0.53116  -0.50768  -0.50351  -0.50082
 Alpha  occ. eigenvalues --   -0.49749  -0.48757  -0.48165  -0.47872  -0.46765
 Alpha  occ. eigenvalues --   -0.45072  -0.44104  -0.43947  -0.43205  -0.42613
 Alpha  occ. eigenvalues --   -0.42390  -0.41685  -0.39065  -0.30463
 Alpha virt. eigenvalues --    0.02232   0.02481   0.02621   0.03301   0.04070
 Alpha virt. eigenvalues --    0.04164   0.04293   0.04558   0.04747   0.05797
 Alpha virt. eigenvalues --    0.06220   0.06656   0.06782   0.07148   0.07313

 Mulliken charges:
               1
     1  C   -0.359714
     2  C    0.029144
     3  C    0.087438
     4  H    0.035640
     5  C   -0.518586
     6  H    0.167323
     7  H    0.041556
     8  H    0.060011
     9  H    0.102634
    10  C   -0.246719
    11  H    0.019163
    12  H    0.279759
    13  C   -0.299488
    14  H    0.097108
    15  H    0.087275
    16  C   -0.503755
    17  H    0.076462
    18  C   -0.004259
    19  H    0.406867
    20  H   -0.048913
    21  H    0.137217
    22  H    0.107552
    23  C   -0.922684
    24  H    0.026158
    25  Si   2.029790
    26  C   -0.147669
    27  H    0.023453
    28  H   -0.134952
    29  H   -0.180729
    30  C   -0.448104
    31  H   -0.117769
    32  H    0.010812
    33  H   -0.003696
    34  C   -0.380441
    35  H   -0.028394
    36  H   -0.221200
    37  H    0.046686
    38  B    2.049914
    39  C    1.040712
    40  C    0.832542
    41  H   -0.319842
    42  C   -0.137633
    43  H   -0.171039
    44  H   -0.171798
    45  C    1.604218
    46  O   -2.325576
    47  O   -1.817931
    48  C    0.207817
    49  H   -0.028611
    50  H    0.187426
    51  H    0.130311
    52  H   -0.385484
 Sum of Mulliken charges =  -0.00000

 Dipole moment (field-independent basis, Debye):
    X=              1.3204    Y=             -0.9170    Z=             -1.3395  Tot=              2.0925

 Test job not archived.
 1\1\GINC-SE403\SP\RHF\Aug-CC-pVDZ\C17H31B1O2Si1\OHZDE\09-Apr-2025\0\\#
 t hf aug-cc-pvdz iop(5/13=1,5/36=2,99/5=2) pseudo=read geom=check gues
 s=(read,tcheck) scf=(maxcycle=1)\\title\\0,1\C,0,0.119974,-2.817476,0.
 101194\C,0,-0.204308,-1.488519,0.837928\C,0,2.561577,-0.686739,-0.3401
 66\H,0,-0.820892,-3.250305,-0.247757\C,0,0.5972,-1.313426,2.146251\H,0
 ,0.445228,-0.301056,2.536511\H,0,0.164516,-1.986374,2.894288\H,0,3.435
 075,-0.238635,-0.822912\H,0,-1.254359,-1.535584,1.137462\C,0,2.091589,
 -1.608353,2.07144\H,0,2.504429,-1.531845,3.082206\H,0,2.238263,-2.6517

 Normal termination of Gaussian 16 at Wed Apr  9 02:05:34 2025.
