 Gaussian 16, Revision C.01,

 ----------------------------------------------------------------------
 #t hf aug-cc-pvdz symm=none int=(grid=ultrafine) guess=(read,tcheck) s
 table=(opt,rrhf)
 ----------------------------------------------------------------------
 -----
 title
 -----
 Symbolic Z-matrix:
 Charge =  0 Multiplicity = 1

 SCF Done:  E(RHF) =  -997.665339196     A.U. after   18 cycles
 Normal termination of Gaussian 16 at Wed Apr  9 02:17:45 2025.
 Gaussian 16:  ES64L-G16RevC.01  3-Jul-2019

 ----------------------------------------------------------------------
 #t hf aug-cc-pvdz iop(5/13=1,5/36=2,99/5=2) pseudo=read geom=check gue
 ss=(read,tcheck) scf=(maxcycle=1)
 ----------------------------------------------------------------------
 -----
 title
 -----
 Structure from the checkpoint file:  "BH10_83_forward_mol1.chk"
 Charge =  0 Multiplicity = 1

                         Standard orientation:
 ---------------------------------------------------------------------
 Center     Atomic      Atomic             Coordinates (Angstroms)
 Number     Number       Type             X           Y           Z
 ---------------------------------------------------------------------
      1          6           0        0.084594   -0.970723   -0.893587
      2          6           0        2.303971   -0.720893    0.029777
      3          6           0       -0.441546   -0.028215   -0.002747
      4          1           0       -0.179796   -0.175677    1.035946
      5          6           0        2.204227    0.684789    0.228658
      6          6           0        1.369259   -1.448344   -0.699881
      7          6           0        3.622070    1.198035    0.324280
      8          1           0        1.730727   -2.312127   -1.250556
      9          1           0       -0.459692   -1.244203   -1.789423
     10          6           0       -1.697154    0.722911   -0.234978
     11          1           0       -1.704555    1.565148    0.466857
     12          6           0       -1.850546    1.254131   -1.662677
     13          1           0       -0.980436    1.849935   -1.949491
     14          1           0       -1.944479    0.447757   -2.392098
     15          1           0       -2.736521    1.884802   -1.755619
     16          7           0        1.127607    1.387507    0.236734
     17          6           0        1.185890    2.825834    0.075623
     18          1           0        1.675835    3.131478   -0.856060
     19          1           0        0.171785    3.226554    0.072995
     20          1           0        1.719496    3.290770    0.911979
     21          8           0        4.451628    0.045925    0.371258
     22          1           0        3.783986    1.790269    1.227784
     23          1           0        3.887322    1.804452   -0.546919
     24          6           0        3.714408   -1.091687    0.119139
     25          8           0        4.240958   -2.159752   -0.001448
     26         14           0       -3.203533   -0.329253    0.321684
     27          6           0       -2.877020   -0.983927    2.047759
     28          6           0       -4.701646    0.801371    0.335248
     29          6           0       -3.482803   -1.748663   -0.869021
     30          1           0       -3.755340   -1.506404    2.435174
     31          1           0       -2.043638   -1.690056    2.057574
     32          1           0       -2.640903   -0.176532    2.745822
     33          1           0       -4.549656    1.658160    0.996555
     34          1           0       -4.930959    1.183965   -0.661824
     35          1           0       -5.584623    0.263699    0.690350
     36          1           0       -3.670454   -1.395954   -1.885835
     37          1           0       -2.622636   -2.420514   -0.896607
     38          1           0       -4.352165   -2.335629   -0.561353
 ---------------------------------------------------------------------

 SCF Done:  E(RHF) =  -998.431948193     A.U. after    2 cycles

 The electronic state is 1-A.
 Alpha  occ. eigenvalues --  -69.52469 -20.57543 -20.50629 -15.50455 -11.36740
 Alpha  occ. eigenvalues --  -11.31149 -11.31118 -11.30437 -11.27627 -11.27355
 Alpha  occ. eigenvalues --  -11.24352 -11.24100 -11.22492 -11.22282 -11.22139
 Alpha  occ. eigenvalues --  -11.21961 -11.21756  -6.19530  -3.94868  -3.94852
 Alpha  occ. eigenvalues --   -3.94846  -1.52624  -1.43726  -1.25158  -1.13217
 Alpha  occ. eigenvalues --   -1.09357  -1.03229  -0.99103  -0.98431  -0.96405
 Alpha  occ. eigenvalues --   -0.94334  -0.94014  -0.92837  -0.85993  -0.79946
 Alpha  occ. eigenvalues --   -0.77820  -0.73070  -0.70566  -0.69287  -0.68394
 Alpha  occ. eigenvalues --   -0.67208  -0.66251  -0.63613  -0.62195  -0.60975
 Alpha  occ. eigenvalues --   -0.60657  -0.59877  -0.59089  -0.58199  -0.58002
 Alpha  occ. eigenvalues --   -0.56916  -0.56158  -0.55810  -0.55509  -0.55143
 Alpha  occ. eigenvalues --   -0.54957  -0.54224  -0.52709  -0.51336  -0.50105
 Alpha  occ. eigenvalues --   -0.48269  -0.45357  -0.45202  -0.43704  -0.42880
 Alpha  occ. eigenvalues --   -0.41538  -0.39038  -0.30643
 Alpha virt. eigenvalues --    0.02171   0.02385   0.02651   0.03211   0.04141
 Alpha virt. eigenvalues --    0.04268   0.04674   0.04924   0.05353   0.05875
 Alpha virt. eigenvalues --    0.06295   0.06481   0.06822   0.07471   0.07833

 Mulliken charges:
               1
     1  C    0.826645
     2  C    1.290933
     3  C    0.433939
     4  H   -0.224181
     5  C   -2.776734
     6  C   -0.068514
     7  C    0.680268
     8  H   -0.266851
     9  H   -0.378948
    10  C   -1.150996
    11  H    0.040275
    12  C   -0.238138
    13  H    0.137592
    14  H    0.210815
    15  H    0.124997
    16  N    1.743677
    17  C   -0.318889
    18  H    0.188334
    19  H   -0.092736
    20  H    0.176963
    21  O   -1.481234
    22  H    0.204187
    23  H    0.223074
    24  C    1.396063
    25  O   -1.463064
    26  Si   2.273603
    27  C   -0.464974
    28  C   -0.481211
    29  C   -0.434668
    30  H   -0.105955
    31  H    0.033822
    32  H    0.038685
    33  H    0.022688
    34  H   -0.017446
    35  H   -0.060450
    36  H    0.027970
    37  H    0.036240
    38  H   -0.085783
 Sum of Mulliken charges =   0.00000

 Dipole moment (field-independent basis, Debye):
    X=             -6.1060    Y=              4.3367    Z=             -0.5141  Tot=              7.5069

 Test job not archived.
 1\1\GINC-SE462\SP\RHF\Aug-CC-pVDZ\C13H21N1O2Si1\OHZDE\09-Apr-2025\0\\#
 t hf aug-cc-pvdz iop(5/13=1,5/36=2,99/5=2) pseudo=read geom=check gues
 s=(read,tcheck) scf=(maxcycle=1)\\title\\0,1\C,0,0.084594,-0.970723,-0
 .893587\C,0,2.303971,-0.720893,0.029777\C,0,-0.441546,-0.028215,-0.002
 747\H,0,-0.179796,-0.175677,1.035946\C,0,2.204227,0.684789,0.228658\C,
 0,1.369259,-1.448344,-0.699881\C,0,3.62207,1.198035,0.32428\H,0,1.7307
 27,-2.312127,-1.250556\H,0,-0.459692,-1.244203,-1.789423\C,0,-1.697154
 ,0.722911,-0.234978\H,0,-1.704555,1.565148,0.466857\C,0,-1.850546,1.25

 Normal termination of Gaussian 16 at Wed Apr  9 02:18:50 2025.
