 Gaussian 16, Revision C.01,

 ----------------------------------------------------------------------
 #t hf aug-cc-pvdz symm=none int=(grid=ultrafine) guess=(read,tcheck) s
 table=opt
 ----------------------------------------------------------------------
 -----
 title
 -----
 Symbolic Z-matrix:
 Charge =  0 Multiplicity = 2

 SCF Done:  E(UHF) =  -431.314529928     A.U. after   23 cycles
 Normal termination of Gaussian 16 at Wed Apr  9 01:59:20 2025.
 Gaussian 16:  ES64L-G16RevC.01  3-Jul-2019

 ----------------------------------------------------------------------
 #t hf aug-cc-pvdz iop(5/13=1,5/36=2,99/5=2) pseudo=read geom=check gue
 ss=(read,tcheck) scf=(maxcycle=1)
 ----------------------------------------------------------------------
 -----
 title
 -----
 Structure from the checkpoint file:  "BH10_6_forward_mol2.chk"
 Charge =  0 Multiplicity = 2

                         Standard orientation:
 ---------------------------------------------------------------------
 Center     Atomic      Atomic             Coordinates (Angstroms)
 Number     Number       Type             X           Y           Z
 ---------------------------------------------------------------------
      1          6           0       -1.402274    0.310807   -0.128283
      2          6           0       -0.574842   -0.304577    0.944988
      3          6           0        0.368383   -1.387686    0.424012
      4          1           0       -1.256503   -0.724444    1.697931
      5          1           0       -0.015237    0.499932    1.425395
      6          6           0        1.432997   -0.861085   -0.546357
      7          1           0       -0.214595   -2.169544   -0.068064
      8          1           0        0.857003   -1.857499    1.282189
      9          6           0        2.375549    0.111713    0.094854
     10          1           0        0.950944   -0.392951   -1.409048
     11          1           0        2.002153   -1.715323   -0.926907
     12          6           0        2.522427    1.379452   -0.261826
     13          1           0        1.950072    1.806029   -1.079243
     14          1           0        3.220876    2.035098    0.244043
     15          1           0        2.966935   -0.275418    0.923331
     16          9           0       -2.159774   -0.539952   -0.833750
     17          9           0       -2.150790    1.351327    0.249977
 ---------------------------------------------------------------------

 SCF Done:  E(UHF) =  -431.742565612     A.U. after    2 cycles

 The electronic state is 2-A.
 Alpha  occ. eigenvalues --  -26.48886 -26.48858 -11.41477 -11.25652 -11.24872
 Alpha  occ. eigenvalues --  -11.24689 -11.24314 -11.23593  -1.66330  -1.59308
 Alpha  occ. eigenvalues --   -1.11981  -1.06169  -0.98400  -0.90064  -0.83731
 Alpha  occ. eigenvalues --   -0.77293  -0.76289  -0.75762  -0.72534  -0.66260
 Alpha  occ. eigenvalues --   -0.65511  -0.64107  -0.63467  -0.61269  -0.58602
 Alpha  occ. eigenvalues --   -0.57405  -0.53307  -0.52526  -0.50504  -0.48986
 Alpha  occ. eigenvalues --   -0.39682  -0.37722
 Alpha virt. eigenvalues --    0.03231   0.03624   0.03849   0.04659   0.05989
 Alpha virt. eigenvalues --    0.06398   0.06909   0.07217   0.08099   0.09661
 Alpha virt. eigenvalues --    0.11627   0.12851   0.13631   0.13857   0.14175

  Beta  occ. eigenvalues --  -26.48476 -26.48451 -11.38639 -11.25686 -11.24856
  Beta  occ. eigenvalues --  -11.24687 -11.24303 -11.23596  -1.64749  -1.58244
  Beta  occ. eigenvalues --   -1.11521  -1.05373  -0.97240  -0.87852  -0.82555
  Beta  occ. eigenvalues --   -0.77130  -0.75275  -0.71764  -0.69076  -0.65705
  Beta  occ. eigenvalues --   -0.63798  -0.63038  -0.62334  -0.60996  -0.58252
  Beta  occ. eigenvalues --   -0.56736  -0.52897  -0.51923  -0.50070  -0.48922
  Beta  occ. eigenvalues --   -0.37799
  Beta virt. eigenvalues --    0.03211   0.03627   0.03854   0.04450   0.05963
  Beta virt. eigenvalues --    0.06401   0.06901   0.07242   0.08100   0.09608
  Beta virt. eigenvalues --    0.11015   0.12110   0.12866   0.13823   0.13979

 Mulliken charges and spin densities:
               1          2
     1  C    1.698878   1.057033
     2  C   -0.540910  -0.117522
     3  C   -0.425604  -0.003392
     4  H    0.194177   0.053186
     5  H    0.253694  -0.007936
     6  C   -0.431219  -0.002487
     7  H    0.102174  -0.003955
     8  H    0.133616  -0.004783
     9  C    0.747518   0.002570
    10  H    0.111407  -0.011980
    11  H    0.201419  -0.000601
    12  C   -0.099457  -0.002581
    13  H   -0.091069  -0.000964
    14  H   -0.108984   0.000116
    15  H   -0.186924   0.000011
    16  F   -0.792643   0.023739
    17  F   -0.766073   0.019547
 Sum of Mulliken charges =  -0.00000   1.00000

 Dipole moment (field-independent basis, Debye):
    X=              1.7148    Y=             -1.0516    Z=              1.0558  Tot=              2.2718
                          Isotropic Fermi Contact Couplings
        Atom                 a.u.       MegaHertz       Gauss      10(-4) cm-1
     1  C(13)              0.43209     485.75697     173.33016     162.03108
     2  C(13)              0.00347       3.90494       1.39338       1.30255
     3  C(13)              0.00434       4.87921       1.74102       1.62753
     4  H(1)               0.01672      74.71642      26.66068      24.92271
     5  H(1)               0.00179       8.01996       2.86172       2.67517
     6  C(13)              0.00024       0.26537       0.09469       0.08852
     7  H(1)              -0.00028      -1.25374      -0.44737      -0.41820
     8  H(1)              -0.00078      -3.49537      -1.24723      -1.16593

 Normal termination of Gaussian 16 at Wed Apr  9 01:59:48 2025.
