 Gaussian 16, Revision C.01,

 ----------------------------------------------------------------------
 #t hf aug-cc-pvdz symm=none int=(grid=ultrafine) guess=(read,tcheck) s
 table=(opt,rrhf)
 ----------------------------------------------------------------------
 -----
 title
 -----
 Symbolic Z-matrix:
 Charge =  0 Multiplicity = 1

 SCF Done:  E(RHF) =  -728.996602506     A.U. after   13 cycles
 Normal termination of Gaussian 16 at Wed Apr  9 00:56:32 2025.
 Gaussian 16:  ES64L-G16RevC.01  3-Jul-2019

 ----------------------------------------------------------------------
 #t hf aug-cc-pvdz iop(5/13=1,5/36=2,99/5=2) pseudo=read geom=check gue
 ss=(read,tcheck) scf=(maxcycle=1)
 ----------------------------------------------------------------------
 -----
 title
 -----
 Structure from the checkpoint file:  "BH10_136_reverse_mol3.chk"
 Charge =  0 Multiplicity = 1

                         Standard orientation:
 ---------------------------------------------------------------------
 Center     Atomic      Atomic             Coordinates (Angstroms)
 Number     Number       Type             X           Y           Z
 ---------------------------------------------------------------------
      1          8           0        1.267110    1.595611    0.000012
      2          6           0        1.237446    0.418137    0.000007
      3          6           0        0.035284   -0.478687    0.000024
      4          6           0       -1.280071    0.286811   -0.000009
      5          1           0        0.121928   -1.134956    0.871205
      6          1           0       -1.318356    0.943159    0.873733
      7          6           0       -2.485973   -0.647020    0.000019
      8          1           0       -1.318348    0.943096   -0.873799
      9          6           0       -3.809599    0.108456   -0.000022
     10          1           0       -2.437606   -1.302954    0.875886
     11          1           0       -2.437592   -1.303024   -0.875795
     12          1           0       -3.897131    0.748008    0.881882
     13          1           0       -4.659104   -0.577028    0.000002
     14          1           0       -3.897120    0.747933   -0.881980
     15          1           0        0.121939   -1.135019   -0.871107
     16         17           0        2.788352   -0.518840   -0.000014
 ---------------------------------------------------------------------

 SCF Done:  E(RHF) =  -729.356635933     A.U. after    2 cycles

 The electronic state is 1-A.
 Alpha  occ. eigenvalues -- -105.57281 -20.58246 -11.41579 -11.27440 -11.24730
 Alpha  occ. eigenvalues --  -11.24308 -11.23302 -10.62176  -7.79098  -7.78734
 Alpha  occ. eigenvalues --   -7.78718  -1.53546  -1.12433  -1.08307  -1.02284
 Alpha  occ. eigenvalues --   -0.91501  -0.82077  -0.77271  -0.68737  -0.68501
 Alpha  occ. eigenvalues --   -0.66894  -0.62842  -0.60639  -0.57001  -0.55931
 Alpha  occ. eigenvalues --   -0.52420  -0.51966  -0.49895  -0.48984  -0.47025
 Alpha  occ. eigenvalues --   -0.46745  -0.44535
 Alpha virt. eigenvalues --    0.03247   0.03616   0.03622   0.04360   0.06295
 Alpha virt. eigenvalues --    0.06794   0.07162   0.07386   0.09918   0.10079
 Alpha virt. eigenvalues --    0.10418   0.11312   0.12128   0.13616   0.14484

 Mulliken charges:
               1
     1  O   -1.123979
     2  C    0.836896
     3  C   -0.307552
     4  C   -0.081788
     5  H    0.270677
     6  H    0.117837
     7  C   -0.217507
     8  H    0.117832
     9  C   -0.389420
    10  H    0.111031
    11  H    0.111033
    12  H    0.162810
    13  H    0.118747
    14  H    0.162806
    15  H    0.270664
    16  Cl  -0.160085
 Sum of Mulliken charges =  -0.00000

 Dipole moment (field-independent basis, Debye):
    X=             -2.7777    Y=             -1.7548    Z=              0.0000  Tot=              3.2856

 Test job not archived.
 1\1\GINC-SE461\SP\RHF\Aug-CC-pVDZ\C5H9Cl1O1\OHZDE\09-Apr-2025\0\\#t hf
  aug-cc-pvdz iop(5/13=1,5/36=2,99/5=2) pseudo=read geom=check guess=(r
 ead,tcheck) scf=(maxcycle=1)\\title\\0,1\O,0,1.26711,1.595611,0.000012
 \C,0,1.237446,0.418137,0.000007\C,0,0.035284,-0.478687,0.000024\C,0,-1
 .280071,0.286811,-0.000009\H,0,0.121928,-1.134956,0.871205\H,0,-1.3183
 56,0.943159,0.873733\C,0,-2.485973,-0.64702,0.000019\H,0,-1.318348,0.9
 43096,-0.873799\C,0,-3.809599,0.108456,-0.000022\H,0,-2.437606,-1.3029
 54,0.875886\H,0,-2.437592,-1.303024,-0.875795\H,0,-3.897131,0.748008,0

 Normal termination of Gaussian 16 at Wed Apr  9 00:56:38 2025.
