 Gaussian 16, Revision C.01,

 ----------------------------------------------------------------------
 #t hf aug-cc-pvdz symm=none int=(grid=ultrafine) guess=(read,tcheck) s
 table=(opt,rrhf)
 ----------------------------------------------------------------------
 -----
 title
 -----
 Symbolic Z-matrix:
 Charge =  0 Multiplicity = 1

 SCF Done:  E(RHF) =  -997.717899623     A.U. after   16 cycles
 Normal termination of Gaussian 16 at Wed Apr  9 02:18:41 2025.
 Gaussian 16:  ES64L-G16RevC.01  3-Jul-2019

 ----------------------------------------------------------------------
 #t hf aug-cc-pvdz iop(5/13=1,5/36=2,99/5=2) pseudo=read geom=check gue
 ss=(read,tcheck) scf=(maxcycle=1)
 ----------------------------------------------------------------------
 -----
 title
 -----
 Structure from the checkpoint file:  "BH10_83_reverse_mol2.chk"
 Charge =  0 Multiplicity = 1

                         Standard orientation:
 ---------------------------------------------------------------------
 Center     Atomic      Atomic             Coordinates (Angstroms)
 Number     Number       Type             X           Y           Z
 ---------------------------------------------------------------------
      1          6           0        0.006562   -0.929583   -1.162332
      2          6           0       -2.185938   -0.686274   -0.258822
      3          6           0        0.351883    0.498283   -0.798334
      4          6           0       -2.003708    0.652711   -0.177297
      5          6           0       -1.161067   -1.501881   -0.860719
      6          6           0       -3.255356    1.278218    0.359734
      7          6           0        1.331653    0.603287    0.391324
      8          1           0        1.595912    1.665534    0.486223
      9          6           0        0.697365    0.151638    1.710663
     10          1           0       -0.166732    0.765960    1.976723
     11          1           0        0.355661   -0.883175    1.650602
     12          1           0        1.406266    0.221034    2.538758
     13          7           0       -0.883520    1.284721   -0.554682
     14          6           0       -0.748588    2.721963   -0.453718
     15          1           0       -1.713590    3.203644   -0.609035
     16          1           0       -0.351468    3.038935    0.516301
     17          1           0       -0.068736    3.073114   -1.232428
     18          8           0       -4.134940    0.185119    0.570039
     19          1           0       -3.714043    1.975402   -0.346712
     20          1           0       -3.087308    1.796201    1.308220
     21          6           0       -3.525658   -1.005876    0.188069
     22          8           0       -4.108855   -2.048675    0.258252
     23         14           0        3.020538   -0.233149    0.098092
     24          6           0        3.567593    0.041746   -1.679842
     25          6           0        4.251431    0.598363    1.248693
     26          6           0        2.973542   -2.067540    0.489749
     27          1           0        4.577512   -0.347950   -1.831470
     28          1           0        2.915329   -0.457081   -2.400331
     29          1           0        3.588562    1.105757   -1.930780
     30          1           0        4.343390    1.665782    1.032201
     31          1           0        3.957866    0.495518    2.296209
     32          1           0        5.244209    0.153427    1.143138
     33          1           0        2.673355   -2.241632    1.525666
     34          1           0        2.278029   -2.613698   -0.149130
     35          1           0        3.965741   -2.507475    0.357888
     36          1           0        0.781285   -1.490749   -1.668910
     37          1           0       -1.367976   -2.537416   -1.100888
     38          1           0        0.835941    0.968012   -1.662093
 ---------------------------------------------------------------------

 SCF Done:  E(RHF) =  -998.486412505     A.U. after    2 cycles

 The electronic state is 1-A.
 Alpha  occ. eigenvalues --  -69.51481 -20.57570 -20.50595 -15.54846 -11.36935
 Alpha  occ. eigenvalues --  -11.32161 -11.31484 -11.29783 -11.29501 -11.25092
 Alpha  occ. eigenvalues --  -11.24059 -11.23313 -11.22804 -11.22149 -11.21843
 Alpha  occ. eigenvalues --  -11.21500 -11.21195  -6.18575  -3.93913  -3.93903
 Alpha  occ. eigenvalues --   -3.93894  -1.52428  -1.43716  -1.30059  -1.12283
 Alpha  occ. eigenvalues --   -1.10269  -1.03565  -0.99378  -0.98479  -0.98040
 Alpha  occ. eigenvalues --   -0.94651  -0.93427  -0.93254  -0.84468  -0.83360
 Alpha  occ. eigenvalues --   -0.79690  -0.73020  -0.71805  -0.70977  -0.68927
 Alpha  occ. eigenvalues --   -0.67711  -0.65832  -0.64727  -0.63825  -0.61915
 Alpha  occ. eigenvalues --   -0.61390  -0.59804  -0.58543  -0.58241  -0.57403
 Alpha  occ. eigenvalues --   -0.57172  -0.56228  -0.56091  -0.55287  -0.54929
 Alpha  occ. eigenvalues --   -0.54501  -0.53999  -0.53455  -0.51972  -0.49947
 Alpha  occ. eigenvalues --   -0.48954  -0.44916  -0.44541  -0.43945  -0.42734
 Alpha  occ. eigenvalues --   -0.42330  -0.41926  -0.30071
 Alpha virt. eigenvalues --    0.01966   0.02374   0.02623   0.03255   0.03969
 Alpha virt. eigenvalues --    0.04171   0.04556   0.05162   0.05719   0.06358
 Alpha virt. eigenvalues --    0.06620   0.06828   0.07494   0.07978   0.08596

 Mulliken charges:
               1
     1  C    0.679532
     2  C    1.834850
     3  C   -2.403038
     4  C   -2.140372
     5  C    0.216225
     6  C    0.414765
     7  C   -0.156615
     8  H    0.034057
     9  C   -0.227976
    10  H    0.168151
    11  H    0.253723
    12  H    0.078129
    13  N    2.646329
    14  C   -0.268215
    15  H   -0.023202
    16  H    0.245764
    17  H    0.123466
    18  O   -1.483977
    19  H    0.210641
    20  H    0.240402
    21  C    1.202755
    22  O   -1.551652
    23  Si   2.237362
    24  C   -0.368982
    25  C   -0.473898
    26  C   -0.455357
    27  H   -0.149913
    28  H   -0.016791
    29  H    0.002989
    30  H   -0.013953
    31  H    0.029283
    32  H   -0.096021
    33  H    0.040180
    34  H    0.010209
    35  H   -0.061330
    36  H   -0.329979
    37  H   -0.316600
    38  H   -0.130939
 Sum of Mulliken charges =   0.00000

 Dipole moment (field-independent basis, Debye):
    X=              5.5641    Y=              5.3641    Z=             -0.8132  Tot=              7.7713

 Test job not archived.
 1\1\GINC-SE338\SP\RHF\Aug-CC-pVDZ\C13H21N1O2Si1\OHZDE\09-Apr-2025\0\\#
 t hf aug-cc-pvdz iop(5/13=1,5/36=2,99/5=2) pseudo=read geom=check gues
 s=(read,tcheck) scf=(maxcycle=1)\\title\\0,1\C,0,0.006562,-0.929583,-1
 .162332\C,0,-2.185938,-0.686274,-0.258822\C,0,0.351883,0.498283,-0.798
 334\C,0,-2.003708,0.652711,-0.177297\C,0,-1.161067,-1.501881,-0.860719
 \C,0,-3.255356,1.278218,0.359734\C,0,1.331653,0.603287,0.391324\H,0,1.
 595912,1.665534,0.486223\C,0,0.697365,0.151638,1.710663\H,0,-0.166732,
 0.76596,1.976723\H,0,0.355661,-0.883175,1.650602\H,0,1.406266,0.221034

 Normal termination of Gaussian 16 at Wed Apr  9 02:19:53 2025.
