 Gaussian 16, Revision C.01,

 ----------------------------------------------------------------------
 #t hf aug-cc-pvdz symm=none int=(grid=ultrafine) guess=(read,tcheck) s
 table=(opt,rrhf)
 ----------------------------------------------------------------------
 -----
 title
 -----
 Symbolic Z-matrix:
 Charge =  0 Multiplicity = 1

 SCF Done:  E(RHF) =  -1000.85429166     A.U. after   18 cycles
 Normal termination of Gaussian 16 at Wed Apr  9 02:31:03 2025.
 Gaussian 16:  ES64L-G16RevC.01  3-Jul-2019

 ----------------------------------------------------------------------
 #t hf aug-cc-pvdz iop(5/13=1,5/36=2,99/5=2) pseudo=read geom=check gue
 ss=(read,tcheck) scf=(maxcycle=1)
 ----------------------------------------------------------------------
 -----
 title
 -----
 Structure from the checkpoint file:  "BH10_85_reverse_mol1.chk"
 Charge =  0 Multiplicity = 1

                         Standard orientation:
 ---------------------------------------------------------------------
 Center     Atomic      Atomic             Coordinates (Angstroms)
 Number     Number       Type             X           Y           Z
 ---------------------------------------------------------------------
      1          6           0        0.246730   -0.933914   -0.867100
      2          6           0       -2.064613   -0.705235   -0.073119
      3          6           0        0.705443    0.075458   -0.038460
      4          1           0        0.309343    0.069146    0.969262
      5          6           0       -2.073369    0.752011   -0.154547
      6          6           0       -3.441444    1.396746   -0.286521
      7          6           0       -1.029834   -1.439900   -0.651143
      8          1           0       -1.302968   -2.418788   -1.034517
      9          1           0        0.837714   -1.278868   -1.706980
     10          6           0       -0.991964    2.821695   -0.673869
     11          6           0       -3.302427   -1.458251    0.184307
     12          6           0        1.984333    0.809595   -0.197266
     13          6           0        2.102112    1.992178    0.774428
     14          1           0        2.142708    1.646459    1.811090
     15          1           0        1.247412    2.662533    0.695462
     16          1           0        2.079059    1.159158   -1.231847
     17          1           0        3.004926    2.574038    0.585639
     18          7           0       -0.994171    1.456059   -0.190524
     19         14           0        3.462028   -0.393252    0.075946
     20          6           0        3.613134   -1.624192   -1.331071
     21          6           0        5.031499    0.638063    0.136403
     22          6           0        3.222026   -1.298790    1.699575
     23          1           0       -0.016686    3.022360   -1.121307
     24          1           0       -1.119772    3.528533    0.152998
     25          1           0       -1.751277    3.031555   -1.432425
     26          1           0        5.143961    1.251177   -0.761742
     27          1           0        5.906336   -0.014429    0.199649
     28          1           0        5.054451    1.303312    1.001641
     29          1           0        3.610455   -1.129360   -2.305611
     30          1           0        2.808056   -2.359714   -1.320856
     31          1           0        4.557607   -2.168007   -1.242593
     32          1           0        2.316837   -1.909837    1.678545
     33          1           0        3.143302   -0.608665    2.542915
     34          1           0        4.066759   -1.963456    1.897978
     35          6           0       -4.605011   -0.709445    0.381927
     36          6           0       -4.420358    0.764184    0.696509
     37          1           0       -5.177251   -1.234444    1.147846
     38          1           0       -5.162228   -0.823014   -0.555678
     39          1           0       -4.035874    0.886951    1.713998
     40          1           0       -5.378188    1.287404    0.655290
     41          1           0       -3.811887    1.268533   -1.310278
     42          1           0       -3.368389    2.467122   -0.100517
     43          8           0       -3.308893   -2.677226    0.217767
 ---------------------------------------------------------------------

 SCF Done:  E(RHF) =  -1001.63606263     A.U. after    2 cycles

 The electronic state is 1-A.
 Alpha  occ. eigenvalues --  -69.51798 -20.49424 -15.48684 -11.31140 -11.29368
 Alpha  occ. eigenvalues --  -11.29355 -11.25938 -11.25720 -11.24375 -11.24015
 Alpha  occ. eigenvalues --  -11.23567 -11.23357 -11.23012 -11.21436 -11.21304
 Alpha  occ. eigenvalues --  -11.21143 -11.21101 -11.20651  -6.18836  -3.94169
 Alpha  occ. eigenvalues --   -3.94156  -3.94152  -1.43357  -1.23664  -1.11793
 Alpha  occ. eigenvalues --   -1.10562  -1.06688  -1.00101  -0.98440  -0.97848
 Alpha  occ. eigenvalues --   -0.95379  -0.93385  -0.93229  -0.90385  -0.85371
 Alpha  occ. eigenvalues --   -0.81900  -0.77820  -0.76375  -0.69701  -0.68691
 Alpha  occ. eigenvalues --   -0.67265  -0.66491  -0.64814  -0.62646  -0.61991
 Alpha  occ. eigenvalues --   -0.61020  -0.59887  -0.59846  -0.59267  -0.58136
 Alpha  occ. eigenvalues --   -0.57595  -0.57394  -0.56608  -0.55829  -0.55180
 Alpha  occ. eigenvalues --   -0.54775  -0.54291  -0.54053  -0.53530  -0.52386
 Alpha  occ. eigenvalues --   -0.51518  -0.50395  -0.49121  -0.47779  -0.46710
 Alpha  occ. eigenvalues --   -0.45290  -0.44482  -0.44445  -0.41745  -0.38249
 Alpha  occ. eigenvalues --   -0.36649  -0.29152
 Alpha virt. eigenvalues --    0.02612   0.02744   0.02891   0.03203   0.03820
 Alpha virt. eigenvalues --    0.03915   0.04349   0.04878   0.05187   0.05996
 Alpha virt. eigenvalues --    0.06244   0.06509   0.06707   0.07213   0.07340

 Mulliken charges:
               1
     1  C    0.645441
     2  C    1.967320
     3  C    0.244072
     4  H   -0.178608
     5  C   -2.968262
     6  C   -0.221719
     7  C   -0.253258
     8  H   -0.380648
     9  H   -0.325245
    10  C   -0.329140
    11  C    0.886209
    12  C   -0.962029
    13  C   -0.150163
    14  H    0.223151
    15  H    0.062603
    16  H   -0.051890
    17  H    0.141272
    18  N    1.818679
    19  Si   2.413987
    20  C   -0.438781
    21  C   -0.533865
    22  C   -0.405615
    23  H    0.012591
    24  H    0.188653
    25  H    0.072497
    26  H    0.012492
    27  H   -0.100949
    28  H   -0.002433
    29  H    0.026292
    30  H   -0.012044
    31  H   -0.101622
    32  H    0.058248
    33  H   -0.015433
    34  H   -0.110304
    35  C   -0.437885
    36  C   -0.161561
    37  H    0.217286
    38  H    0.316557
    39  H    0.135015
    40  H    0.166468
    41  H    0.159835
    42  H    0.086645
    43  O   -1.713858
 Sum of Mulliken charges =  -0.00000

 Dipole moment (field-independent basis, Debye):
    X=              2.0387    Y=              4.3352    Z=             -0.6994  Tot=              4.8415

 Test job not archived.
 1\1\GINC-SE094\SP\RHF\Aug-CC-pVDZ\C15H25N1O1Si1\OHZDE\09-Apr-2025\0\\#
 t hf aug-cc-pvdz iop(5/13=1,5/36=2,99/5=2) pseudo=read geom=check gues
 s=(read,tcheck) scf=(maxcycle=1)\\title\\0,1\C,0,0.24673,-0.933914,-0.
 8671\C,0,-2.064613,-0.705235,-0.073119\C,0,0.705443,0.075458,-0.03846\
 H,0,0.309343,0.069146,0.969262\C,0,-2.073369,0.752011,-0.154547\C,0,-3
 .441444,1.396746,-0.286521\C,0,-1.029834,-1.4399,-0.651143\H,0,-1.3029
 68,-2.418788,-1.034517\H,0,0.837714,-1.278868,-1.70698\C,0,-0.991964,2
 .821695,-0.673869\C,0,-3.302427,-1.458251,0.184307\C,0,1.984333,0.8095

 Normal termination of Gaussian 16 at Wed Apr  9 02:32:36 2025.
