 Gaussian 16, Revision C.01,

 ----------------------------------------------------------------------
 #t hf aug-cc-pvdz symm=none int=(grid=ultrafine) guess=(read,tcheck) s
 table=(opt,rrhf)
 ----------------------------------------------------------------------
 -----
 title
 -----
 Symbolic Z-matrix:
 Charge =  0 Multiplicity = 1

 SCF Done:  E(RHF) =  -857.025003874     A.U. after    1 cycles
 Normal termination of Gaussian 16 at Wed Apr  9 02:36:11 2025.
 Gaussian 16:  ES64L-G16RevC.01  3-Jul-2019

 ----------------------------------------------------------------------
 #t hf aug-cc-pvdz iop(5/13=1,5/36=2,99/5=2) pseudo=read geom=check gue
 ss=(read,tcheck) scf=(maxcycle=1)
 ----------------------------------------------------------------------
 -----
 title
 -----
 Structure from the checkpoint file:  "BH10_413_forward_mol1.chk"
 Charge =  0 Multiplicity = 1

                         Standard orientation:
 ---------------------------------------------------------------------
 Center     Atomic      Atomic             Coordinates (Angstroms)
 Number     Number       Type             X           Y           Z
 ---------------------------------------------------------------------
      1         16           0       -1.487164   -0.027807    0.117394
      2          6           0       -0.661079   -1.401508   -0.787652
      3          6           0        0.544624   -2.085203   -0.112238
      4          6           0        1.490629   -1.027353    0.353401
      5          6           0        1.530142    1.063353   -0.399592
      6          6           0        0.517544    2.073265    0.042720
      7          6           0       -0.860178    1.604970   -0.431734
      8          6           0        2.811755   -0.689543    0.048022
      9          6           0        2.819900    0.720267    0.016906
     10          1           0        1.192147    0.513398   -1.266513
     11          1           0        1.049523   -0.456585    1.155410
     12          8           0       -1.225618   -0.168211    1.547975
     13          8           0       -2.860599   -0.048511   -0.381383
     14          1           0       -1.494688   -2.092671   -0.919310
     15          1           0       -0.405722   -0.998325   -1.768115
     16          1           0        0.987578   -2.767526   -0.841505
     17          1           0        0.181139   -2.673911    0.733738
     18          1           0        0.688453    3.067245   -0.388131
     19          1           0        0.525050    2.189502    1.128218
     20          1           0       -0.924465    1.577275   -1.521063
     21          1           0       -1.662824    2.249526   -0.069929
     22          1           0        3.606972   -1.378000   -0.217446
     23          1           0        3.581171    1.399272    0.384597
 ---------------------------------------------------------------------

 SCF Done:  E(RHF) =  -857.564248929     A.U. after    2 cycles

 The electronic state is 1-A.
 Alpha  occ. eigenvalues --  -94.18398 -20.53079 -20.52655 -11.29746 -11.29526
 Alpha  occ. eigenvalues --  -11.27027 -11.26813 -11.26665 -11.26489 -11.24270
 Alpha  occ. eigenvalues --  -11.24190  -8.43739  -6.41840  -6.41629  -6.41557
 Alpha  occ. eigenvalues --   -1.54080  -1.42419  -1.16086  -1.10241  -1.09483
 Alpha  occ. eigenvalues --   -0.97774  -0.97177  -0.86694  -0.84854  -0.79736
 Alpha  occ. eigenvalues --   -0.75348  -0.70582  -0.69133  -0.66937  -0.65586
 Alpha  occ. eigenvalues --   -0.63958  -0.63032  -0.62217  -0.60893  -0.58877
 Alpha  occ. eigenvalues --   -0.56666  -0.55341  -0.53897  -0.53297  -0.52380
 Alpha  occ. eigenvalues --   -0.48044  -0.47233  -0.45143  -0.42498  -0.34923
 Alpha  occ. eigenvalues --   -0.33414
 Alpha virt. eigenvalues --    0.02786   0.02877   0.03144   0.04110   0.04771
 Alpha virt. eigenvalues --    0.05516   0.05577   0.06036   0.07221   0.07865
 Alpha virt. eigenvalues --    0.08560   0.09187   0.09723   0.10798   0.11757

 Mulliken charges:
               1
     1  S    3.781990
     2  C   -0.763743
     3  C   -0.420779
     4  C    0.020405
     5  C   -0.037211
     6  C   -0.447642
     7  C   -0.740317
     8  C    0.143929
     9  C    0.320523
    10  H    0.049179
    11  H    0.214089
    12  O   -1.736795
    13  O   -1.680355
    14  H    0.184074
    15  H    0.225371
    16  H    0.172190
    17  H    0.193818
    18  H    0.218377
    19  H    0.182867
    20  H    0.248522
    21  H    0.199949
    22  H   -0.168687
    23  H   -0.159754
 Sum of Mulliken charges =  -0.00000

 Dipole moment (field-independent basis, Debye):
    X=              3.1921    Y=              0.4974    Z=             -2.7921  Tot=              4.2699

 Test job not archived.
 1\1\GINC-SE015\SP\RHF\Aug-CC-pVDZ\C8H12O2S1\OHZDE\09-Apr-2025\0\\#t hf
  aug-cc-pvdz iop(5/13=1,5/36=2,99/5=2) pseudo=read geom=check guess=(r
 ead,tcheck) scf=(maxcycle=1)\\title\\0,1\S,0,-1.487164,-0.027807,0.117
 394\C,0,-0.661079,-1.401508,-0.787652\C,0,0.544624,-2.085203,-0.112238
 \C,0,1.490629,-1.027353,0.353401\C,0,1.530142,1.063353,-0.399592\C,0,0
 .517544,2.073265,0.04272\C,0,-0.860178,1.60497,-0.431734\C,0,2.811755,
 -0.689543,0.048022\C,0,2.8199,0.720267,0.016906\H,0,1.192147,0.513398,
 -1.266513\H,0,1.049523,-0.456585,1.15541\O,0,-1.225618,-0.168211,1.547

 Normal termination of Gaussian 16 at Wed Apr  9 02:36:30 2025.
