 Gaussian 16, Revision C.01,

 ----------------------------------------------------------------------
 #t hf aug-cc-pvdz symm=none int=(grid=ultrafine) guess=(read,tcheck) s
 table=(opt,rrhf)
 ----------------------------------------------------------------------
 -----
 title
 -----
 Symbolic Z-matrix:
 Charge =  0 Multiplicity = 1

 SCF Done:  E(RHF) =  -679.006770612     A.U. after   14 cycles
 Normal termination of Gaussian 16 at Wed Apr  9 01:19:11 2025.
 Gaussian 16:  ES64L-G16RevC.01  3-Jul-2019

 ----------------------------------------------------------------------
 #t hf aug-cc-pvdz iop(5/13=1,5/36=2,99/5=2) pseudo=read geom=check gue
 ss=(read,tcheck) scf=(maxcycle=1)
 ----------------------------------------------------------------------
 -----
 title
 -----
 Structure from the checkpoint file:  "BH10_286_forward_mol2.chk"
 Charge =  0 Multiplicity = 1

                         Standard orientation:
 ---------------------------------------------------------------------
 Center     Atomic      Atomic             Coordinates (Angstroms)
 Number     Number       Type             X           Y           Z
 ---------------------------------------------------------------------
      1          6           0        0.755081   -0.482080    0.964817
      2          1           0       -0.180782   -0.604220    1.516197
      3          5           0        0.562057    0.151105   -0.449731
      4          6           0        1.367236   -1.887745    0.751810
      5          1           0        0.588943   -2.525137    0.316154
      6          1           0        1.611484   -2.334717    1.721695
      7          6           0        1.652280    0.495338    1.764258
      8          1           0        1.059261    1.393340    1.973959
      9          6           0       -4.608805   -1.909847    0.192944
     10          1           0       -4.277445   -2.801491   -0.328607
     11          1           0       -5.572431   -1.956189    0.683523
     12          6           0       -3.864263   -0.805839    0.229827
     13          6           0       -2.567182   -0.674050   -0.406890
     14          1           0       -4.224723    0.066409    0.765025
     15          1           0        1.890905    0.060180    2.740844
     16          6           0       -1.818405    0.425801   -0.338863
     17          8           0       -0.629396    0.552413   -0.998201
     18          8           0       -2.164491    1.500947    0.395819
     19          6           0       -1.970286    2.779710   -0.207449
     20          1           0       -0.914696    2.971387   -0.401424
     21          1           0       -2.531462    2.849278   -1.142724
     22          1           0       -2.352348    3.504901    0.506695
     23          6           0        2.953978    0.915715    1.064300
     24          1           0        3.374708    1.775113    1.594768
     25          1           0        3.696020    0.124572    1.163823
     26          6           0        1.895539    0.323109   -1.239772
     27          1           0        1.737225    0.765169   -2.227786
     28          6           0        2.786646    1.285658   -0.417883
     29          1           0        2.341794    2.286056   -0.480440
     30          1           0        3.774436    1.368157   -0.884633
     31          6           0        2.490776   -1.092172   -1.435235
     32          1           0        3.474985   -1.019286   -1.911039
     33          1           0        1.851528   -1.625451   -2.148598
     34          6           0        2.607124   -1.934637   -0.155220
     35          1           0        2.795103   -2.974941   -0.436752
     36          1           0        3.486431   -1.625859    0.408824
     37          1           0       -2.166436   -1.513443   -0.961667
 ---------------------------------------------------------------------

 SCF Done:  E(RHF) =  -679.718683543     A.U. after    2 cycles

 The electronic state is 1-A.
 Alpha  occ. eigenvalues --  -20.57761 -20.57202 -11.35876 -11.29810 -11.23788
 Alpha  occ. eigenvalues --  -11.22858 -11.22780 -11.22732 -11.22715 -11.22321
 Alpha  occ. eigenvalues --  -11.22295 -11.22222 -11.22176 -11.20007 -11.19970
 Alpha  occ. eigenvalues --   -7.60029  -1.54168  -1.46866  -1.12257  -1.08831
 Alpha  occ. eigenvalues --   -1.04437  -1.03168  -1.00832  -0.94406  -0.93726
 Alpha  occ. eigenvalues --   -0.91603  -0.84384  -0.79831  -0.79279  -0.77170
 Alpha  occ. eigenvalues --   -0.75614  -0.72856  -0.70160  -0.67904  -0.67371
 Alpha  occ. eigenvalues --   -0.64695  -0.62553  -0.61877  -0.60785  -0.59987
 Alpha  occ. eigenvalues --   -0.58790  -0.58711  -0.57621  -0.57205  -0.55350
 Alpha  occ. eigenvalues --   -0.54848  -0.52103  -0.51308  -0.50921  -0.50092
 Alpha  occ. eigenvalues --   -0.48791  -0.48428  -0.48379  -0.47072  -0.46808
 Alpha  occ. eigenvalues --   -0.43024  -0.42902  -0.42658  -0.39134  -0.30579
 Alpha virt. eigenvalues --    0.02669   0.03019   0.03186   0.03472   0.04417
 Alpha virt. eigenvalues --    0.04529   0.05023   0.05115   0.05417   0.06326
 Alpha virt. eigenvalues --    0.06702   0.07420   0.07637   0.08365   0.08616

 Mulliken charges:
               1
     1  C   -0.707500
     2  H   -0.022770
     3  B    2.037001
     4  C   -0.332050
     5  H    0.142049
     6  H    0.103812
     7  C   -0.147355
     8  H    0.161434
     9  C   -0.112706
    10  H   -0.146626
    11  H   -0.155851
    12  C    0.812272
    13  C    0.675431
    14  H   -0.291633
    15  H    0.106350
    16  C    2.273753
    17  O   -2.271415
    18  O   -1.640838
    19  C    0.119326
    20  H    0.162395
    21  H    0.158119
    22  H   -0.021399
    23  C   -0.287462
    24  H    0.063564
    25  H    0.209247
    26  C   -0.187026
    27  H   -0.158710
    28  C   -0.288013
    29  H    0.111511
    30  H    0.078935
    31  C   -0.265969
    32  H    0.088681
    33  H    0.116492
    34  C   -0.312631
    35  H    0.077541
    36  H    0.203072
    37  H   -0.351032
 Sum of Mulliken charges =   0.00000

 Dipole moment (field-independent basis, Debye):
    X=              1.2556    Y=              1.2291    Z=             -0.0666  Tot=              1.7583

 Test job not archived.
 1\1\GINC-SE339\SP\RHF\Aug-CC-pVDZ\C13H21B1O2\OHZDE\09-Apr-2025\0\\#t h
 f aug-cc-pvdz iop(5/13=1,5/36=2,99/5=2) pseudo=read geom=check guess=(
 read,tcheck) scf=(maxcycle=1)\\title\\0,1\C,0,0.755081,-0.48208,0.9648
 17\H,0,-0.180782,-0.60422,1.516197\B,0,0.562057,0.151105,-0.449731\C,0
 ,1.367236,-1.887745,0.75181\H,0,0.588943,-2.525137,0.316154\H,0,1.6114
 84,-2.334717,1.721695\C,0,1.65228,0.495338,1.764258\H,0,1.059261,1.393
 34,1.973959\C,0,-4.608805,-1.909847,0.192944\H,0,-4.277445,-2.801491,-
 0.328607\H,0,-5.572431,-1.956189,0.683523\C,0,-3.864263,-0.805839,0.22

 Normal termination of Gaussian 16 at Wed Apr  9 01:20:12 2025.
