 Gaussian 16, Revision C.01,

 ----------------------------------------------------------------------
 #t hf aug-cc-pvdz symm=none int=(grid=ultrafine) guess=(read,tcheck) s
 table=opt
 ----------------------------------------------------------------------
 -----
 title
 -----
 Symbolic Z-matrix:
 Charge =  0 Multiplicity = 2

 SCF Done:  E(UHF) =  -811.781572759     A.U. after   24 cycles
 Normal termination of Gaussian 16 at Wed Apr  9 00:58:54 2025.
 Gaussian 16:  ES64L-G16RevC.01  3-Jul-2019

 ----------------------------------------------------------------------
 #t hf aug-cc-pvdz iop(5/13=1,5/36=2,99/5=2) pseudo=read geom=check gue
 ss=(read,tcheck) scf=(maxcycle=1)
 ----------------------------------------------------------------------
 -----
 title
 -----
 Structure from the checkpoint file:  "BH10_152_reverse_mol2.chk"
 Charge =  0 Multiplicity = 2

                         Standard orientation:
 ---------------------------------------------------------------------
 Center     Atomic      Atomic             Coordinates (Angstroms)
 Number     Number       Type             X           Y           Z
 ---------------------------------------------------------------------
      1          7           0       -0.641872   -1.093621   -0.298929
      2          1           0        0.013284   -1.512445   -0.946766
      3          6           0       -0.107384   -0.113245    0.630670
      4          1           0       -0.743867   -0.131447    1.518681
      5          6           0        1.321067   -0.458200    1.022266
      6          6           0       -0.158801    1.300075    0.021932
      7          1           0        1.702474    0.285839    1.719720
      8          1           0        1.333813   -1.430677    1.524681
      9         16           0        2.444592   -0.605012   -0.378702
     10          8           0        0.853669    1.869001   -0.338325
     11          7           0       -1.397656    1.822720   -0.066387
     12          1           0       -1.509064    2.712287   -0.526635
     13          1           0       -2.208402    1.257120    0.155853
     14          6           0       -1.962301   -1.323785   -0.428765
     15          1           0       -2.197881   -2.110129   -1.161544
     16          8           0       -2.826497   -0.734392    0.195304
 ---------------------------------------------------------------------

 SCF Done:  E(UHF) =  -812.249999485     A.U. after    2 cycles

 The electronic state is 2-A.
 Alpha  occ. eigenvalues --  -93.97240 -20.53783 -20.52192 -15.55568 -15.52800
 Alpha  occ. eigenvalues --  -11.38213 -11.36684 -11.31126 -11.28958  -8.25274
 Alpha  occ. eigenvalues --   -6.24456  -6.22681  -6.22376  -1.48643  -1.47358
 Alpha  occ. eigenvalues --   -1.28001  -1.22873  -1.11365  -1.01306  -0.88951
 Alpha  occ. eigenvalues --   -0.88316  -0.82793  -0.78491  -0.76354  -0.71547
 Alpha  occ. eigenvalues --   -0.69390  -0.64511  -0.63542  -0.61073  -0.60145
 Alpha  occ. eigenvalues --   -0.58148  -0.57820  -0.50492  -0.47669  -0.45910
 Alpha  occ. eigenvalues --   -0.45434  -0.43542  -0.40828  -0.38806
 Alpha virt. eigenvalues --    0.03019   0.03809   0.04127   0.05121   0.05875
 Alpha virt. eigenvalues --    0.06142   0.07226   0.08358   0.09169   0.11360
 Alpha virt. eigenvalues --    0.11881   0.12462   0.12970   0.13356   0.13840

  Beta  occ. eigenvalues --  -93.96319 -20.53782 -20.52036 -15.55574 -15.52799
  Beta  occ. eigenvalues --  -11.38213 -11.36705 -11.31092 -11.29091  -8.24212
  Beta  occ. eigenvalues --   -6.22143  -6.21817  -6.20392  -1.48631  -1.47070
  Beta  occ. eigenvalues --   -1.27978  -1.22834  -1.09742  -0.97970  -0.88668
  Beta  occ. eigenvalues --   -0.85128  -0.81869  -0.78354  -0.76010  -0.71384
  Beta  occ. eigenvalues --   -0.69049  -0.64040  -0.63489  -0.60239  -0.59946
  Beta  occ. eigenvalues --   -0.57905  -0.57040  -0.49121  -0.47071  -0.45433
  Beta  occ. eigenvalues --   -0.44232  -0.42010  -0.36624
  Beta virt. eigenvalues --    0.01424   0.03070   0.03824   0.04225   0.05256
  Beta virt. eigenvalues --    0.05954   0.06204   0.07333   0.08432   0.09219
  Beta virt. eigenvalues --    0.11581   0.11967   0.12726   0.13017   0.13433

 Mulliken charges and spin densities:
               1          2
     1  N    0.726694   0.022589
     2  H    0.288952  -0.022178
     3  C   -0.946681  -0.054988
     4  H    0.115023  -0.001052
     5  C   -0.297341  -0.120880
     6  C    0.315041   0.039676
     7  H    0.077261   0.008216
     8  H    0.240334   0.017917
     9  S    0.289616   1.107359
    10  O   -1.259735  -0.000352
    11  N    0.810867  -0.004716
    12  H    0.103134   0.001234
    13  H    0.036430  -0.000160
    14  C    0.576328   0.007459
    15  H    0.070651  -0.000174
    16  O   -1.146573   0.000050
 Sum of Mulliken charges =   0.00000   1.00000

 Dipole moment (field-independent basis, Debye):
    X=             -1.1380    Y=             -2.0822    Z=              0.3696  Tot=              2.4014
                          Isotropic Fermi Contact Couplings
        Atom                 a.u.       MegaHertz       Gauss      10(-4) cm-1
     1  N(14)             -0.00289      -0.93221      -0.33264      -0.31095
     2  H(1)               0.00014       0.62016       0.22129       0.20686
     3  C(13)              0.00429       4.82262       1.72083       1.60865
     4  H(1)              -0.00072      -3.23521      -1.15440      -1.07915
     5  C(13)             -0.02609     -29.32459     -10.46374      -9.78163
     6  C(13)             -0.00216      -2.43024      -0.86717      -0.81064
     7  H(1)               0.00338      15.11993       5.39517       5.04347
     8  H(1)               0.01457      65.11524      23.23474      21.72011

 Normal termination of Gaussian 16 at Wed Apr  9 00:59:07 2025.
