 Gaussian 16, Revision C.01,

 ----------------------------------------------------------------------
 #t hf aug-cc-pvdz symm=none int=(grid=ultrafine) guess=(read,tcheck) s
 table=opt
 ----------------------------------------------------------------------
 -----
 title
 -----
 Symbolic Z-matrix:
 Charge =  0 Multiplicity = 2

 SCF Done:  E(UHF) =  -670.143783792     A.U. after   23 cycles

 1\1\GINC-SE044\Stability\UHF\Aug-CC-pVDZ\C7H13S1\OHZDE\09-Apr-2025\0\\
 #t hf aug-cc-pvdz symm=none int=(grid=ultrafine) guess=(read,tcheck) s
 table=opt\\title\\0,2\C,0,-0.496463,-0.954416,0.059733\C,0,0.745777,-1
 .436653,-0.616916\C,0,2.00947,-0.677536,-0.151529\H,0,0.647801,-1.3342
 03,-1.7009\H,0,0.893652,-2.503021,-0.409898\C,0,1.932314,0.794558,-0.4
 13261\H,0,2.874148,-1.097539,-0.677542\H,0,2.172223,-0.851898,0.915854
 \S,0,-1.569833,0.07472,-0.842651\C,0,-1.999061,1.383377,0.343564\H,0,-
 2.66614,2.066865,-0.180453\H,0,-1.101831,1.918116,0.653494\H,0,-2.5193

 Normal termination of Gaussian 16 at Wed Apr  9 01:03:55 2025.
 Gaussian 16:  ES64L-G16RevC.01  3-Jul-2019

 ----------------------------------------------------------------------
 #t hf aug-cc-pvdz iop(5/13=1,5/36=2,99/5=2) pseudo=read geom=check gue
 ss=(read,tcheck) scf=(maxcycle=1)
 ----------------------------------------------------------------------
 -----
 title
 -----
 Structure from the checkpoint file:  "BH10_22_forward_mol2.chk"
 Charge =  0 Multiplicity = 2

                         Standard orientation:
 ---------------------------------------------------------------------
 Center     Atomic      Atomic             Coordinates (Angstroms)
 Number     Number       Type             X           Y           Z
 ---------------------------------------------------------------------
      1          6           0       -0.496463   -0.954416    0.059733
      2          6           0        0.745777   -1.436653   -0.616916
      3          6           0        2.009470   -0.677536   -0.151529
      4          1           0        0.647801   -1.334203   -1.700900
      5          1           0        0.893652   -2.503021   -0.409898
      6          6           0        1.932314    0.794558   -0.413261
      7          1           0        2.874148   -1.097539   -0.677542
      8          1           0        2.172223   -0.851898    0.915854
      9         16           0       -1.569833    0.074720   -0.842651
     10          6           0       -1.999061    1.383377    0.343564
     11          1           0       -2.666140    2.066865   -0.180453
     12          1           0       -1.101831    1.918116    0.653494
     13          1           0       -2.519333    0.982949    1.211942
     14          6           0       -0.689235   -1.179533    1.520718
     15          1           0       -1.743021   -1.320077    1.775099
     16          1           0       -0.318069   -0.343559    2.129809
     17          1           0       -0.145561   -2.072490    1.840931
     18          6           0        2.018108    1.736345    0.515421
     19          1           0        1.955806    2.788774    0.265601
     20          1           0        2.162808    1.486644    1.562000
     21          1           0        1.779379    1.087069   -1.449904
 ---------------------------------------------------------------------

 SCF Done:  E(UHF) =  -670.499645297     A.U. after    2 cycles

 The electronic state is 2-A.
 Alpha  occ. eigenvalues --  -93.93879 -11.25870 -11.25559 -11.23974 -11.23794
 Alpha  occ. eigenvalues --  -11.23628 -11.23321 -11.22725  -8.22008  -6.19772
 Alpha  occ. eigenvalues --   -6.19596  -6.19593  -1.13552  -1.07780  -1.02334
 Alpha  occ. eigenvalues --   -0.97558  -0.91509  -0.86348  -0.76623  -0.73750
 Alpha  occ. eigenvalues --   -0.65109  -0.64068  -0.62979  -0.61023  -0.59120
 Alpha  occ. eigenvalues --   -0.57762  -0.56672  -0.56176  -0.53588  -0.50626
 Alpha  occ. eigenvalues --   -0.49512  -0.48386  -0.44809  -0.39540  -0.37100
 Alpha  occ. eigenvalues --   -0.28857
 Alpha virt. eigenvalues --    0.03269   0.03499   0.03842   0.04133   0.05506
 Alpha virt. eigenvalues --    0.05623   0.06060   0.06448   0.07011   0.08476
 Alpha virt. eigenvalues --    0.09004   0.09589   0.09987   0.11316   0.12215

  Beta  occ. eigenvalues --  -93.93900 -11.25745 -11.23942 -11.23935 -11.23652
  Beta  occ. eigenvalues --  -11.23564 -11.22975 -11.22768  -8.22029  -6.19972
  Beta  occ. eigenvalues --   -6.19753  -6.19361  -1.10956  -1.07113  -1.01514
  Beta  occ. eigenvalues --   -0.97110  -0.90525  -0.86190  -0.76283  -0.70600
  Beta  occ. eigenvalues --   -0.64613  -0.63337  -0.61495  -0.59527  -0.58192
  Beta  occ. eigenvalues --   -0.56972  -0.56207  -0.55342  -0.53016  -0.50148
  Beta  occ. eigenvalues --   -0.48846  -0.47839  -0.43531  -0.37204  -0.35063
  Beta virt. eigenvalues --    0.03280   0.03514   0.03799   0.04113   0.05465
  Beta virt. eigenvalues --    0.05622   0.06061   0.06411   0.07026   0.08475
  Beta virt. eigenvalues --    0.08995   0.09589   0.09906   0.10893   0.11533

 Mulliken charges and spin densities:
               1          2
     1  C    0.296565   1.454499
     2  C   -0.438284  -0.253963
     3  C   -0.485086   0.062757
     4  H    0.099057  -0.001080
     5  H    0.159677   0.010030
     6  C    1.036099   0.005095
     7  H    0.207903  -0.000052
     8  H    0.092926  -0.000943
     9  S    0.245508  -0.060216
    10  C   -0.620218   0.028590
    11  H    0.093798  -0.003564
    12  H    0.154140  -0.000256
    13  H    0.209837  -0.001879
    14  C   -0.819138  -0.285493
    15  H    0.169682   0.017977
    16  H    0.291914   0.038995
    17  H    0.036055   0.006471
    18  C   -0.245685  -0.020468
    19  H   -0.149639   0.001815
    20  H   -0.118298   0.001961
    21  H   -0.216815  -0.000277
 Sum of Mulliken charges =  -0.00000   1.00000

 Dipole moment (field-independent basis, Debye):
    X=              0.5288    Y=              0.1225    Z=              1.4432  Tot=              1.5419
                          Isotropic Fermi Contact Couplings
        Atom                 a.u.       MegaHertz       Gauss      10(-4) cm-1
     1  C(13)              0.25092     282.08528     100.65504      94.09352
     2  C(13)             -0.05431     -61.04975     -21.78407     -20.36400
     3  C(13)              0.05322      59.82414      21.34674      19.95518
     4  H(1)               0.00324      14.47745       5.16591       4.82916
     5  H(1)               0.00945      42.26239      15.08027      14.09721
     6  C(13)              0.00091       1.02416       0.36545       0.34162
     7  H(1)               0.00066       2.93779       1.04827       0.97994
     8  H(1)              -0.00133      -5.93321      -2.11712      -1.97911

 Normal termination of Gaussian 16 at Wed Apr  9 01:04:08 2025.
