 Gaussian 16, Revision C.01,

 ----------------------------------------------------------------------
 #t hf aug-cc-pvdz symm=none int=(grid=ultrafine) guess=(read,tcheck) s
 table=(opt,rrhf)
 ----------------------------------------------------------------------
 -----
 title
 -----
 Symbolic Z-matrix:
 Charge =  1 Multiplicity = 1

 SCF Done:  E(RHF) =  -841.764187007     A.U. after   16 cycles
 Normal termination of Gaussian 16 at Wed Apr  9 01:02:30 2025.
 Gaussian 16:  ES64L-G16RevC.01  3-Jul-2019

 ----------------------------------------------------------------------
 #t hf aug-cc-pvdz iop(5/13=1,5/36=2,99/5=2) pseudo=read geom=check gue
 ss=(read,tcheck) scf=(maxcycle=1)
 ----------------------------------------------------------------------
 -----
 title
 -----
 Structure from the checkpoint file:  "BH10_246_reverse_mol2.chk"
 Charge =  1 Multiplicity = 1

                         Standard orientation:
 ---------------------------------------------------------------------
 Center     Atomic      Atomic             Coordinates (Angstroms)
 Number     Number       Type             X           Y           Z
 ---------------------------------------------------------------------
      1          6           0        2.236018    0.497916   -0.000013
      2          6           0        0.851815    0.287837   -0.000006
      3          6           0        0.293198   -1.011124    0.000011
      4          6           0        0.007448    1.419272   -0.000016
      5          6           0       -1.067000   -1.166191    0.000018
      6          1           0        0.943099   -1.876544    0.000018
      7          6           0       -1.356392    1.262567   -0.000009
      8          1           0        0.434620    2.415441   -0.000030
      9          6           0       -1.887763   -0.029119    0.000010
     10          1           0       -1.517508   -2.149312    0.000030
     11          1           0       -2.018626    2.117236   -0.000017
     12          8           0        3.065289   -0.466491   -0.000010
     13          6           0        4.500300   -0.224825   -0.000010
     14          1           0        4.697247    0.846512   -0.000076
     15          1           0        4.894221   -0.700014    0.894287
     16          1           0        4.894235   -0.700125   -0.894242
     17         17           0       -3.585331   -0.232533    0.000014
     18          1           0        2.635271    1.513797   -0.000026
 ---------------------------------------------------------------------

 SCF Done:  E(RHF) =  -842.224632004     A.U. after    2 cycles

 The electronic state is 1-A.
 Alpha  occ. eigenvalues -- -105.71779 -20.81053 -11.56979 -11.49177 -11.47607
 Alpha  occ. eigenvalues --  -11.44411 -11.43723 -11.42791 -11.40974 -11.40889
 Alpha  occ. eigenvalues --  -10.76608  -7.93581  -7.93136  -7.93125  -1.75096
 Alpha  occ. eigenvalues --   -1.36133  -1.28904  -1.21372  -1.20877  -1.14817
 Alpha  occ. eigenvalues --   -1.07075  -1.02439  -0.99283  -0.92403  -0.90948
 Alpha  occ. eigenvalues --   -0.85395  -0.83497  -0.82726  -0.80286  -0.78494
 Alpha  occ. eigenvalues --   -0.75790  -0.73085  -0.71389  -0.70133  -0.69887
 Alpha  occ. eigenvalues --   -0.68705  -0.63100  -0.60584  -0.52825  -0.51398
 Alpha virt. eigenvalues --   -0.15342  -0.08051  -0.06652  -0.06011  -0.05682
 Alpha virt. eigenvalues --   -0.05185  -0.04181  -0.03800  -0.02850  -0.02229
 Alpha virt. eigenvalues --   -0.01534  -0.00911   0.00737   0.01033   0.01427

 Mulliken charges:
               1
     1  C    1.200165
     2  C    1.758936
     3  C   -0.105991
     4  C    0.109059
     5  C    0.518847
     6  H   -0.317362
     7  C    0.557893
     8  H   -0.296287
     9  C   -0.776344
    10  H   -0.162814
    11  H   -0.176305
    12  O   -1.591984
    13  C    0.026395
    14  H    0.209463
    15  H    0.187027
    16  H    0.187016
    17  Cl  -0.168981
    18  H   -0.158733
 Sum of Mulliken charges =   1.00000

 Dipole moment (field-independent basis, Debye):
    X=              8.2855    Y=              1.6191    Z=             -0.0000  Tot=              8.4422

 Test job not archived.
 1\1\GINC-SE250\SP\RHF\Aug-CC-pVDZ\C8H8Cl1O1(1+)\OHZDE\09-Apr-2025\0\\#
 t hf aug-cc-pvdz iop(5/13=1,5/36=2,99/5=2) pseudo=read geom=check gues
 s=(read,tcheck) scf=(maxcycle=1)\\title\\1,1\C,0,2.236018,0.497916,-0.
 000013\C,0,0.851815,0.287837,-0.000006\C,0,0.293198,-1.011124,0.000011
 \C,0,0.007448,1.419272,-0.000016\C,0,-1.067,-1.166191,0.000018\H,0,0.9
 43099,-1.876544,0.000018\C,0,-1.356392,1.262567,-0.000009\H,0,0.43462,
 2.415441,-0.00003\C,0,-1.887763,-0.029119,0.00001\H,0,-1.517508,-2.149
 312,0.00003\H,0,-2.018626,2.117236,-0.000017\O,0,3.065289,-0.466491,-0

 Normal termination of Gaussian 16 at Wed Apr  9 01:02:39 2025.
