 Gaussian 16, Revision C.01,

 ----------------------------------------------------------------------
 #t hf aug-cc-pvdz symm=none int=(grid=ultrafine) guess=(read,tcheck) s
 table=opt
 ----------------------------------------------------------------------
 -----
 title
 -----
 Symbolic Z-matrix:
 Charge =  0 Multiplicity = 2

 SCF Done:  E(UHF) =  -592.115995322     A.U. after   44 cycles
 Normal termination of Gaussian 16 at Wed Apr  9 01:01:28 2025.
 Gaussian 16:  ES64L-G16RevC.01  3-Jul-2019

 ----------------------------------------------------------------------
 #t hf aug-cc-pvdz iop(5/13=1,5/36=2,99/5=2) pseudo=read geom=check gue
 ss=(read,tcheck) scf=(maxcycle=1)
 ----------------------------------------------------------------------
 -----
 title
 -----
 Structure from the checkpoint file:  "BH10_186_forward_mol3.chk"
 Charge =  0 Multiplicity = 2

                         Standard orientation:
 ---------------------------------------------------------------------
 Center     Atomic      Atomic             Coordinates (Angstroms)
 Number     Number       Type             X           Y           Z
 ---------------------------------------------------------------------
      1          6           0       -0.423469   -1.198801   -0.186411
      2          6           0        0.397486   -0.055815    0.410279
      3         16           0        2.134537   -0.003838   -0.058105
      4          6           0       -1.869669   -0.748185    0.053866
      5          6           0       -1.838188    0.796647   -0.048272
      6          6           0       -0.346382    1.196461   -0.097992
      7          1           0       -0.192818   -2.166919    0.260508
      8          1           0       -0.207494   -1.265486   -1.256203
      9          1           0        0.335489   -0.080591    1.501719
     10          1           0       -2.193063   -1.053234    1.051727
     11          1           0       -2.562875   -1.200516   -0.656338
     12          1           0       -2.333030    1.252015    0.810865
     13          1           0       -2.358848    1.152841   -0.938053
     14          1           0       -0.116599    2.081763    0.494571
     15          1           0       -0.042027    1.399683   -1.127941
 ---------------------------------------------------------------------

 SCF Done:  E(UHF) =  -592.383886369     A.U. after    2 cycles

 The electronic state is 2-A.
 Alpha  occ. eigenvalues --  -93.95813 -11.26801 -11.24145 -11.23429 -11.23369
 Alpha  occ. eigenvalues --  -11.23255  -8.23877  -6.23055  -6.21290  -6.20988
 Alpha  occ. eigenvalues --   -1.15144  -1.03902  -0.97687  -0.91818  -0.79176
 Alpha  occ. eigenvalues --   -0.78125  -0.67685  -0.63999  -0.59606  -0.59405
 Alpha  occ. eigenvalues --   -0.52348  -0.50172  -0.49689  -0.49182  -0.47134
 Alpha  occ. eigenvalues --   -0.46857  -0.41976  -0.36994
 Alpha virt. eigenvalues --    0.03497   0.03701   0.03904   0.04699   0.06351
 Alpha virt. eigenvalues --    0.06522   0.06594   0.06887   0.08130   0.09603
 Alpha virt. eigenvalues --    0.12537   0.13618   0.14297   0.14507   0.15064

  Beta  occ. eigenvalues --  -93.94924 -11.26941 -11.23989 -11.23408 -11.23338
  Beta  occ. eigenvalues --  -11.23260  -8.22856  -6.20771  -6.20452  -6.19104
  Beta  occ. eigenvalues --   -1.14497  -1.00710  -0.97459  -0.87290  -0.78924
  Beta  occ. eigenvalues --   -0.76937  -0.67521  -0.63324  -0.59307  -0.58946
  Beta  occ. eigenvalues --   -0.50457  -0.49798  -0.49228  -0.49005  -0.47089
  Beta  occ. eigenvalues --   -0.45710  -0.34855
  Beta virt. eigenvalues --    0.01087   0.03535   0.03719   0.04129   0.04750
  Beta virt. eigenvalues --    0.06383   0.06601   0.06843   0.07048   0.08274
  Beta virt. eigenvalues --    0.09668   0.12612   0.13922   0.14331   0.14575

 Mulliken charges and spin densities:
               1          2
     1  C   -0.211418   0.020459
     2  C   -0.394661  -0.172360
     3  S    0.221690   1.105311
     4  C   -0.253341  -0.002207
     5  C   -0.141103   0.019464
     6  C   -0.263422   0.039352
     7  H    0.118327   0.000275
     8  H    0.161353  -0.013689
     9  H    0.101154   0.001948
    10  H    0.092118   0.000514
    11  H    0.092387   0.000258
    12  H    0.141040   0.000985
    13  H    0.140163   0.000244
    14  H    0.079627  -0.003676
    15  H    0.116086   0.003122
 Sum of Mulliken charges =  -0.00000   1.00000

 Dipole moment (field-independent basis, Debye):
    X=             -2.1355    Y=             -0.0015    Z=              0.3647  Tot=              2.1664
                          Isotropic Fermi Contact Couplings
        Atom                 a.u.       MegaHertz       Gauss      10(-4) cm-1
     1  C(13)              0.00412       4.63246       1.65298       1.54522
     2  C(13)             -0.02778     -31.23532     -11.14554     -10.41898
     3  S(33)              0.17635      60.56988      21.61284      20.20394
     4  C(13)             -0.00208      -2.34202      -0.83569      -0.78121
     5  C(13)              0.00261       2.93425       1.04701       0.97876
     6  C(13)              0.03336      37.50506      13.38274      12.51034
     7  H(1)              -0.00042      -1.88418      -0.67232      -0.62850
     8  H(1)              -0.00032      -1.44971      -0.51729      -0.48357

 Normal termination of Gaussian 16 at Wed Apr  9 01:01:34 2025.
