 Gaussian 16, Revision C.01,

 ----------------------------------------------------------------------
 #t hf aug-cc-pvdz symm=none int=(grid=ultrafine) guess=(read,tcheck) s
 table=(opt,rrhf)
 ----------------------------------------------------------------------
 -----
 title
 -----
 Symbolic Z-matrix:
 Charge =  0 Multiplicity = 1

 SCF Done:  E(RHF) =  -899.995208510     A.U. after   15 cycles
 Normal termination of Gaussian 16 at Wed Apr  9 01:02:06 2025.
 Gaussian 16:  ES64L-G16RevC.01  3-Jul-2019

 ----------------------------------------------------------------------
 #t hf aug-cc-pvdz iop(5/13=1,5/36=2,99/5=2) pseudo=read geom=check gue
 ss=(read,tcheck) scf=(maxcycle=1)
 ----------------------------------------------------------------------
 -----
 title
 -----
 Structure from the checkpoint file:  "BH10_133_forward_mol2.chk"
 Charge =  0 Multiplicity = 1

                         Standard orientation:
 ---------------------------------------------------------------------
 Center     Atomic      Atomic             Coordinates (Angstroms)
 Number     Number       Type             X           Y           Z
 ---------------------------------------------------------------------
      1          6           0       -1.540973    0.000279    0.155954
      2          6           0       -0.739592    1.242859   -0.229513
      3          6           0       -0.674752   -1.247681   -0.012071
      4          6           0       -2.150325    0.104490    1.546039
      5          1           0       -2.795688    0.980398    1.615538
      6          1           0       -1.371396    0.196314    2.305276
      7          1           0       -2.744820   -0.781035    1.772599
      8          6           0        0.580774    1.317628    0.536571
      9          1           0       -1.333047    2.140444   -0.043330
     10          1           0       -0.521183    1.207521   -1.298661
     11          6           0        0.648276   -1.117418    0.745789
     12          1           0       -0.458814   -1.386100   -1.073566
     13          1           0       -1.219785   -2.128863    0.333628
     14          7           0        1.347001    0.094070    0.354796
     15          1           0        0.404852    1.475249    1.606436
     16          1           0        1.187051    2.143179    0.173534
     17          6           0        2.592129    0.151912   -0.207528
     18          1           0        1.266211   -1.987676    0.546237
     19          1           0        0.470202   -1.095844    1.827254
     20          8           0        3.097378    1.209916   -0.539141
     21          6           0        3.332724   -1.153614   -0.404903
     22          1           0        3.489623   -1.675997    0.540673
     23          1           0        4.297909   -0.913615   -0.842453
     24          1           0        2.794726   -1.823495   -1.078669
     25         17           0       -2.939026   -0.145825   -1.019821
 ---------------------------------------------------------------------

 SCF Done:  E(RHF) =  -900.533926815     A.U. after    2 cycles

 The electronic state is 1-A.
 Alpha  occ. eigenvalues -- -105.54859 -20.50318 -15.52646 -11.35693 -11.31811
 Alpha  occ. eigenvalues --  -11.28957 -11.27165 -11.25381 -11.24863 -11.24653
 Alpha  occ. eigenvalues --  -11.24617 -10.59696  -7.76624  -7.76282  -7.76281
 Alpha  occ. eigenvalues --   -1.45641  -1.26928  -1.15604  -1.05641  -1.03912
 Alpha  occ. eigenvalues --   -1.00500  -0.97798  -0.90972  -0.89134  -0.80266
 Alpha  occ. eigenvalues --   -0.74238  -0.70377  -0.68077  -0.66625  -0.65178
 Alpha  occ. eigenvalues --   -0.64419  -0.63329  -0.60215  -0.59191  -0.58478
 Alpha  occ. eigenvalues --   -0.56928  -0.55723  -0.55357  -0.52878  -0.52597
 Alpha  occ. eigenvalues --   -0.50304  -0.49733  -0.49076  -0.44208  -0.43913
 Alpha  occ. eigenvalues --   -0.41823  -0.39722
 Alpha virt. eigenvalues --    0.02697   0.03331   0.03689   0.03943   0.04679
 Alpha virt. eigenvalues --    0.05044   0.05547   0.06147   0.06696   0.07957
 Alpha virt. eigenvalues --    0.08723   0.08943   0.09675   0.10160   0.10873

 Mulliken charges:
               1
     1  C   -1.320145
     2  C    0.313440
     3  C    0.227286
     4  C   -0.101146
     5  H    0.201703
     6  H    0.175330
     7  H    0.202949
     8  C   -0.615346
     9  H    0.146262
    10  H    0.138905
    11  C   -0.783287
    12  H    0.124676
    13  H    0.140111
    14  N    1.214167
    15  H    0.150905
    16  H    0.003698
    17  C    1.040376
    18  H   -0.021575
    19  H    0.121980
    20  O   -1.333738
    21  C   -0.621183
    22  H    0.346878
    23  H    0.019350
    24  H    0.330739
    25  Cl  -0.102337
 Sum of Mulliken charges =  -0.00000

 Dipole moment (field-independent basis, Debye):
    X=             -0.2877    Y=             -2.7054    Z=              2.6081  Tot=              3.7688

 Test job not archived.
 1\1\GINC-SE084\SP\RHF\Aug-CC-pVDZ\C8H14Cl1N1O1\OHZDE\09-Apr-2025\0\\#t
  hf aug-cc-pvdz iop(5/13=1,5/36=2,99/5=2) pseudo=read geom=check guess
 =(read,tcheck) scf=(maxcycle=1)\\title\\0,1\C,0,-1.540973,0.000279,0.1
 55954\C,0,-0.739592,1.242859,-0.229513\C,0,-0.674752,-1.247681,-0.0120
 71\C,0,-2.150325,0.10449,1.546039\H,0,-2.795688,0.980398,1.615538\H,0,
 -1.371396,0.196314,2.305276\H,0,-2.74482,-0.781035,1.772599\C,0,0.5807
 74,1.317628,0.536571\H,0,-1.333047,2.140444,-0.04333\H,0,-0.521183,1.2
 07521,-1.298661\C,0,0.648276,-1.117418,0.745789\H,0,-0.458814,-1.3861,

 Normal termination of Gaussian 16 at Wed Apr  9 01:02:29 2025.
