 Gaussian 16, Revision C.01,

 ----------------------------------------------------------------------
 #t hf aug-cc-pvdz symm=none int=(grid=ultrafine) guess=(read,tcheck) s
 table=opt
 ----------------------------------------------------------------------
 -----
 title
 -----
 Symbolic Z-matrix:
 Charge =  0 Multiplicity = 2

 SCF Done:  E(UHF) =  -1103.53867548     A.U. after   18 cycles
 Normal termination of Gaussian 16 at Wed Apr  9 01:59:17 2025.
 Gaussian 16:  ES64L-G16RevC.01  3-Jul-2019

 ----------------------------------------------------------------------
 #t hf aug-cc-pvdz iop(5/13=1,5/36=2,99/5=2) pseudo=read geom=check gue
 ss=(read,tcheck) scf=(maxcycle=1)
 ----------------------------------------------------------------------
 -----
 title
 -----
 Structure from the checkpoint file:  "BH10_46_forward_mol2.chk"
 Charge =  0 Multiplicity = 2

                         Standard orientation:
 ---------------------------------------------------------------------
 Center     Atomic      Atomic             Coordinates (Angstroms)
 Number     Number       Type             X           Y           Z
 ---------------------------------------------------------------------
      1          6           0       -1.153848   -0.847181    1.138372
      2          1           0       -1.586719   -0.092741    1.799772
      3          1           0       -1.067639   -1.759624    1.736650
      4          6           0       -2.125926   -1.110269   -0.026849
      5          1           0       -1.802353   -1.996043   -0.583298
      6          1           0       -3.111717   -1.333727    0.390479
      7          6           0       -2.243603    0.046337   -1.009489
      8          1           0       -3.012954   -0.182177   -1.749311
      9          1           0       -1.299475    0.173972   -1.550709
     10          6           0        0.207560   -0.391459    0.725600
     11          6           0        1.871339    1.184145   -0.607499
     12          6           0        2.550427   -0.165488   -0.446215
     13          1           0        1.383139    1.262742   -1.578899
     14          1           0        2.576238    2.006834   -0.489853
     15          1           0        3.133873   -0.428919   -1.328252
     16          1           0        3.197887   -0.176521    0.430582
     17          8           0       -2.628681    1.264499   -0.392401
     18          1           0       -1.837573    1.685820   -0.039534
     19         16           0        1.243515   -1.415923   -0.244368
     20         16           0        0.620301    1.317666    0.710497
 ---------------------------------------------------------------------

 SCF Done:  E(UHF) =  -1103.98118764     A.U. after    2 cycles

 The electronic state is 2-A.
 Alpha  occ. eigenvalues --  -93.96750 -93.96358 -20.53249 -11.29170 -11.29061
 Alpha  occ. eigenvalues --  -11.29012 -11.27447 -11.24574 -11.23125  -8.24872
 Alpha  occ. eigenvalues --   -8.24492  -6.22625  -6.22501  -6.22437  -6.22249
 Alpha  occ. eigenvalues --   -6.22122  -6.22062  -1.43484  -1.18616  -1.08670
 Alpha  occ. eigenvalues --   -1.03316  -1.01352  -0.93002  -0.83619  -0.82849
 Alpha  occ. eigenvalues --   -0.73970  -0.69976  -0.67711  -0.64842  -0.64483
 Alpha  occ. eigenvalues --   -0.61964  -0.57954  -0.57440  -0.56403  -0.54567
 Alpha  occ. eigenvalues --   -0.52230  -0.49830  -0.49230  -0.48542  -0.46874
 Alpha  occ. eigenvalues --   -0.44425  -0.42509  -0.38289  -0.28416
 Alpha virt. eigenvalues --    0.02834   0.03723   0.03970   0.04336   0.05336
 Alpha virt. eigenvalues --    0.05662   0.05807   0.06732   0.07712   0.08297
 Alpha virt. eigenvalues --    0.09589   0.10059   0.10694   0.11596   0.12526

  Beta  occ. eigenvalues --  -93.96735 -93.96338 -20.53247 -11.29149 -11.29013
  Beta  occ. eigenvalues --  -11.27462 -11.26403 -11.24863 -11.22916  -8.24852
  Beta  occ. eigenvalues --   -8.24471  -6.22765  -6.22574  -6.22380  -6.22189
  Beta  occ. eigenvalues --   -6.22152  -6.21751  -1.43477  -1.16904  -1.07574
  Beta  occ. eigenvalues --   -1.02914  -0.99684  -0.92941  -0.83406  -0.81887
  Beta  occ. eigenvalues --   -0.71084  -0.69107  -0.67373  -0.64581  -0.64278
  Beta  occ. eigenvalues --   -0.60748  -0.57269  -0.56948  -0.55388  -0.52650
  Beta  occ. eigenvalues --   -0.51318  -0.49511  -0.48886  -0.47078  -0.44460
  Beta  occ. eigenvalues --   -0.42987  -0.40783  -0.35972
  Beta virt. eigenvalues --    0.02837   0.03707   0.03967   0.04345   0.05337
  Beta virt. eigenvalues --    0.05636   0.05779   0.06751   0.07742   0.08299
  Beta virt. eigenvalues --    0.09640   0.10031   0.10314   0.10779   0.11848

 Mulliken charges and spin densities:
               1          2
     1  C   -0.374472  -0.252647
     2  H    0.186521  -0.000349
     3  H    0.203939   0.011382
     4  C   -0.488359   0.074328
     5  H    0.212612  -0.006679
     6  H    0.143128  -0.000631
     7  C    0.741067  -0.005543
     8  H    0.007921  -0.000734
     9  H    0.192388  -0.009813
    10  C   -0.304549   1.274155
    11  C   -0.649310  -0.019376
    12  C   -0.578211  -0.014493
    13  H    0.172813  -0.005865
    14  H    0.187922  -0.000525
    15  H    0.185971  -0.001534
    16  H    0.199059  -0.001233
    17  O   -1.215666   0.001147
    18  H    0.433522  -0.001350
    19  S    0.445594  -0.009311
    20  S    0.298110  -0.030926
 Sum of Mulliken charges =  -0.00000   1.00000

 Dipole moment (field-independent basis, Debye):
    X=              2.9544    Y=             -0.2798    Z=             -0.8840  Tot=              3.0965
                          Isotropic Fermi Contact Couplings
        Atom                 a.u.       MegaHertz       Gauss      10(-4) cm-1
     1  C(13)             -0.05008     -56.29443     -20.08725     -18.77780
     2  H(1)               0.00312      13.95700       4.98020       4.65555
     3  H(1)               0.00972      43.45936      15.50738      14.49648
     4  C(13)              0.04355      48.95449      17.46818      16.32946
     5  H(1)              -0.00137      -6.12634      -2.18603      -2.04353
     6  H(1)              -0.00000      -0.02006      -0.00716      -0.00669
     7  C(13)             -0.00302      -3.39910      -1.21288      -1.13382
     8  H(1)               0.00001       0.03369       0.01202       0.01124

 Normal termination of Gaussian 16 at Wed Apr  9 01:59:53 2025.
