 Gaussian 16, Revision C.01,

 ----------------------------------------------------------------------
 #t hf aug-cc-pvdz symm=none int=(grid=ultrafine) guess=(read,tcheck) s
 table=(opt,rrhf)
 ----------------------------------------------------------------------
 -----
 title
 -----
 Symbolic Z-matrix:
 Charge =  1 Multiplicity = 1

 SCF Done:  E(RHF) =  -459.771694170     A.U. after   15 cycles
 Normal termination of Gaussian 16 at Wed Apr  9 00:55:22 2025.
 Gaussian 16:  ES64L-G16RevC.01  3-Jul-2019

 ----------------------------------------------------------------------
 #t hf aug-cc-pvdz iop(5/13=1,5/36=2,99/5=2) pseudo=read geom=check gue
 ss=(read,tcheck) scf=(maxcycle=1)
 ----------------------------------------------------------------------
 -----
 title
 -----
 Structure from the checkpoint file:  "BH10-RE_126_mol2.chk"
 Charge =  1 Multiplicity = 1

                         Standard orientation:
 ---------------------------------------------------------------------
 Center     Atomic      Atomic             Coordinates (Angstroms)
 Number     Number       Type             X           Y           Z
 ---------------------------------------------------------------------
      1          6           0       -0.929434    0.282921   -0.000001
      2          6           0       -0.040676    1.379010   -0.000035
      3          6           0        1.302991    1.161922   -0.000038
      4          7           0        1.736506   -0.111756   -0.000007
      5          6           0        0.955057   -1.196085    0.000027
      6          6           0       -0.402758   -1.022902    0.000031
      7          9           0        3.070203   -0.309615   -0.000010
      8          8           0       -2.202490    0.573467   -0.000001
      9          1           0       -0.432456    2.386647   -0.000060
     10          1           0        2.064341    1.930138   -0.000063
     11          1           0        1.459434   -2.153228    0.000050
     12          1           0       -1.034200   -1.898260    0.000059
     13          6           0       -3.196646   -0.468406    0.000026
     14          1           0       -4.149955    0.049372    0.000009
     15          1           0       -3.102912   -1.076149    0.900638
     16          1           0       -3.102908   -1.076200   -0.900551
 ---------------------------------------------------------------------

 SCF Done:  E(RHF) =  -460.222815240     A.U. after    2 cycles

 The electronic state is 1-A.
 Alpha  occ. eigenvalues --  -26.71548 -20.76798 -15.86935 -11.54230 -11.52296
 Alpha  occ. eigenvalues --  -11.51562 -11.45291 -11.44893 -11.44458  -1.85340
 Alpha  occ. eigenvalues --   -1.70732  -1.50718  -1.29598  -1.29449  -1.16067
 Alpha  occ. eigenvalues --   -1.12862  -1.05712  -1.00150  -0.95523  -0.94483
 Alpha  occ. eigenvalues --   -0.91861  -0.86420  -0.85493  -0.83967  -0.83727
 Alpha  occ. eigenvalues --   -0.80622  -0.78264  -0.77793  -0.74195  -0.69550
 Alpha  occ. eigenvalues --   -0.67911  -0.58660  -0.56676
 Alpha virt. eigenvalues --   -0.11809  -0.08937  -0.08088  -0.06523  -0.05941
 Alpha virt. eigenvalues --   -0.05006  -0.04800  -0.04658  -0.03382  -0.01500
 Alpha virt. eigenvalues --   -0.00859  -0.00530  -0.00123   0.00521   0.02137

 Mulliken charges:
               1
     1  C    0.989096
     2  C    1.162302
     3  C   -0.678760
     4  N    1.585376
     5  C   -0.896206
     6  C    1.385840
     7  F   -0.667650
     8  O   -1.686648
     9  H   -0.217617
    10  H   -0.116442
    11  H   -0.113846
    12  H   -0.303823
    13  C    0.160455
    14  H    0.011173
    15  H    0.193375
    16  H    0.193374
 Sum of Mulliken charges =   1.00000

 Dipole moment (field-independent basis, Debye):
    X=             -0.6283    Y=             -1.0302    Z=              0.0000  Tot=              1.2067

 Test job not archived.
 1\1\GINC-SE105\SP\RHF\Aug-CC-pVDZ\C6H7F1N1O1(1+)\OHZDE\09-Apr-2025\0\\
 #t hf aug-cc-pvdz iop(5/13=1,5/36=2,99/5=2) pseudo=read geom=check gue
 ss=(read,tcheck) scf=(maxcycle=1)\\title\\1,1\C,0,-0.929434,0.282921,-
 0.000001\C,0,-0.040676,1.37901,-0.000035\C,0,1.302991,1.161922,-0.0000
 38\N,0,1.736506,-0.111756,-0.000007\C,0,0.955057,-1.196085,0.000027\C,
 0,-0.402758,-1.022902,0.000031\F,0,3.070203,-0.309615,-0.00001\O,0,-2.
 20249,0.573467,-0.000001\H,0,-0.432456,2.386647,-0.00006\H,0,2.064341,
 1.930138,-0.000063\H,0,1.459434,-2.153228,0.00005\H,0,-1.0342,-1.89826

 Normal termination of Gaussian 16 at Wed Apr  9 00:55:29 2025.
