 Gaussian 16, Revision C.01,

 ----------------------------------------------------------------------
 #t hf aug-cc-pvdz symm=none int=(grid=ultrafine) guess=(read,tcheck) s
 table=(opt,rrhf)
 ----------------------------------------------------------------------
 -----
 title
 -----
 Symbolic Z-matrix:
 Charge =  0 Multiplicity = 1

 SCF Done:  E(RHF) =  -1310.45451640     A.U. after   17 cycles
 Normal termination of Gaussian 16 at Wed Apr  9 02:26:04 2025.
 Gaussian 16:  ES64L-G16RevC.01  3-Jul-2019

 ----------------------------------------------------------------------
 #t hf aug-cc-pvdz iop(5/13=1,5/36=2,99/5=2) pseudo=read geom=check gue
 ss=(read,tcheck) scf=(maxcycle=1)
 ----------------------------------------------------------------------
 -----
 title
 -----
 Structure from the checkpoint file:  "BH10_88_forward_mol1.chk"
 Charge =  0 Multiplicity = 1

                         Standard orientation:
 ---------------------------------------------------------------------
 Center     Atomic      Atomic             Coordinates (Angstroms)
 Number     Number       Type             X           Y           Z
 ---------------------------------------------------------------------
      1          6           0        0.080678   -0.433051   -0.314444
      2          6           0        0.315333   -0.210657    1.100274
      3          6           0       -1.573670   -2.458912   -0.151011
      4          8           0       -2.045119   -1.869222   -1.245082
      5          6           0       -2.144360   -1.913152    0.993942
      6          6           0       -2.831004   -0.794902    0.582237
      7          6           0       -2.568408   -0.658541   -0.807726
      8          6           0       -0.960827    0.315059   -0.909126
      9          6           0       -1.342538    1.680537   -0.385936
     10          8           0       -0.272612    2.476911   -0.341786
     11          8           0       -2.460368    2.049469   -0.140438
     12          8           0       -0.416993    0.463616    1.800805
     13          8           0        1.411874   -0.820236    1.603130
     14          6           0        1.660193   -0.591247    2.991841
     15          6           0       -0.501333    3.792476    0.174486
     16         16           0        1.216649   -1.341810   -1.324517
     17          6           0        2.332938   -0.017518   -1.916790
     18          6           0        3.046857    0.727341   -0.800283
     19          8           0        3.810199   -0.119679    0.028534
     20          1           0       -0.975789   -3.344849   -0.296343
     21          1           0       -1.987602   -2.260240    2.002039
     22          1           0       -3.329820   -0.057778    1.187243
     23          1           0       -3.217517   -0.170756   -1.519160
     24          1           0        2.576354   -1.130607    3.218515
     25          1           0        0.834528   -0.968051    3.595231
     26          1           0        1.786620    0.473331    3.186759
     27          1           0        0.462491    4.292729    0.136226
     28          1           0       -0.860259    3.726479    1.201205
     29          1           0       -1.234973    4.320288   -0.433957
     30          1           0       -0.895199    0.341850   -1.994655
     31          1           0        1.768674    0.682744   -2.536576
     32          1           0        3.056851   -0.535595   -2.549036
     33          1           0        2.315928    1.300567   -0.217558
     34          1           0        3.744304    1.442283   -1.242882
     35          1           0        3.190029   -0.714898    0.469142
 ---------------------------------------------------------------------

 SCF Done:  E(RHF) =  -1311.42519881     A.U. after    2 cycles

 The electronic state is 1-A.
 Alpha  occ. eigenvalues --  -93.93855 -20.62972 -20.59141 -20.58241 -20.53596
 Alpha  occ. eigenvalues --  -20.52497 -20.51508 -11.39630 -11.37500 -11.36330
 Alpha  occ. eigenvalues --  -11.32933 -11.29459 -11.29211 -11.29113 -11.28327
 Alpha  occ. eigenvalues --  -11.27364 -11.26529 -11.25427 -11.25082  -8.21859
 Alpha  occ. eigenvalues --   -6.19695  -6.19523  -6.19340  -1.57990  -1.55283
 Alpha  occ. eigenvalues --   -1.53663  -1.45738  -1.43746  -1.42985  -1.14145
 Alpha  occ. eigenvalues --   -1.12015  -1.06272  -1.03262  -1.00073  -0.96892
 Alpha  occ. eigenvalues --   -0.93872  -0.88355  -0.83894  -0.83121  -0.81486
 Alpha  occ. eigenvalues --   -0.79495  -0.78318  -0.76246  -0.73584  -0.70255
 Alpha  occ. eigenvalues --   -0.69082  -0.68213  -0.67517  -0.66922  -0.65880
 Alpha  occ. eigenvalues --   -0.64867  -0.63696  -0.62973  -0.61426  -0.60732
 Alpha  occ. eigenvalues --   -0.59837  -0.59302  -0.58227  -0.57277  -0.56669
 Alpha  occ. eigenvalues --   -0.55430  -0.54628  -0.53237  -0.52799  -0.52318
 Alpha  occ. eigenvalues --   -0.48790  -0.46776  -0.46157  -0.45495  -0.45170
 Alpha  occ. eigenvalues --   -0.44062  -0.43148  -0.42397  -0.40600  -0.34900
 Alpha  occ. eigenvalues --   -0.30955
 Alpha virt. eigenvalues --    0.02888   0.03137   0.03306   0.03609   0.04049
 Alpha virt. eigenvalues --    0.04606   0.04785   0.05284   0.05397   0.06025
 Alpha virt. eigenvalues --    0.07101   0.07523   0.07855   0.08143   0.08533

 Mulliken charges:
               1
     1  C    1.114689
     2  C    1.984706
     3  C    0.780637
     4  O   -1.659019
     5  C    0.750364
     6  C    0.247925
     7  C    1.146133
     8  C   -1.397551
     9  C    3.117155
    10  O   -1.642013
    11  O   -1.471849
    12  O   -1.538097
    13  O   -1.876572
    14  C    0.189855
    15  C    0.140997
    16  S    0.247029
    17  C   -0.832801
    18  C    1.024926
    19  O   -1.396207
    20  H   -0.214995
    21  H   -0.204840
    22  H   -0.134940
    23  H   -0.049789
    24  H   -0.017810
    25  H    0.112434
    26  H    0.254953
    27  H   -0.003707
    28  H    0.231596
    29  H    0.132919
    30  H   -0.029147
    31  H    0.164690
    32  H    0.124080
    33  H    0.169367
    34  H   -0.016772
    35  H    0.551654
 Sum of Mulliken charges =  -0.00000

 Dipole moment (field-independent basis, Debye):
    X=             -2.2999    Y=             -0.3473    Z=              0.3655  Tot=              2.3545

 Test job not archived.
 1\1\GINC-SE247\SP\RHF\Aug-CC-pVDZ\C12H16O6S1\OHZDE\09-Apr-2025\0\\#t h
 f aug-cc-pvdz iop(5/13=1,5/36=2,99/5=2) pseudo=read geom=check guess=(
 read,tcheck) scf=(maxcycle=1)\\title\\0,1\C,0,0.080678,-0.433051,-0.31
 4444\C,0,0.315333,-0.210657,1.100274\C,0,-1.57367,-2.458912,-0.151011\
 O,0,-2.045119,-1.869222,-1.245082\C,0,-2.14436,-1.913152,0.993942\C,0,
 -2.831004,-0.794902,0.582237\C,0,-2.568408,-0.658541,-0.807726\C,0,-0.
 960827,0.315059,-0.909126\C,0,-1.342538,1.680537,-0.385936\O,0,-0.2726
 12,2.476911,-0.341786\O,0,-2.460368,2.049469,-0.140438\O,0,-0.416993,0

 Normal termination of Gaussian 16 at Wed Apr  9 02:27:18 2025.
