 Gaussian 16, Revision C.01,

 ----------------------------------------------------------------------
 #t hf aug-cc-pvdz symm=none int=(grid=ultrafine) guess=(read,tcheck) s
 table=(opt,rrhf)
 ----------------------------------------------------------------------
 -----
 title
 -----
 Symbolic Z-matrix:
 Charge =  0 Multiplicity = 1

 SCF Done:  E(RHF) =  -816.711955927     A.U. after   12 cycles
 Normal termination of Gaussian 16 at Wed Apr  9 01:06:00 2025.
 Gaussian 16:  ES64L-G16RevC.01  3-Jul-2019

 ----------------------------------------------------------------------
 #t hf aug-cc-pvdz iop(5/13=1,5/36=2,99/5=2) pseudo=read geom=check gue
 ss=(read,tcheck) scf=(maxcycle=1)
 ----------------------------------------------------------------------
 -----
 title
 -----
 Structure from the checkpoint file:  "BH10_220_forward_mol2.chk"
 Charge =  0 Multiplicity = 1

                         Standard orientation:
 ---------------------------------------------------------------------
 Center     Atomic      Atomic             Coordinates (Angstroms)
 Number     Number       Type             X           Y           Z
 ---------------------------------------------------------------------
      1         15           0       -0.000005   -0.034407   -0.491496
      2          8           0       -0.000024   -0.274413   -1.956679
      3          7           0       -1.399264   -0.651900    0.194465
      4          7           0        0.000073    1.537030    0.095300
      5          7           0        1.399205   -0.652028    0.194450
      6          6           0        1.682758   -0.576071    1.614786
      7          1           0        1.370242   -1.482038    2.150140
      8          1           0        2.759659   -0.452286    1.767383
      9          1           0        1.180648    0.281903    2.058327
     10          6           0        2.133270   -1.690944   -0.510638
     11          1           0        3.208760   -1.521858   -0.397332
     12          1           0        1.902231   -2.690393   -0.119318
     13          1           0        1.881790   -1.657940   -1.568089
     14          6           0       -2.133462   -1.690714   -0.510635
     15          1           0       -1.882005   -1.657706   -1.568092
     16          1           0       -1.902520   -2.690200   -0.119353
     17          1           0       -3.208929   -1.521514   -0.397294
     18          6           0       -1.682759   -0.575961    1.614813
     19          6           0       -1.209618    2.336233   -0.065713
     20          1           0       -1.226883    3.120303    0.695938
     21          1           0       -1.251298    2.812055   -1.052854
     22          1           0       -2.093190    1.713751    0.053497
     23          6           0        1.209829    2.336126   -0.065764
     24          1           0        1.251505    2.811951   -1.052903
     25          1           0        1.227201    3.120189    0.695892
     26          1           0        2.093351    1.713563    0.053399
     27          1           0       -1.180555    0.281953    2.058363
     28          1           0       -1.370309   -1.481973    2.150127
     29          1           0       -2.759644   -0.452079    1.767451
 ---------------------------------------------------------------------

 SCF Done:  E(RHF) =  -817.267010829     A.U. after    2 cycles

 The electronic state is 1-A.
 Alpha  occ. eigenvalues --  -84.38536 -20.46527 -15.49645 -15.49127 -15.49017
 Alpha  occ. eigenvalues --  -11.26583 -11.26572 -11.26023 -11.26021 -11.25282
 Alpha  occ. eigenvalues --  -11.25280  -6.83823  -4.37951  -4.37291  -4.37013
 Alpha  occ. eigenvalues --   -1.37662  -1.24264  -1.20831  -1.20381  -0.97299
 Alpha  occ. eigenvalues --   -0.97202  -0.96419  -0.95116  -0.87334  -0.86927
 Alpha  occ. eigenvalues --   -0.75346  -0.69912  -0.69498  -0.66640  -0.65028
 Alpha  occ. eigenvalues --   -0.64909  -0.63566  -0.62335  -0.62011  -0.58702
 Alpha  occ. eigenvalues --   -0.56261  -0.55950  -0.55233  -0.54484  -0.53559
 Alpha  occ. eigenvalues --   -0.53279  -0.53272  -0.52924  -0.51443  -0.45730
 Alpha  occ. eigenvalues --   -0.42874  -0.42208  -0.39628  -0.38513
 Alpha virt. eigenvalues --    0.03498   0.03824   0.04021   0.04298   0.04542
 Alpha virt. eigenvalues --    0.04651   0.05010   0.05409   0.06206   0.07678
 Alpha virt. eigenvalues --    0.08041   0.08469   0.08471   0.09061   0.09431

 Mulliken charges:
               1
     1  P    2.156793
     2  O   -2.046457
     3  N    0.169291
     4  N   -0.490260
     5  N    0.169271
     6  C   -0.487543
     7  H    0.089545
     8  H    0.008801
     9  H    0.144546
    10  C   -0.307269
    11  H    0.173540
    12  H    0.240203
    13  H    0.080745
    14  C   -0.307265
    15  H    0.080748
    16  H    0.240206
    17  H    0.173537
    18  C   -0.487558
    19  C   -0.348116
    20  H    0.148935
    21  H    0.197972
    22  H    0.079326
    23  C   -0.348105
    24  H    0.197972
    25  H    0.148934
    26  H    0.079330
    27  H    0.144541
    28  H    0.089533
    29  H    0.008804
 Sum of Mulliken charges =  -0.00000

 Dipole moment (field-independent basis, Debye):
    X=              0.0000    Y=              0.3853    Z=              3.9906  Tot=              4.0092

 Test job not archived.
 1\1\GINC-SE038\SP\RHF\Aug-CC-pVDZ\C6H18N3O1P1\OHZDE\09-Apr-2025\0\\#t
 hf aug-cc-pvdz iop(5/13=1,5/36=2,99/5=2) pseudo=read geom=check guess=
 (read,tcheck) scf=(maxcycle=1)\\title\\0,1\P,0,-0.000005,-0.034407,-0.
 491496\O,0,-0.000024,-0.274413,-1.956679\N,0,-1.399264,-0.6519,0.19446
 5\N,0,0.000073,1.53703,0.0953\N,0,1.399205,-0.652028,0.19445\C,0,1.682
 758,-0.576071,1.614786\H,0,1.370242,-1.482038,2.15014\H,0,2.759659,-0.
 452286,1.767383\H,0,1.180648,0.281903,2.058327\C,0,2.13327,-1.690944,-
 0.510638\H,0,3.20876,-1.521858,-0.397332\H,0,1.902231,-2.690393,-0.119

 Normal termination of Gaussian 16 at Wed Apr  9 01:06:29 2025.
