 Gaussian 16, Revision C.01,

 ----------------------------------------------------------------------
 #t hf aug-cc-pvdz symm=none int=(grid=ultrafine) guess=(read,tcheck) s
 table=(opt,rrhf)
 ----------------------------------------------------------------------
 -----
 title
 -----
 Symbolic Z-matrix:
 Charge =  0 Multiplicity = 1

 SCF Done:  E(RHF) =  -728.994773131     A.U. after   14 cycles
 Normal termination of Gaussian 16 at Wed Apr  9 00:56:37 2025.
 Gaussian 16:  ES64L-G16RevC.01  3-Jul-2019

 ----------------------------------------------------------------------
 #t hf aug-cc-pvdz iop(5/13=1,5/36=2,99/5=2) pseudo=read geom=check gue
 ss=(read,tcheck) scf=(maxcycle=1)
 ----------------------------------------------------------------------
 -----
 title
 -----
 Structure from the checkpoint file:  "BH10_135_reverse_mol3.chk"
 Charge =  0 Multiplicity = 1

                         Standard orientation:
 ---------------------------------------------------------------------
 Center     Atomic      Atomic             Coordinates (Angstroms)
 Number     Number       Type             X           Y           Z
 ---------------------------------------------------------------------
      1          8           0        0.335356   -1.005984    1.316070
      2          6           0        0.502537   -0.325641    0.368838
      3          6           0       -0.477219    0.629309   -0.272524
      4          6           0       -1.915852    0.228835    0.054427
      5          1           0       -0.314518    0.579123   -1.351935
      6          6           0       -0.148749    2.049899    0.206600
      7          1           0       -2.038754    0.200506    1.139998
      8          6           0       -2.335831   -1.103231   -0.556162
      9          1           0       -2.567401    1.025641   -0.315217
     10          1           0       -2.228948   -1.089272   -1.644040
     11          1           0       -3.380574   -1.321454   -0.328886
     12          1           0       -1.736314   -1.927889   -0.166863
     13          1           0        0.877359    2.329272   -0.032113
     14          1           0       -0.290249    2.133765    1.286128
     15          1           0       -0.818401    2.759662   -0.280746
     16         17           0        2.121509   -0.324500   -0.449527
 ---------------------------------------------------------------------

 SCF Done:  E(RHF) =  -729.353717643     A.U. after    2 cycles

 The electronic state is 1-A.
 Alpha  occ. eigenvalues -- -105.57126 -20.58133 -11.41222 -11.27531 -11.25140
 Alpha  occ. eigenvalues --  -11.24704 -11.23312 -10.62022  -7.78942  -7.78585
 Alpha  occ. eigenvalues --   -7.78566  -1.53458  -1.13472  -1.07432  -1.01035
 Alpha  occ. eigenvalues --   -0.91075  -0.85604  -0.76030  -0.70554  -0.66916
 Alpha  occ. eigenvalues --   -0.63660  -0.61840  -0.60355  -0.58630  -0.56062
 Alpha  occ. eigenvalues --   -0.54188  -0.51451  -0.50359  -0.49787  -0.46875
 Alpha  occ. eigenvalues --   -0.46574  -0.43937
 Alpha virt. eigenvalues --    0.03240   0.03679   0.03897   0.04855   0.06137
 Alpha virt. eigenvalues --    0.06475   0.06754   0.07994   0.09382   0.10155
 Alpha virt. eigenvalues --    0.11045   0.11457   0.12093   0.13793   0.14385

 Mulliken charges:
               1
     1  O   -1.219742
     2  C    1.155100
     3  C   -0.785846
     4  C    0.012019
     5  H    0.208430
     6  C   -0.193200
     7  H    0.146694
     8  C   -0.336854
     9  H    0.137598
    10  H    0.168156
    11  H    0.124922
    12  H    0.160526
    13  H    0.150523
    14  H    0.256465
    15  H    0.163480
    16  Cl  -0.148271
 Sum of Mulliken charges =  -0.00000

 Dipole moment (field-independent basis, Debye):
    X=             -2.1686    Y=              1.9944    Z=             -1.2025  Tot=              3.1822

 Test job not archived.
 1\1\GINC-SE404\SP\RHF\Aug-CC-pVDZ\C5H9Cl1O1\OHZDE\09-Apr-2025\0\\#t hf
  aug-cc-pvdz iop(5/13=1,5/36=2,99/5=2) pseudo=read geom=check guess=(r
 ead,tcheck) scf=(maxcycle=1)\\title\\0,1\O,0,0.335356,-1.005984,1.3160
 7\C,0,0.502537,-0.325641,0.368838\C,0,-0.477219,0.629309,-0.272524\C,0
 ,-1.915852,0.228835,0.054427\H,0,-0.314518,0.579123,-1.351935\C,0,-0.1
 48749,2.049899,0.2066\H,0,-2.038754,0.200506,1.139998\C,0,-2.335831,-1
 .103231,-0.556162\H,0,-2.567401,1.025641,-0.315217\H,0,-2.228948,-1.08
 9272,-1.64404\H,0,-3.380574,-1.321454,-0.328886\H,0,-1.736314,-1.92788

 Normal termination of Gaussian 16 at Wed Apr  9 00:56:43 2025.
