 Gaussian 16, Revision C.01,

 ----------------------------------------------------------------------
 #t hf aug-cc-pvdz symm=none int=(grid=ultrafine) guess=(read,tcheck) s
 table=(opt,rrhf)
 ----------------------------------------------------------------------
 -----
 title
 -----
 Symbolic Z-matrix:
 Charge =  0 Multiplicity = 1

 SCF Done:  E(RHF) =  -1063.90830731     A.U. after   13 cycles
 Normal termination of Gaussian 16 at Wed Apr  9 01:40:27 2025.
 Gaussian 16:  ES64L-G16RevC.01  3-Jul-2019

 ----------------------------------------------------------------------
 #t hf aug-cc-pvdz iop(5/13=1,5/36=2,99/5=2) pseudo=read geom=check gue
 ss=(read,tcheck) scf=(maxcycle=1)
 ----------------------------------------------------------------------
 -----
 title
 -----
 Structure from the checkpoint file:  "BH10_328_forward_mol2.chk"
 Charge =  0 Multiplicity = 1

                         Standard orientation:
 ---------------------------------------------------------------------
 Center     Atomic      Atomic             Coordinates (Angstroms)
 Number     Number       Type             X           Y           Z
 ---------------------------------------------------------------------
      1          8           0        2.821036   -0.933830    0.527642
      2          6           0        3.238793   -1.782040   -0.551615
      3          1           0        3.585424   -1.176654   -1.389436
      4          1           0        4.054962   -2.384560   -0.162572
      5          1           0        2.413188   -2.422802   -0.861931
      6         15           0        1.647779    0.102911    0.378947
      7          8           0        1.374017    0.906064    1.582842
      8          8           0        2.030807    0.961250   -0.915592
      9          8           0        0.425610   -0.826146   -0.102727
     10          6           0       -0.703577   -0.239907   -0.777952
     11          6           0       -1.493449    0.733443    0.126290
     12          8           0       -2.850052    0.347881    0.014402
     13          6           0       -2.884807   -1.070293   -0.172629
     14          6           0       -1.715245   -1.329460   -1.128345
     15          1           0       -2.041642   -1.211192   -2.161836
     16          1           0       -1.271287   -2.317845   -1.016142
     17          1           0       -0.326607    0.261571   -1.671004
     18          1           0        1.478419    1.768318   -0.951542
     19          6           0       -1.371996    2.195849   -0.266798
     20          1           0       -1.140090    0.605985    1.155720
     21          8           0       -0.025733    2.651242   -0.166195
     22          1           0       -2.033050    2.799775    0.359657
     23          1           0       -1.672700    2.330311   -1.306650
     24          1           0        0.292145    2.504324    0.739051
     25          6           0       -2.767700   -1.814694    1.147752
     26          1           0       -3.847935   -1.285157   -0.636454
     27          1           0       -2.889215   -2.887941    0.984297
     28          1           0       -3.543113   -1.480303    1.838310
     29          1           0       -1.792761   -1.656579    1.613151
 ---------------------------------------------------------------------

 SCF Done:  E(RHF) =  -1064.68753484     A.U. after    2 cycles

 The electronic state is 1-A.
 Alpha  occ. eigenvalues --  -84.45415 -20.58597 -20.58125 -20.58112 -20.56391
 Alpha  occ. eigenvalues --  -20.55315 -20.50392 -11.31647 -11.31115 -11.29638
 Alpha  occ. eigenvalues --  -11.29607 -11.29354 -11.24670 -11.23031  -6.90233
 Alpha  occ. eigenvalues --   -4.44466  -4.43969  -4.43778  -1.55868  -1.48775
 Alpha  occ. eigenvalues --   -1.47648  -1.47271  -1.46012  -1.38849  -1.08515
 Alpha  occ. eigenvalues --   -1.06094  -0.98163  -0.97332  -0.90830  -0.84312
 Alpha  occ. eigenvalues --   -0.81710  -0.80889  -0.74868  -0.73142  -0.70023
 Alpha  occ. eigenvalues --   -0.68447  -0.67506  -0.67321  -0.65251  -0.64564
 Alpha  occ. eigenvalues --   -0.63644  -0.62256  -0.61069  -0.60248  -0.59257
 Alpha  occ. eigenvalues --   -0.56720  -0.55904  -0.54578  -0.53444  -0.53404
 Alpha  occ. eigenvalues --   -0.52341  -0.51359  -0.50100  -0.49285  -0.48560
 Alpha  occ. eigenvalues --   -0.47406  -0.46447  -0.46117  -0.43887  -0.42089
 Alpha virt. eigenvalues --    0.02873   0.03397   0.03557   0.04298   0.05081
 Alpha virt. eigenvalues --    0.05287   0.05627   0.06052   0.06398   0.07631
 Alpha virt. eigenvalues --    0.07972   0.08662   0.08999   0.09641   0.10228

 Mulliken charges:
               1
     1  O   -1.571709
     2  C    0.164281
     3  H    0.164632
     4  H   -0.026912
     5  H    0.188990
     6  P    4.978550
     7  O   -1.577101
     8  O   -1.519597
     9  O   -2.270848
    10  C    0.824344
    11  C    0.626163
    12  O   -1.735800
    13  C    0.645143
    14  C   -0.274394
    15  H    0.176776
    16  H    0.141206
    17  H    0.003857
    18  H    0.561448
    19  C    0.664049
    20  H    0.117308
    21  O   -1.325375
    22  H    0.141327
    23  H    0.202994
    24  H    0.477545
    25  C   -0.310916
    26  H   -0.025584
    27  H    0.166046
    28  H    0.179626
    29  H    0.213952
 Sum of Mulliken charges =  -0.00000

 Dipole moment (field-independent basis, Debye):
    X=             -1.0971    Y=             -2.8367    Z=             -3.2707  Tot=              4.4663

 Test job not archived.
 1\1\GINC-SE173\SP\RHF\Aug-CC-pVDZ\C7H15O6P1\OHZDE\09-Apr-2025\0\\#t hf
  aug-cc-pvdz iop(5/13=1,5/36=2,99/5=2) pseudo=read geom=check guess=(r
 ead,tcheck) scf=(maxcycle=1)\\title\\0,1\O,0,2.821036,-0.93383,0.52764
 2\C,0,3.238793,-1.78204,-0.551615\H,0,3.585424,-1.176654,-1.389436\H,0
 ,4.054962,-2.38456,-0.162572\H,0,2.413188,-2.422802,-0.861931\P,0,1.64
 7779,0.102911,0.378947\O,0,1.374017,0.906064,1.582842\O,0,2.030807,0.9
 6125,-0.915592\O,0,0.42561,-0.826146,-0.102727\C,0,-0.703577,-0.239907
 ,-0.777952\C,0,-1.493449,0.733443,0.12629\O,0,-2.850052,0.347881,0.014

 Normal termination of Gaussian 16 at Wed Apr  9 01:41:01 2025.
