 Gaussian 16, Revision C.01,

 ----------------------------------------------------------------------
 #t hf aug-cc-pvdz symm=none int=(grid=ultrafine) guess=(read,tcheck) s
 table=opt
 ----------------------------------------------------------------------
 -----
 title
 -----
 Symbolic Z-matrix:
 Charge =  0 Multiplicity = 2

 SCF Done:  E(UHF) =  -950.905814830     A.U. after   21 cycles
 Normal termination of Gaussian 16 at Wed Apr  9 01:08:43 2025.
 Gaussian 16:  ES64L-G16RevC.01  3-Jul-2019

 ----------------------------------------------------------------------
 #t hf aug-cc-pvdz iop(5/13=1,5/36=2,99/5=2) pseudo=read geom=check gue
 ss=(read,tcheck) scf=(maxcycle=1)
 ----------------------------------------------------------------------
 -----
 title
 -----
 Structure from the checkpoint file:  "BH10_181_forward_mol2.chk"
 Charge =  0 Multiplicity = 2

                         Standard orientation:
 ---------------------------------------------------------------------
 Center     Atomic      Atomic             Coordinates (Angstroms)
 Number     Number       Type             X           Y           Z
 ---------------------------------------------------------------------
      1          7           0        0.669444    0.496811   -0.242991
      2         16           0       -0.017765   -0.967308    0.154953
      3          8           0       -1.530369   -0.513976    0.334609
      4          6           0       -2.268509   -0.078879   -0.839908
      5          6           0       -3.629202    0.370049   -0.362093
      6          1           0       -2.328340   -0.918625   -1.532380
      7          1           0       -1.713106    0.739806   -1.303297
      8          6           0       -3.571278    1.573769    0.570655
      9          1           0       -4.123993   -0.471708    0.129256
     10          1           0       -4.219264    0.606688   -1.252877
     11          6           0        2.114415    0.667640   -0.102592
     12          6           0        2.940791   -0.584454   -0.416959
     13          6           0        2.349762    1.114906    1.356118
     14          6           0        2.481132    1.802789   -1.059929
     15          1           0        2.301949    1.504965   -2.094214
     16          1           0        3.537434    2.055701   -0.951097
     17          1           0        1.883798    2.690093   -0.847561
     18          1           0        2.749365   -1.387190    0.294728
     19          1           0        3.999722   -0.327136   -0.360689
     20          1           0        2.727060   -0.952236   -1.420767
     21          1           0        2.089561    0.320789    2.054074
     22          1           0        1.756640    2.000301    1.588098
     23          1           0        3.406486    1.363449    1.472175
     24          8           0        0.395762   -1.437119    1.452051
     25          8           0        0.096591   -1.807334   -1.018124
     26          1           0       -3.097423    2.427769    0.079636
     27          1           0       -2.997033    1.341704    1.468284
     28          1           0       -4.573247    1.877398    0.878273
 ---------------------------------------------------------------------

 SCF Done:  E(UHF) =  -951.543027094     A.U. after    2 cycles

 The electronic state is 2-A.
 Alpha  occ. eigenvalues --  -94.25076 -20.60657 -20.55367 -20.55256 -15.58349
 Alpha  occ. eigenvalues --  -11.31038 -11.29854 -11.24639 -11.23969 -11.23904
 Alpha  occ. eigenvalues --  -11.23482 -11.23115  -8.49561  -6.47677  -6.47593
 Alpha  occ. eigenvalues --   -6.47399  -1.61933  -1.48993  -1.45901  -1.28680
 Alpha  occ. eigenvalues --   -1.10030  -1.07716  -0.96437  -0.95947  -0.95832
 Alpha  occ. eigenvalues --   -0.89512  -0.83638  -0.78727  -0.74836  -0.71809
 Alpha  occ. eigenvalues --   -0.70528  -0.68039  -0.66253  -0.65190  -0.62146
 Alpha  occ. eigenvalues --   -0.61626  -0.60855  -0.59889  -0.57917  -0.56907
 Alpha  occ. eigenvalues --   -0.55455  -0.54308  -0.53759  -0.53238  -0.52573
 Alpha  occ. eigenvalues --   -0.52328  -0.50997  -0.50527  -0.49718  -0.48817
 Alpha  occ. eigenvalues --   -0.47412  -0.46798  -0.46056
 Alpha virt. eigenvalues --    0.03252   0.03638   0.03762   0.03939   0.04541
 Alpha virt. eigenvalues --    0.04820   0.05101   0.06151   0.06327   0.07460
 Alpha virt. eigenvalues --    0.07662   0.07999   0.08900   0.09263   0.10196

  Beta  occ. eigenvalues --  -94.25144 -20.60670 -20.55168 -20.55106 -15.54957
  Beta  occ. eigenvalues --  -11.31040 -11.30104 -11.24639 -11.23866 -11.23743
  Beta  occ. eigenvalues --  -11.23409 -11.23115  -8.49651  -6.47759  -6.47642
  Beta  occ. eigenvalues --   -6.47589  -1.61674  -1.48875  -1.45429  -1.20647
  Beta  occ. eigenvalues --   -1.09227  -1.06381  -0.95998  -0.95728  -0.95126
  Beta  occ. eigenvalues --   -0.88463  -0.83459  -0.78277  -0.73971  -0.70012
  Beta  occ. eigenvalues --   -0.69001  -0.66790  -0.64475  -0.62736  -0.61969
  Beta  occ. eigenvalues --   -0.61434  -0.59859  -0.58224  -0.56646  -0.56537
  Beta  occ. eigenvalues --   -0.54347  -0.53631  -0.52702  -0.52030  -0.51631
  Beta  occ. eigenvalues --   -0.50591  -0.50291  -0.49913  -0.49040  -0.48603
  Beta  occ. eigenvalues --   -0.46890  -0.44774
  Beta virt. eigenvalues --    0.02309   0.03259   0.03642   0.03840   0.04140
  Beta virt. eigenvalues --    0.04741   0.04844   0.05107   0.06164   0.06333
  Beta virt. eigenvalues --    0.07486   0.07681   0.08007   0.08909   0.09268

 Mulliken charges and spin densities:
               1          2
     1  N    1.037151   1.131529
     2  S    4.645058  -0.066703
     3  O   -1.799032  -0.005821
     4  C    0.341939  -0.001887
     5  C   -0.501155   0.000469
     6  H    0.118946  -0.000671
     7  H    0.201838  -0.004005
     8  C   -0.304146  -0.000397
     9  H    0.163248  -0.000035
    10  H    0.184285  -0.000052
    11  C   -4.324726  -0.237953
    12  C    0.306023   0.043853
    13  C    0.296149   0.086244
    14  C    0.353882   0.017790
    15  H    0.212611   0.003050
    16  H    0.224618  -0.002159
    17  H    0.211024  -0.006154
    18  H    0.228760   0.000648
    19  H    0.178060  -0.001378
    20  H    0.260781  -0.000705
    21  H    0.174847  -0.003758
    22  H    0.171529  -0.000738
    23  H    0.259569   0.004668
    24  O   -1.572676   0.011907
    25  O   -1.545982   0.032164
    26  H    0.158704   0.000031
    27  H    0.224179   0.000069
    28  H    0.094515  -0.000004
 Sum of Mulliken charges =  -0.00000   1.00000

 Dipole moment (field-independent basis, Debye):
    X=             -0.0382    Y=              3.3199    Z=             -1.2854  Tot=              3.5602
                          Isotropic Fermi Contact Couplings
        Atom                 a.u.       MegaHertz       Gauss      10(-4) cm-1
     1  N(14)              0.31756     102.60640      36.61252      34.22581
     2  S(33)             -0.08241     -28.30666     -10.10052      -9.44208
     3  O(17)             -0.00160       0.96901       0.34577       0.32323
     4  C(13)             -0.00064      -0.71854      -0.25639      -0.23968
     5  C(13)              0.00004       0.04640       0.01656       0.01548
     6  H(1)               0.00005       0.20660       0.07372       0.06891
     7  H(1)               0.00022       0.99718       0.35582       0.33262
     8  C(13)             -0.00001      -0.01043      -0.00372      -0.00348

 1\1\GINC-SE039\SP\UHF\Aug-CC-pVDZ\C7H16N1O3S1(2)\OHZDE\09-Apr-2025\0\\
 #t hf aug-cc-pvdz iop(5/13=1,5/36=2,99/5=2) pseudo=read geom=check gue
 ss=(read,tcheck) scf=(maxcycle=1)\\title\\0,2\N,0,0.669444,0.496811,-0
 .242991\S,0,-0.017765,-0.967308,0.154953\O,0,-1.530369,-0.513976,0.334
 609\C,0,-2.268509,-0.078879,-0.839908\C,0,-3.629202,0.370049,-0.362093
 \H,0,-2.32834,-0.918625,-1.53238\H,0,-1.713106,0.739806,-1.303297\C,0,
 -3.571278,1.573769,0.570655\H,0,-4.123993,-0.471708,0.129256\H,0,-4.21
 9264,0.606688,-1.252877\C,0,2.114415,0.66764,-0.102592\C,0,2.940791,-0

 Normal termination of Gaussian 16 at Wed Apr  9 01:09:18 2025.
