 Gaussian 16, Revision C.01,

 ----------------------------------------------------------------------
 #t hf aug-cc-pvdz symm=none int=(grid=ultrafine) guess=(read,tcheck) s
 table=(opt,rrhf)
 ----------------------------------------------------------------------
 -----
 title
 -----
 Symbolic Z-matrix:
 Charge =  0 Multiplicity = 1

 SCF Done:  E(RHF) =  -1125.27003155     A.U. after   15 cycles
 Normal termination of Gaussian 16 at Wed Apr  9 02:21:14 2025.
 Gaussian 16:  ES64L-G16RevC.01  3-Jul-2019

 ----------------------------------------------------------------------
 #t hf aug-cc-pvdz iop(5/13=1,5/36=2,99/5=2) pseudo=read geom=check gue
 ss=(read,tcheck) scf=(maxcycle=1)
 ----------------------------------------------------------------------
 -----
 title
 -----
 Structure from the checkpoint file:  "BH10_300_reverse_mol2.chk"
 Charge =  0 Multiplicity = 1

                         Standard orientation:
 ---------------------------------------------------------------------
 Center     Atomic      Atomic             Coordinates (Angstroms)
 Number     Number       Type             X           Y           Z
 ---------------------------------------------------------------------
      1          6           0        1.284905    2.330918    0.640552
      2          6           0        0.569877    1.166877    1.389354
      3          6           0       -1.411875    1.478220   -0.972103
      4          1           0        2.359744    2.219673    0.797572
      5          6           0       -0.687863    1.628147    2.157157
      6          1           0       -1.237754    0.752065    2.518454
      7          1           0       -0.353309    2.158203    3.055639
      8          1           0       -2.084989    1.373913   -1.827536
      9          1           0        1.271925    0.821235    2.151046
     10          6           0       -1.642071    2.551413    1.407974
     11          1           0       -2.426222    2.869560    2.102234
     12          1           0       -1.114282    3.467603    1.130042
     13          6           0       -2.317029    1.966185    0.173083
     14          1           0       -2.978836    1.153439    0.484135
     15          1           0       -2.975537    2.738244   -0.239627
     16          6           0       -0.375410    2.550118   -1.394436
     17          1           0       -0.310914    2.550400   -2.486861
     18          6           0        1.058353    2.401647   -0.875326
     19          1           0        1.496420    1.510652   -1.338053
     20          1           0        1.642026    3.240547   -1.267480
     21          1           0       -0.762064    3.538320   -1.124388
     22          1           0        1.009551    3.284200    1.101704
     23          6           0       -0.777486    0.084664   -0.737313
     24          1           0       -0.283616   -0.234088   -1.669929
     25         14           0       -2.085110   -1.310457   -0.587674
     26          6           0       -2.635366   -1.636155    1.180089
     27          1           0       -3.165417   -0.786430    1.613976
     28          1           0       -3.312784   -2.494440    1.206442
     29          1           0       -1.787560   -1.866937    1.828877
     30          6           0       -1.401215   -2.911843   -1.303086
     31          1           0       -2.209835   -3.642243   -1.396299
     32          1           0       -0.983855   -2.755715   -2.301116
     33          1           0       -0.625758   -3.366745   -0.686702
     34          6           0       -3.584790   -0.862179   -1.630594
     35          1           0       -3.307103   -0.699792   -2.675276
     36          1           0       -4.303817   -1.685753   -1.606454
     37          1           0       -4.097751    0.034014   -1.278296
     38          5           0        0.324836    0.008171    0.351250
     39          6           0        1.342501   -1.249490    0.358701
     40          6           0        1.399585   -1.858347    1.729969
     41          1           0        1.971712   -1.301044    2.463400
     42          6           0        0.806431   -2.989906    2.083647
     43          1           0        0.235466   -3.587065    1.381716
     44          1           0        0.879456   -3.365325    3.096877
     45          6           0        2.687861   -0.720666   -0.051340
     46          8           0        3.540993   -0.300417    0.686073
     47          8           0        2.819082   -0.719881   -1.391879
     48          6           0        4.035858   -0.162242   -1.895919
     49          1           0        3.976840   -0.257831   -2.976906
     50          1           0        4.120735    0.886055   -1.608326
     51          1           0        4.895187   -0.708304   -1.508187
     52          1           0        1.035497   -1.982651   -0.385492
 ---------------------------------------------------------------------

 SCF Done:  E(RHF) =  -1126.18255360     A.U. after    2 cycles

 The electronic state is 1-A.
 Alpha  occ. eigenvalues --  -69.51152 -20.58891 -20.52911 -11.38478 -11.29467
 Alpha  occ. eigenvalues --  -11.24638 -11.23072 -11.23047 -11.22897 -11.22363
 Alpha  occ. eigenvalues --  -11.22187 -11.22123 -11.22079 -11.22041 -11.21835
 Alpha  occ. eigenvalues --  -11.20807 -11.20642 -11.20511 -11.19730 -11.19180
 Alpha  occ. eigenvalues --   -7.58629  -6.18134  -3.93471  -3.93467  -3.93462
 Alpha  occ. eigenvalues --   -1.54572  -1.44894  -1.12435  -1.09370  -1.04961
 Alpha  occ. eigenvalues --   -1.04478  -1.00859  -0.98952  -0.96022  -0.93664
 Alpha  occ. eigenvalues --   -0.92798  -0.92768  -0.91568  -0.88367  -0.80345
 Alpha  occ. eigenvalues --   -0.79808  -0.79350  -0.75848  -0.72693  -0.70785
 Alpha  occ. eigenvalues --   -0.68438  -0.68076  -0.67336  -0.65192  -0.64086
 Alpha  occ. eigenvalues --   -0.63414  -0.61868  -0.61085  -0.60278  -0.59050
 Alpha  occ. eigenvalues --   -0.58384  -0.57984  -0.57899  -0.57509  -0.57038
 Alpha  occ. eigenvalues --   -0.56434  -0.55783  -0.55402  -0.54388  -0.53851
 Alpha  occ. eigenvalues --   -0.53711  -0.52850  -0.51772  -0.50737  -0.49842
 Alpha  occ. eigenvalues --   -0.49475  -0.48543  -0.47345  -0.46120  -0.45803
 Alpha  occ. eigenvalues --   -0.45168  -0.44234  -0.43987  -0.43891  -0.42832
 Alpha  occ. eigenvalues --   -0.42158  -0.41557  -0.39523  -0.36180
 Alpha virt. eigenvalues --    0.02228   0.02446   0.02580   0.03444   0.04081
 Alpha virt. eigenvalues --    0.04277   0.04390   0.04556   0.04755   0.06544
 Alpha virt. eigenvalues --    0.06635   0.06807   0.07040   0.07065   0.07367

 Mulliken charges:
               1
     1  C   -0.563010
     2  C    0.078919
     3  C    0.046586
     4  H   -0.048297
     5  C   -0.550638
     6  H    0.136295
     7  H    0.045981
     8  H    0.043037
     9  H   -0.034716
    10  C   -0.272592
    11  H    0.019273
    12  H    0.284066
    13  C   -0.257817
    14  H    0.076487
    15  H    0.108916
    16  C   -0.769386
    17  H    0.096829
    18  C    0.105699
    19  H    0.316777
    20  H   -0.058477
    21  H    0.138035
    22  H    0.088417
    23  C   -1.060230
    24  H    0.158554
    25  Si   1.996869
    26  C   -0.126702
    27  H   -0.021270
    28  H   -0.178223
    29  H    0.032750
    30  C   -0.301316
    31  H   -0.189635
    32  H    0.046819
    33  H   -0.113881
    34  C   -0.356274
    35  H   -0.062897
    36  H   -0.243964
    37  H    0.015761
    38  B    1.895987
    39  C   -0.607461
    40  C    0.736963
    41  H   -0.298676
    42  C    0.081339
    43  H   -0.143021
    44  H   -0.203870
    45  C    2.895962
    46  O   -1.600720
    47  O   -1.733360
    48  C    0.148269
    49  H    0.010469
    50  H    0.226373
    51  H    0.138895
    52  H   -0.173898
 Sum of Mulliken charges =  -0.00000

 Dipole moment (field-independent basis, Debye):
    X=             -1.2155    Y=              0.2084    Z=             -1.7915  Tot=              2.1749

 Test job not archived.
 1\1\GINC-SE459\SP\RHF\Aug-CC-pVDZ\C17H31B1O2Si1\OHZDE\09-Apr-2025\0\\#
 t hf aug-cc-pvdz iop(5/13=1,5/36=2,99/5=2) pseudo=read geom=check gues
 s=(read,tcheck) scf=(maxcycle=1)\\title\\0,1\C,0,1.284905,2.330918,0.6
 40552\C,0,0.569877,1.166877,1.389354\C,0,-1.411875,1.47822,-0.972103\H
 ,0,2.359744,2.219673,0.797572\C,0,-0.687863,1.628147,2.157157\H,0,-1.2
 37754,0.752065,2.518454\H,0,-0.353309,2.158203,3.055639\H,0,-2.084989,
 1.373913,-1.827536\H,0,1.271925,0.821235,2.151046\C,0,-1.642071,2.5514
 13,1.407974\H,0,-2.426222,2.86956,2.102234\H,0,-1.114282,3.467603,1.13

 Normal termination of Gaussian 16 at Wed Apr  9 02:24:11 2025.
