 Gaussian 16, Revision C.01,

 ----------------------------------------------------------------------
 #t hf aug-cc-pvdz symm=none int=(grid=ultrafine) guess=(read,tcheck) s
 table=(opt,rrhf)
 ----------------------------------------------------------------------
 -----
 title
 -----
 Symbolic Z-matrix:
 Charge =  0 Multiplicity = 1

 SCF Done:  E(RHF) =  -905.640949363     A.U. after   15 cycles
 Normal termination of Gaussian 16 at Wed Apr  9 00:57:12 2025.
 Gaussian 16:  ES64L-G16RevC.01  3-Jul-2019

 ----------------------------------------------------------------------
 #t hf aug-cc-pvdz iop(5/13=1,5/36=2,99/5=2) pseudo=read geom=check gue
 ss=(read,tcheck) scf=(maxcycle=1)
 ----------------------------------------------------------------------
 -----
 title
 -----
 Structure from the checkpoint file:  "BH10_104_forward_mol2.chk"
 Charge =  0 Multiplicity = 1

                         Standard orientation:
 ---------------------------------------------------------------------
 Center     Atomic      Atomic             Coordinates (Angstroms)
 Number     Number       Type             X           Y           Z
 ---------------------------------------------------------------------
      1          6           0       -2.271412    0.007798    0.000021
      2          6           0       -2.836664   -0.614559    1.265040
      3          6           0       -0.754924    0.012642    0.000002
      4          6           0       -2.836699   -0.614947   -1.264790
      5          1           0       -2.458578   -0.088276    2.141927
      6          1           0       -2.547793   -1.663733    1.341124
      7          1           0       -3.925773   -0.551725    1.254337
      8          6           0       -0.051628   -1.189656    0.000160
      9          6           0       -0.040762    1.203969   -0.000167
     10          1           0       -2.547839   -1.664147   -1.340558
     11          1           0       -2.458633   -0.088939   -2.141850
     12          1           0       -3.925807   -0.552101   -1.254078
     13          6           0        1.347622    1.200521   -0.000179
     14          6           0        2.023428   -0.006061   -0.000020
     15          6           0        1.333404   -1.207637    0.000151
     16          1           0       -0.582884   -2.134105    0.000295
     17          1           0        1.874913   -2.144137    0.000274
     18          1           0       -0.575128    2.143521   -0.000291
     19          1           0        1.900279    2.130626   -0.000311
     20         17           0        3.770859   -0.018455   -0.000033
     21          9           0       -2.703506    1.352705   -0.000180
 ---------------------------------------------------------------------

 SCF Done:  E(RHF) =  -906.171448406     A.U. after    2 cycles

 The electronic state is 1-A.
 Alpha  occ. eigenvalues -- -105.57236 -26.44360 -11.33741 -11.30937 -11.26038
 Alpha  occ. eigenvalues --  -11.25931 -11.25857 -11.25788 -11.25273 -11.24085
 Alpha  occ. eigenvalues --  -11.24075 -10.62052  -7.79020  -7.78621  -7.78604
 Alpha  occ. eigenvalues --   -1.56598  -1.19375  -1.12115  -1.07091  -1.03832
 Alpha  occ. eigenvalues --   -0.98817  -0.96439  -0.86630  -0.85588  -0.79678
 Alpha  occ. eigenvalues --   -0.73391  -0.69096  -0.66922  -0.66016  -0.64811
 Alpha  occ. eigenvalues --   -0.64130  -0.61931  -0.58727  -0.58188  -0.56228
 Alpha  occ. eigenvalues --   -0.55277  -0.55232  -0.54870  -0.52702  -0.50700
 Alpha  occ. eigenvalues --   -0.49222  -0.47461  -0.46561  -0.36481  -0.34520
 Alpha virt. eigenvalues --    0.03030   0.03587   0.03914   0.03962   0.05435
 Alpha virt. eigenvalues --    0.05796   0.06405   0.06746   0.07211   0.08493
 Alpha virt. eigenvalues --    0.09284   0.09829   0.09841   0.10869   0.12500

 Mulliken charges:
               1
     1  C    0.178220
     2  C   -0.324459
     3  C    0.863204
     4  C   -0.324454
     5  H    0.190512
     6  H    0.229241
     7  H    0.149706
     8  C    0.513498
     9  C    0.356762
    10  H    0.229241
    11  H    0.190510
    12  H    0.149706
    13  C    0.430176
    14  C   -0.430345
    15  C    0.059654
    16  H   -0.358404
    17  H   -0.203491
    18  H   -0.330895
    19  H   -0.188064
    20  Cl  -0.332974
    21  F   -1.047343
 Sum of Mulliken charges =  -0.00000

 Dipole moment (field-independent basis, Debye):
    X=             -1.7277    Y=             -1.6834    Z=              0.0003  Tot=              2.4123

 Test job not archived.
 1\1\GINC-SE457\SP\RHF\Aug-CC-pVDZ\C9H10Cl1F1\OHZDE\09-Apr-2025\0\\#t h
 f aug-cc-pvdz iop(5/13=1,5/36=2,99/5=2) pseudo=read geom=check guess=(
 read,tcheck) scf=(maxcycle=1)\\title\\0,1\C,0,-2.271412,0.007798,0.000
 021\C,0,-2.836664,-0.614559,1.26504\C,0,-0.754924,0.012642,0.000002\C,
 0,-2.836699,-0.614947,-1.26479\H,0,-2.458578,-0.088276,2.141927\H,0,-2
 .547793,-1.663733,1.341124\H,0,-3.925773,-0.551725,1.254337\C,0,-0.051
 628,-1.189656,0.00016\C,0,-0.040762,1.203969,-0.000167\H,0,-2.547839,-
 1.664147,-1.340558\H,0,-2.458633,-0.088939,-2.14185\H,0,-3.925807,-0.5

 Normal termination of Gaussian 16 at Wed Apr  9 00:57:26 2025.
