 Gaussian 16, Revision C.01,

 ----------------------------------------------------------------------
 #t hf aug-cc-pvdz symm=none int=(grid=ultrafine) guess=(read,tcheck) s
 table=(opt,rrhf)
 ----------------------------------------------------------------------
 -----
 title
 -----
 Symbolic Z-matrix:
 Charge =  0 Multiplicity = 1

 SCF Done:  E(RHF) =  -857.052333905     A.U. after   15 cycles
 Normal termination of Gaussian 16 at Wed Apr  9 01:56:38 2025.
 Gaussian 16:  ES64L-G16RevC.01  3-Jul-2019

 ----------------------------------------------------------------------
 #t hf aug-cc-pvdz iop(5/13=1,5/36=2,99/5=2) pseudo=read geom=check gue
 ss=(read,tcheck) scf=(maxcycle=1)
 ----------------------------------------------------------------------
 -----
 title
 -----
 Structure from the checkpoint file:  "BH10_413_forward_mol2.chk"
 Charge =  0 Multiplicity = 1

                         Standard orientation:
 ---------------------------------------------------------------------
 Center     Atomic      Atomic             Coordinates (Angstroms)
 Number     Number       Type             X           Y           Z
 ---------------------------------------------------------------------
      1         16           0       -1.232660   -0.235035    0.141959
      2          6           0       -0.254425   -1.390641   -0.934291
      3          6           0        0.857752   -2.243894   -0.272366
      4          6           0        1.767207   -1.315070    0.482543
      5          6           0        1.312010    1.806067   -0.440986
      6          6           0        0.011510    2.410494   -0.011708
      7          6           0       -1.119819    1.487319   -0.504020
      8          6           0        2.361568   -0.302605   -0.155653
      9          6           0        2.004770    1.009205    0.377326
     10          8           0       -0.713826   -0.245790    1.507598
     11          8           0       -2.625117   -0.605474   -0.107077
     12          1           0       -1.039831   -2.011181   -1.364814
     13          1           0        0.170658   -0.769919   -1.722763
     14          1           0        1.363439   -2.769860   -1.088104
     15          1           0        0.417690   -2.995874    0.381908
     16          1           0       -0.182986    3.398897   -0.439597
     17          1           0       -0.038670    2.498928    1.074460
     18          1           0       -1.126803    1.395083   -1.592004
     19          1           0       -2.099499    1.862509   -0.202594
     20          1           0        1.426793    1.668785   -1.515614
     21          1           0        1.843284    1.075535    1.448498
     22          1           0        2.537500   -0.364788   -1.227993
     23          1           0        1.519093   -1.182701    1.528029
 ---------------------------------------------------------------------

 SCF Done:  E(RHF) =  -857.591301255     A.U. after    2 cycles

 The electronic state is 1-A.
 Alpha  occ. eigenvalues --  -94.18269 -20.52946 -20.52456 -11.29509 -11.29305
 Alpha  occ. eigenvalues --  -11.27120 -11.26648 -11.26255 -11.25685 -11.24707
 Alpha  occ. eigenvalues --  -11.24524  -8.43595  -6.41698  -6.41490  -6.41403
 Alpha  occ. eigenvalues --   -1.53895  -1.42267  -1.15278  -1.10991  -1.08223
 Alpha  occ. eigenvalues --   -0.99415  -0.97061  -0.87780  -0.82845  -0.78751
 Alpha  occ. eigenvalues --   -0.77097  -0.71150  -0.67044  -0.66179  -0.65541
 Alpha  occ. eigenvalues --   -0.65159  -0.63599  -0.60300  -0.59654  -0.59164
 Alpha  occ. eigenvalues --   -0.56925  -0.55524  -0.53531  -0.52727  -0.51322
 Alpha  occ. eigenvalues --   -0.47713  -0.47614  -0.45319  -0.43146  -0.42197
 Alpha  occ. eigenvalues --   -0.30931
 Alpha virt. eigenvalues --    0.02450   0.02923   0.03922   0.04043   0.05211
 Alpha virt. eigenvalues --    0.05312   0.05864   0.06610   0.06781   0.08218
 Alpha virt. eigenvalues --    0.08590   0.08912   0.09673   0.11162   0.11815

 Mulliken charges:
               1
     1  S    3.925136
     2  C   -0.838191
     3  C   -0.430820
     4  C    0.412308
     5  C    0.383075
     6  C   -0.472370
     7  C   -0.740740
     8  C    0.045376
     9  C    0.234638
    10  O   -1.745212
    11  O   -1.694352
    12  H    0.187782
    13  H    0.220744
    14  H    0.205522
    15  H    0.107114
    16  H    0.160083
    17  H    0.125668
    18  H    0.185037
    19  H    0.203334
    20  H   -0.169835
    21  H   -0.107286
    22  H   -0.110612
    23  H   -0.086401
 Sum of Mulliken charges =  -0.00000

 Dipole moment (field-independent basis, Debye):
    X=              1.9762    Y=              0.8548    Z=             -3.3951  Tot=              4.0203

 Test job not archived.
 1\1\GINC-SE454\SP\RHF\Aug-CC-pVDZ\C8H12O2S1\OHZDE\09-Apr-2025\0\\#t hf
  aug-cc-pvdz iop(5/13=1,5/36=2,99/5=2) pseudo=read geom=check guess=(r
 ead,tcheck) scf=(maxcycle=1)\\title\\0,1\S,0,-1.23266,-0.235035,0.1419
 59\C,0,-0.254425,-1.390641,-0.934291\C,0,0.857753,-2.243894,-0.272366\
 C,0,1.767207,-1.315069,0.482543\C,0,1.312009,1.806067,-0.440986\C,0,0.
 011509,2.410494,-0.011708\C,0,-1.11982,1.487319,-0.50402\C,0,2.361568,
 -0.302604,-0.155653\C,0,2.00477,1.009206,0.377326\O,0,-0.713826,-0.245
 79,1.507598\O,0,-2.625117,-0.605475,-0.107077\H,0,-1.039831,-2.011181,

 Normal termination of Gaussian 16 at Wed Apr  9 01:56:56 2025.
