 Gaussian 16, Revision C.01,

 ----------------------------------------------------------------------
 #t hf aug-cc-pvdz symm=none int=(grid=ultrafine) guess=(read,tcheck) s
 table=opt
 ----------------------------------------------------------------------
 -----
 title
 -----
 Symbolic Z-matrix:
 Charge =  0 Multiplicity = 2

 SCF Done:  E(UHF) =  -2063.98463033     A.U. after   19 cycles
 Normal termination of Gaussian 16 at Wed Apr  9 02:03:58 2025.
 Gaussian 16:  ES64L-G16RevC.01  3-Jul-2019

 ----------------------------------------------------------------------
 #t hf aug-cc-pvdz iop(5/13=1,5/36=2,99/5=2) pseudo=read geom=check gue
 ss=(read,tcheck) scf=(maxcycle=1)
 ----------------------------------------------------------------------
 -----
 title
 -----
 Structure from the checkpoint file:  "BH10_293_forward_mol1.chk"
 Charge =  0 Multiplicity = 2

                         Standard orientation:
 ---------------------------------------------------------------------
 Center     Atomic      Atomic             Coordinates (Angstroms)
 Number     Number       Type             X           Y           Z
 ---------------------------------------------------------------------
      1         14           0        0.376275   -0.005322    0.001268
      2         14           0        0.540870    2.200276    0.787319
      3         14           0        2.291278   -0.654261   -1.190106
      4         14           0       -0.302155   -1.579894    1.605056
      5          6           0       -0.866181   -3.149605    0.738734
      6          1           0       -0.061651   -3.599702    0.154216
      7          1           0       -1.205470   -3.888752    1.469932
      8          1           0       -1.696048   -2.947215    0.058545
      9          6           0        1.181581   -1.963821    2.703540
     10          1           0        1.545784   -1.070083    3.215371
     11          1           0        0.912163   -2.698699    3.467613
     12          1           0        2.011024   -2.377027    2.124744
     13          6           0       -1.706570   -0.920517    2.667480
     14          1           0       -2.621731   -0.791997    2.085327
     15          1           0       -1.927158   -1.627942    3.472212
     16          1           0       -1.455744    0.036559    3.130755
     17          6           0        2.262780   -2.510575   -1.496352
     18          1           0        3.124676   -2.811004   -2.098949
     19          1           0        2.300221   -3.073458   -0.561017
     20          1           0        1.360220   -2.812079   -2.032705
     21          6           0        2.324227    0.248203   -2.838712
     22          1           0        2.375605    1.330290   -2.701938
     23          1           0        3.193054   -0.056870   -3.428939
     24          1           0        1.426596    0.031474   -3.422208
     25          6           0        3.830929   -0.217378   -0.194395
     26          1           0        3.828167   -0.705365    0.783072
     27          1           0        4.733170   -0.537103   -0.723706
     28          1           0        3.909523    0.859562   -0.028812
     29          6           0       -1.133084    2.944175    1.218225
     30          1           0       -0.994601    3.934926    1.660740
     31          1           0       -1.762453    3.063670    0.334156
     32          1           0       -1.679889    2.331900    1.937979
     33          6           0        1.602212    2.164982    2.344692
     34          1           0        2.580438    1.717288    2.156056
     35          1           0        1.765601    3.179101    2.720692
     36          1           0        1.121082    1.590697    3.139975
     37          6           0        1.371237    3.284119   -0.507839
     38          1           0        1.434566    4.318358   -0.157783
     39          1           0        2.386716    2.945060   -0.723673
     40          1           0        0.814012    3.283096   -1.447455
     41          1           0       -0.791938   -0.115112   -1.231653
     42         16           0       -1.927288   -0.378026   -2.403495
     43          6           0       -3.025778    0.924859   -1.757745
     44          6           0       -3.535016    0.619432   -0.357476
     45          8           0       -4.167456   -0.638129   -0.268416
     46          1           0       -2.513501    1.887875   -1.778502
     47          1           0       -3.860728    0.973699   -2.459885
     48          1           0       -2.701932    0.682194    0.351032
     49          1           0       -4.275263    1.366811   -0.062839
     50          1           0       -3.624023   -1.261132   -0.769539
 ---------------------------------------------------------------------

 SCF Done:  E(UHF) =  -2064.73589051     A.U. after    2 cycles

 The electronic state is 2-A.
 Alpha  occ. eigenvalues --  -93.94491 -69.51645 -69.51156 -69.51143 -69.49692
 Alpha  occ. eigenvalues --  -20.54065 -11.28606 -11.26885 -11.21677 -11.21674
 Alpha  occ. eigenvalues --  -11.21613 -11.21462 -11.21379 -11.21222 -11.20899
 Alpha  occ. eigenvalues --  -11.20870 -11.20851  -8.22552  -6.21316  -6.20048
 Alpha  occ. eigenvalues --   -6.19795  -6.18716  -6.18243  -6.18221  -6.17254
 Alpha  occ. eigenvalues --   -3.94045  -3.94031  -3.94025  -3.93558  -3.93555
 Alpha  occ. eigenvalues --   -3.93553  -3.93545  -3.93535  -3.93533  -3.92990
 Alpha  occ. eigenvalues --   -3.92325  -3.92322  -1.44564  -1.08042  -0.99063
 Alpha  occ. eigenvalues --   -0.98199  -0.97874  -0.95114  -0.93685  -0.93509
 Alpha  occ. eigenvalues --   -0.93153  -0.92962  -0.92819  -0.92481  -0.82760
 Alpha  occ. eigenvalues --   -0.75608  -0.69334  -0.65314  -0.65039  -0.64895
 Alpha  occ. eigenvalues --   -0.61685  -0.60903  -0.59528  -0.58626  -0.58521
 Alpha  occ. eigenvalues --   -0.57771  -0.57609  -0.57242  -0.57051  -0.56815
 Alpha  occ. eigenvalues --   -0.56686  -0.55936  -0.55403  -0.55227  -0.55185
 Alpha  occ. eigenvalues --   -0.54838  -0.54671  -0.54417  -0.54257  -0.53910
 Alpha  occ. eigenvalues --   -0.53689  -0.51262  -0.49800  -0.46516  -0.45189
 Alpha  occ. eigenvalues --   -0.44975  -0.44821  -0.44550  -0.44358  -0.44029
 Alpha  occ. eigenvalues --   -0.43840  -0.37342  -0.36511  -0.36026  -0.30494
 Alpha virt. eigenvalues --    0.02374   0.02485   0.02565   0.03429   0.04183
 Alpha virt. eigenvalues --    0.04364   0.04599   0.04958   0.05107   0.06406
 Alpha virt. eigenvalues --    0.06589   0.06624   0.06885   0.07101   0.07204

  Beta  occ. eigenvalues --  -93.93805 -69.51650 -69.51167 -69.51153 -69.49361
  Beta  occ. eigenvalues --  -20.54064 -11.28586 -11.26974 -11.21679 -11.21632
  Beta  occ. eigenvalues --  -11.21617 -11.21425 -11.21339 -11.21226 -11.20904
  Beta  occ. eigenvalues --  -11.20875 -11.20856  -8.21748  -6.19649  -6.19347
  Beta  occ. eigenvalues --   -6.18724  -6.18406  -6.18259  -6.18235  -6.16786
  Beta  occ. eigenvalues --   -3.94054  -3.94038  -3.94033  -3.93595  -3.93574
  Beta  occ. eigenvalues --   -3.93567  -3.93559  -3.93547  -3.93539  -3.92094
  Beta  occ. eigenvalues --   -3.92087  -3.91566  -1.44561  -1.06236  -0.98965
  Beta  occ. eigenvalues --   -0.98156  -0.97843  -0.93645  -0.93563  -0.93186
  Beta  occ. eigenvalues --   -0.92914  -0.92781  -0.92558  -0.92104  -0.81216
  Beta  occ. eigenvalues --   -0.73043  -0.69121  -0.65234  -0.64899  -0.64769
  Beta  occ. eigenvalues --   -0.61105  -0.60462  -0.58648  -0.58524  -0.58045
  Beta  occ. eigenvalues --   -0.57640  -0.57493  -0.57076  -0.56811  -0.56682
  Beta  occ. eigenvalues --   -0.56623  -0.55697  -0.55300  -0.55168  -0.54889
  Beta  occ. eigenvalues --   -0.54792  -0.54405  -0.54257  -0.54238  -0.53901
  Beta  occ. eigenvalues --   -0.53670  -0.50989  -0.47703  -0.45348  -0.45181
  Beta  occ. eigenvalues --   -0.44801  -0.44452  -0.44225  -0.44060  -0.43743
  Beta  occ. eigenvalues --   -0.43272  -0.36430  -0.36073  -0.35101
  Beta virt. eigenvalues --    0.01560   0.02377   0.02560   0.02992   0.03501
  Beta virt. eigenvalues --    0.04209   0.04387   0.04611   0.05011   0.05117
  Beta virt. eigenvalues --    0.06418   0.06593   0.06641   0.06891   0.07145

 Mulliken charges and spin densities:
               1          2
     1  Si   1.239448   0.646657
     2  Si   2.045228  -0.037315
     3  Si   1.348354  -0.057581
     4  Si   2.730070  -0.062081
     5  C   -0.479529  -0.006054
     6  H   -0.119918   0.003543
     7  H   -0.114627  -0.001265
     8  H   -0.118561   0.002588
     9  C   -0.429621   0.015338
    10  H   -0.103391  -0.007363
    11  H   -0.127349   0.003181
    12  H   -0.128604  -0.002029
    13  C   -0.423814  -0.007978
    14  H   -0.181270  -0.001761
    15  H   -0.104653  -0.001134
    16  H   -0.084946   0.006415
    17  C   -0.474770   0.000087
    18  H   -0.173368  -0.001245
    19  H   -0.067171   0.004707
    20  H   -0.013059   0.000540
    21  C   -0.441589  -0.003331
    22  H   -0.104214   0.004598
    23  H   -0.138720  -0.002186
    24  H   -0.082702   0.001756
    25  C   -0.321351   0.015336
    26  H   -0.066139  -0.005403
    27  H   -0.147716   0.002970
    28  H   -0.077969  -0.001957
    29  C   -0.384775  -0.012362
    30  H   -0.147177  -0.002646
    31  H   -0.109937   0.002013
    32  H   -0.069323   0.000731
    33  C   -0.337127   0.015046
    34  H   -0.073719  -0.007707
    35  H   -0.118201   0.004869
    36  H   -0.063284  -0.004000
    37  C   -0.480320  -0.003472
    38  H   -0.170481  -0.001804
    39  H   -0.124598   0.004145
    40  H   -0.029519   0.000560
    41  H   -0.455111  -0.172074
    42  S   -0.059733   0.720922
    43  C   -0.711844  -0.084803
    44  C    0.943911   0.029227
    45  O   -1.403197  -0.001201
    46  H    0.158220   0.005325
    47  H    0.146903   0.004440
    48  H    0.068900   0.007787
    49  H    0.129823   0.000177
    50  H    0.452540  -0.014207
 Sum of Mulliken charges =  -0.00000   1.00000

 Dipole moment (field-independent basis, Debye):
    X=              2.3557    Y=              1.5898    Z=              1.1654  Tot=              3.0716
                          Isotropic Fermi Contact Couplings
        Atom                 a.u.       MegaHertz       Gauss      10(-4) cm-1
     1  Si(29)             0.21357    -189.80819     -67.72828     -63.31320
     2  Si(29)            -0.00568       5.04969       1.80186       1.68440
     3  Si(29)            -0.01134      10.08025       3.59689       3.36241
     4  Si(29)            -0.00986       8.76137       3.12627       2.92248
     5  C(13)             -0.00129      -1.45336      -0.51859      -0.48479
     6  H(1)               0.00004       0.16130       0.05756       0.05381
     7  H(1)              -0.00028      -1.25699      -0.44853      -0.41929
     8  H(1)              -0.00002      -0.06727      -0.02400      -0.02244

 Normal termination of Gaussian 16 at Wed Apr  9 02:06:45 2025.
