 Gaussian 16, Revision C.01,

 ----------------------------------------------------------------------
 #t hf aug-cc-pvdz symm=none int=(grid=ultrafine) guess=(read,tcheck) s
 table=opt
 ----------------------------------------------------------------------
 -----
 title
 -----
 Symbolic Z-matrix:
 Charge =  0 Multiplicity = 2

 SCF Done:  E(UHF) =  -722.039462993     A.U. after   22 cycles
 Normal termination of Gaussian 16 at Wed Apr  9 01:00:34 2025.
 Gaussian 16:  ES64L-G16RevC.01  3-Jul-2019

 ----------------------------------------------------------------------
 #t hf aug-cc-pvdz iop(5/13=1,5/36=2,99/5=2) pseudo=read geom=check gue
 ss=(read,tcheck) scf=(maxcycle=1)
 ----------------------------------------------------------------------
 -----
 title
 -----
 Structure from the checkpoint file:  "BH10_169_reverse_mol2.chk"
 Charge =  0 Multiplicity = 2

                         Standard orientation:
 ---------------------------------------------------------------------
 Center     Atomic      Atomic             Coordinates (Angstroms)
 Number     Number       Type             X           Y           Z
 ---------------------------------------------------------------------
      1          6           0       -1.771319   -1.290705   -0.819498
      2         16           0       -2.128092    0.306439   -0.038520
      3          6           0       -0.654647    0.472683    1.052066
      4          6           0        0.594036    0.646301    0.279658
      5          6           0        0.877229    1.938375   -0.407345
      6          6           0        1.490735   -0.502168    0.174440
      7          8           0        1.219479   -1.589562    0.671503
      8          1           0       -0.924725   -1.225677   -1.500828
      9          1           0       -1.571285   -2.050345   -0.066044
     10          1           0       -2.661983   -1.563759   -1.384288
     11          1           0        0.005768    2.591516   -0.377261
     12          1           0        1.141683    1.793833   -1.459342
     13          1           0        1.710618    2.471844    0.068643
     14          1           0       -0.872002    1.357330    1.654519
     15          1           0       -0.597682   -0.401354    1.696820
     16          7           0        2.649932   -0.322685   -0.537494
     17          1           0        2.983033    0.590745   -0.790630
     18          1           0        3.314490   -1.078777   -0.510762
 ---------------------------------------------------------------------

 SCF Done:  E(UHF) =  -722.435886733     A.U. after    2 cycles

 The electronic state is 2-A.
 Alpha  occ. eigenvalues --  -93.93867 -20.51951 -15.52611 -11.35477 -11.27298
 Alpha  occ. eigenvalues --  -11.26602 -11.25323 -11.25079  -8.21943  -6.19878
 Alpha  occ. eigenvalues --   -6.19622  -6.19367  -1.46930  -1.22431  -1.12976
 Alpha  occ. eigenvalues --   -1.05380  -0.96063  -0.91809  -0.84074  -0.78920
 Alpha  occ. eigenvalues --   -0.74483  -0.68949  -0.65222  -0.63811  -0.60442
 Alpha  occ. eigenvalues --   -0.58984  -0.58470  -0.58209  -0.56699  -0.53930
 Alpha  occ. eigenvalues --   -0.51018  -0.46448  -0.45073  -0.44146  -0.36118
 Alpha  occ. eigenvalues --   -0.34060
 Alpha virt. eigenvalues --    0.02570   0.03676   0.04198   0.04659   0.05533
 Alpha virt. eigenvalues --    0.06115   0.06781   0.06822   0.08167   0.09597
 Alpha virt. eigenvalues --    0.10486   0.11050   0.11978   0.12892   0.13917

  Beta  occ. eigenvalues --  -93.93758 -20.50920 -15.52610 -11.35982 -11.26974
  Beta  occ. eigenvalues --  -11.25364 -11.25333 -11.25045  -8.21812  -6.19621
  Beta  occ. eigenvalues --   -6.19398  -6.19262  -1.44882  -1.22017  -1.10386
  Beta  occ. eigenvalues --   -1.03618  -0.96055  -0.90355  -0.83538  -0.78522
  Beta  occ. eigenvalues --   -0.73262  -0.67794  -0.63135  -0.61362  -0.59640
  Beta  occ. eigenvalues --   -0.58484  -0.58226  -0.56819  -0.56390  -0.53444
  Beta  occ. eigenvalues --   -0.50023  -0.44009  -0.42976  -0.41603  -0.34344
  Beta virt. eigenvalues --    0.02586   0.03668   0.04208   0.04576   0.05405
  Beta virt. eigenvalues --    0.05683   0.06158   0.06790   0.07093   0.08173
  Beta virt. eigenvalues --    0.09617   0.10583   0.11198   0.12034   0.12920

 Mulliken charges and spin densities:
               1          2
     1  C   -0.719615  -0.000042
     2  S    0.375509   0.083440
     3  C   -0.576526  -0.244602
     4  C    0.768655   1.478821
     5  C   -0.466997  -0.226131
     6  C    0.019307  -0.393444
     7  O   -1.431034   0.244503
     8  H    0.221992  -0.008050
     9  H    0.196176   0.000763
    10  H    0.097940  -0.001379
    11  H    0.016904   0.000483
    12  H    0.281384   0.018585
    13  H    0.286759   0.036524
    14  H    0.080974   0.017070
    15  H   -0.020646   0.001432
    16  N    0.731259  -0.006794
    17  H    0.023139   0.001697
    18  H    0.114818  -0.002876
 Sum of Mulliken charges =  -0.00000   1.00000

 Dipole moment (field-independent basis, Debye):
    X=              2.5132    Y=              2.2220    Z=             -1.0537  Tot=              3.5162
                          Isotropic Fermi Contact Couplings
        Atom                 a.u.       MegaHertz       Gauss      10(-4) cm-1
     1  C(13)             -0.00191      -2.15040      -0.76731      -0.71729
     2  S(33)              0.04433      15.22640       5.43316       5.07898
     3  C(13)             -0.06464     -72.66666     -25.92927     -24.23899
     4  C(13)              0.19785     222.42227      79.36580      74.19208
     5  C(13)             -0.05267     -59.21020     -21.12767     -19.75040
     6  C(13)             -0.07935     -89.20762     -31.83150     -29.75646
     7  O(17)              0.08131     -49.28785     -17.58713     -16.44066
     8  H(1)              -0.00005      -0.22840      -0.08150      -0.07619

 1\1\GINC-SE120\SP\UHF\Aug-CC-pVDZ\C5H10N1O1S1(2)\OHZDE\09-Apr-2025\0\\
 #t hf aug-cc-pvdz iop(5/13=1,5/36=2,99/5=2) pseudo=read geom=check gue
 ss=(read,tcheck) scf=(maxcycle=1)\\title\\0,2\C,0,-1.771319,-1.290705,
 -0.819498\S,0,-2.128092,0.306438,-0.03852\C,0,-0.654647,0.472683,1.052
 066\C,0,0.594036,0.646301,0.279658\C,0,0.877229,1.938375,-0.407345\C,0
 ,1.490735,-0.502168,0.17444\O,0,1.219479,-1.589562,0.671503\H,0,-0.924
 725,-1.225677,-1.500828\H,0,-1.571285,-2.050345,-0.066044\H,0,-2.66198
 3,-1.56376,-1.384288\H,0,0.005768,2.591516,-0.377261\H,0,1.141683,1.79

 Normal termination of Gaussian 16 at Wed Apr  9 01:00:43 2025.
