 Gaussian 16, Revision C.01,

 ----------------------------------------------------------------------
 #t hf aug-cc-pvdz symm=none int=(grid=ultrafine) guess=(read,tcheck) s
 table=(opt,rrhf)
 ----------------------------------------------------------------------
 -----
 title
 -----
 Symbolic Z-matrix:
 Charge =  0 Multiplicity = 1

 SCF Done:  E(RHF) =  -1667.48047493     A.U. after   14 cycles
 Normal termination of Gaussian 16 at Wed Apr  9 02:23:47 2025.
 Gaussian 16:  ES64L-G16RevC.01  3-Jul-2019

 ----------------------------------------------------------------------
 #t hf aug-cc-pvdz iop(5/13=1,5/36=2,99/5=2) pseudo=read geom=check gue
 ss=(read,tcheck) scf=(maxcycle=1)
 ----------------------------------------------------------------------
 -----
 title
 -----
 Structure from the checkpoint file:  "BH10_358_reverse_mol2.chk"
 Charge =  0 Multiplicity = 1

                         Standard orientation:
 ---------------------------------------------------------------------
 Center     Atomic      Atomic             Coordinates (Angstroms)
 Number     Number       Type             X           Y           Z
 ---------------------------------------------------------------------
      1          6           0       -0.687031    2.030998   -0.322779
      2          6           0       -0.449015    0.619143    0.143161
      3          6           0        0.804930    0.256833    0.843948
      4          6           0        2.011153    0.364396   -0.189211
      5          6           0        3.314412    0.085713    0.573431
      6          6           0        4.483895    0.192458   -0.373641
      7          7           0       -1.286502   -0.338073   -0.068066
      8          6           0       -2.588944   -0.234682   -0.719624
      9          6           0       -3.714522   -0.048657    0.291450
     10          1           0       -2.738331   -1.149991   -1.294052
     11          1           0       -2.557462    0.593364   -1.427231
     12          6           0       -5.070867    0.049869   -0.395874
     13          1           0       -3.520010    0.849998    0.885484
     14          1           0       -3.712572   -0.892460    0.988448
     15          6           0       -6.207053    0.237490    0.605314
     16          1           0       -5.258754   -0.848507   -0.984876
     17          1           0       -5.065764    0.895389   -1.094067
     18          6           0       -7.601131    0.320696   -0.024326
     19          1           0       -6.043260    1.164473    1.164512
     20          1           0       -6.194059   -0.579397    1.335180
     21          6           0       -8.087711   -1.043373   -0.546790
     22          7           0       -8.632228    0.881735    0.853897
     23          1           0       -7.550960    0.960401   -0.911806
     24          8           0       -7.363452   -1.852086   -1.057705
     25          8           0       -9.395493   -1.236703   -0.405927
     26          1           0       -9.729652   -0.451073    0.077740
     27          8           0        0.271217    2.907808    0.122066
     28          1           0       -1.681194    2.341181    0.023590
     29          1           0       -0.734352    1.977799   -1.425663
     30          1           0        1.157673    2.510428   -0.274574
     31          8           0        0.642673   -1.042110    1.372661
     32          1           0        0.966221    1.006370    1.627379
     33          1           0        1.533226   -1.422091    1.484620
     34          8           0        2.076292    1.547524   -0.821750
     35          1           0        1.850550   -0.504187   -0.867106
     36          8           0        3.271071   -1.227413    1.148656
     37          1           0        3.428986    0.831105    1.368372
     38          1           0        4.124974   -1.405499    1.557413
     39          8           0        5.640593   -0.242915    0.387104
     40          1           0        4.611814    1.217683   -0.711067
     41          1           0        4.350288   -0.472834   -1.230132
     42          1           0       -8.678579    1.890469    0.796159
     43          1           0       -8.476309    0.630583    1.824428
     44         15           0        7.084807   -0.308379   -0.279822
     45          8           0        7.908227   -0.916359    0.955086
     46          1           0        8.696982   -0.401232    1.154657
     47          8           0        6.998877   -1.515550   -1.330871
     48          1           0        6.734685   -2.362922   -0.956758
     49          8           0        7.622755    0.913976   -0.875536
     50          1           0       -0.985903   -1.233689    0.325220
 ---------------------------------------------------------------------

 SCF Done:  E(RHF) =  -1668.86911532     A.U. after    2 cycles

 The electronic state is 1-A.
 Alpha  occ. eigenvalues --  -84.45443 -20.59838 -20.59320 -20.59033 -20.57839
 Alpha  occ. eigenvalues --  -20.56369 -20.56158 -20.53942 -20.50204 -20.49896
 Alpha  occ. eigenvalues --  -20.42694 -15.60835 -15.54322 -11.39829 -11.36817
 Alpha  occ. eigenvalues --  -11.32217 -11.31662 -11.31134 -11.30608 -11.29198
 Alpha  occ. eigenvalues --  -11.28354 -11.27608 -11.27356 -11.27093 -11.26009
 Alpha  occ. eigenvalues --   -6.90236  -4.44459  -4.43756  -4.43711  -1.55606
 Alpha  occ. eigenvalues --   -1.55367  -1.48726  -1.47636  -1.47429  -1.46392
 Alpha  occ. eigenvalues --   -1.45449  -1.42766  -1.38262  -1.34154  -1.33843
 Alpha  occ. eigenvalues --   -1.24330  -1.13537  -1.08618  -1.04600  -1.03178
 Alpha  occ. eigenvalues --   -0.98746  -0.97565  -0.92539  -0.90235  -0.85350
 Alpha  occ. eigenvalues --   -0.85040  -0.83640  -0.82792  -0.80380  -0.78179
 Alpha  occ. eigenvalues --   -0.76824  -0.75657  -0.74327  -0.72765  -0.72428
 Alpha  occ. eigenvalues --   -0.70799  -0.70651  -0.70183  -0.69435  -0.69167
 Alpha  occ. eigenvalues --   -0.66749  -0.65884  -0.65689  -0.64831  -0.64148
 Alpha  occ. eigenvalues --   -0.63601  -0.62869  -0.62168  -0.61128  -0.60235
 Alpha  occ. eigenvalues --   -0.59879  -0.58984  -0.58028  -0.57415  -0.56819
 Alpha  occ. eigenvalues --   -0.56571  -0.56262  -0.55351  -0.54893  -0.53677
 Alpha  occ. eigenvalues --   -0.53309  -0.52545  -0.52152  -0.51819  -0.51389
 Alpha  occ. eigenvalues --   -0.50602  -0.49106  -0.48843  -0.48412  -0.47529
 Alpha  occ. eigenvalues --   -0.46431  -0.45753  -0.44952  -0.44711  -0.43749
 Alpha  occ. eigenvalues --   -0.42173  -0.34852  -0.34160
 Alpha virt. eigenvalues --    0.00909   0.01776   0.02603   0.02868   0.03338
 Alpha virt. eigenvalues --    0.03923   0.04276   0.04664   0.04973   0.05227
 Alpha virt. eigenvalues --    0.05432   0.05617   0.06182   0.06764   0.06863

 Mulliken charges:
               1
     1  C    1.105484
     2  C   -1.642368
     3  C    0.847796
     4  C    0.822690
     5  C    1.021835
     6  C    0.882748
     7  N    1.315352
     8  C   -0.402323
     9  C    0.001209
    10  H   -0.000001
    11  H    0.142174
    12  C    0.151981
    13  H    0.081822
    14  H    0.091745
    15  C   -0.335911
    16  H    0.124006
    17  H    0.072943
    18  C   -1.486497
    19  H    0.129699
    20  H    0.175524
    21  C    2.409449
    22  N    0.269260
    23  H    0.259412
    24  O   -1.330042
    25  O   -1.355436
    26  H    0.468253
    27  O   -1.603841
    28  H    0.127980
    29  H    0.338912
    30  H    0.739935
    31  O   -1.755455
    32  H    0.234607
    33  H    0.545526
    34  O   -1.828957
    35  H    0.173886
    36  O   -1.450830
    37  H    0.095899
    38  H    0.346525
    39  O   -2.325271
    40  H    0.258426
    41  H    0.194675
    42  H    0.339828
    43  H    0.277561
    44  P    4.191672
    45  O   -1.166271
    46  H    0.351827
    47  O   -1.293684
    48  H    0.347088
    49  O   -1.404161
    50  H    0.443318
 Sum of Mulliken charges =   0.00000

 Dipole moment (field-independent basis, Debye):
    X=             -8.4426    Y=             -2.3555    Z=              5.0711  Tot=             10.1262

 Test job not archived.
 1\1\GINC-SE336\SP\RHF\Aug-CC-pVDZ\C12H25N2O10P1\OHZDE\09-Apr-2025\0\\#
 t hf aug-cc-pvdz iop(5/13=1,5/36=2,99/5=2) pseudo=read geom=check gues
 s=(read,tcheck) scf=(maxcycle=1)\\title\\0,1\C,0,-0.687031,2.030998,-0
 .322779\C,0,-0.449015,0.619143,0.143161\C,0,0.80493,0.256833,0.843948\
 C,0,2.011153,0.364396,-0.189211\C,0,3.314412,0.085713,0.573431\C,0,4.4
 83895,0.192458,-0.373641\N,0,-1.286502,-0.338073,-0.068066\C,0,-2.5889
 44,-0.234682,-0.719624\C,0,-3.714522,-0.048657,0.29145\H,0,-2.738331,-
 1.149991,-1.294052\H,0,-2.557462,0.593364,-1.427231\C,0,-5.070867,0.04

 Normal termination of Gaussian 16 at Wed Apr  9 02:25:52 2025.
