 Gaussian 16, Revision C.01,

 ----------------------------------------------------------------------
 #t hf aug-cc-pvdz symm=none int=(grid=ultrafine) guess=(read,tcheck) s
 table=(opt,rrhf)
 ----------------------------------------------------------------------
 -----
 title
 -----
 Symbolic Z-matrix:
 Charge =  0 Multiplicity = 1

 SCF Done:  E(RHF) =  -1035.30771551     A.U. after   16 cycles
 Normal termination of Gaussian 16 at Wed Apr  9 01:43:24 2025.
 Gaussian 16:  ES64L-G16RevC.01  3-Jul-2019

 ----------------------------------------------------------------------
 #t hf aug-cc-pvdz iop(5/13=1,5/36=2,99/5=2) pseudo=read geom=check gue
 ss=(read,tcheck) scf=(maxcycle=1)
 ----------------------------------------------------------------------
 -----
 title
 -----
 Structure from the checkpoint file:  "BH10_288_forward_mol2.chk"
 Charge =  0 Multiplicity = 1

                         Standard orientation:
 ---------------------------------------------------------------------
 Center     Atomic      Atomic             Coordinates (Angstroms)
 Number     Number       Type             X           Y           Z
 ---------------------------------------------------------------------
      1          6           0       -1.818134    3.190624   -0.333852
      2          1           0       -2.043497    3.948716    0.413211
      3          1           0       -0.998937    1.968089    1.248595
      4          6           0       -1.022616   -0.362533   -0.249253
      5          1           0        0.076810   -0.555340   -2.013337
      6          6           0        1.369029   -2.661969   -1.590669
      7          1           0        2.838868   -1.571949   -0.373255
      8          1           0        2.985954   -1.438923   -3.438046
      9          5           0       -2.160740   -1.934436    1.232731
     10          6           0       -2.782400   -2.764236    0.064969
     11          1           0       -3.568306   -3.438596    0.409398
     12          6           0       -2.369105   -2.272475    2.747159
     13          1           0       -1.794508   -1.633600    3.419889
     14          6           0       -2.772552    1.189310   -0.841477
     15          8           0       -3.590614    0.396963   -1.202322
     16          1           0        0.752646    3.459073    0.098470
     17          6           0        1.665014    1.585196    0.495077
     18          6           0        2.489723    0.013987    2.134172
     19          6           0        4.024868    1.052735    0.617292
     20          1           0        3.167099    2.414309   -0.792747
     21          1           0        4.604884   -0.360598    2.130746
     22          1           0        0.436386    0.536790    1.922314
     23          1           0       -1.426329    3.667498   -1.236708
     24          6           0       -0.871458    2.101548    0.168991
     25          7           0       -1.440596    0.949999   -0.539887
     26          6           0       -0.215905   -1.011886   -1.076312
     27          8           0        0.259684   -2.244110   -0.791518
     28          6           0        2.561409   -1.778412   -1.402749
     29          6           0        3.256258   -1.258311   -2.402266
     30          1           0        4.124231   -0.636936   -2.220582
     31          8           0       -1.383082   -0.818003    0.988234
     32          1           0       -1.999065   -3.372897   -0.399319
     33          1           0       -3.185601   -2.115435   -0.716805
     34          1           0       -2.110358   -3.317373    2.946531
     35          1           0       -3.430295   -2.177743    3.003019
     36          8           0       -3.028611    2.508799   -0.668663
     37          6           0        0.578721    2.408849   -0.166067
     38          1           0        0.692116    2.348706   -1.252651
     39          6           0        1.437541    0.711414    1.552314
     40          6           0        3.786416    0.182386    1.673806
     41          6           0        2.972683    1.741418    0.036127
     42          1           0        5.032840    1.193687    0.245094
     43          1           0        2.286589   -0.669096    2.950224
     44          1           0        1.577498   -3.677793   -1.252994
     45          1           0        1.072882   -2.703473   -2.644909
 ---------------------------------------------------------------------

 SCF Done:  E(RHF) =  -1036.35811861     A.U. after    2 cycles

 The electronic state is 1-A.
 Alpha  occ. eigenvalues --  -20.59271 -20.57500 -20.55800 -20.51813 -15.53878
 Alpha  occ. eigenvalues --  -11.40703 -11.31924 -11.31519 -11.30540 -11.29826
 Alpha  occ. eigenvalues --  -11.29665 -11.25953 -11.25631 -11.24821 -11.24808
 Alpha  occ. eigenvalues --  -11.24603 -11.24517 -11.24456 -11.24434 -11.24096
 Alpha  occ. eigenvalues --  -11.19090 -11.17771  -7.59959  -1.55387  -1.50846
 Alpha  occ. eigenvalues --   -1.48414  -1.45801  -1.27272  -1.16985  -1.09755
 Alpha  occ. eigenvalues --   -1.08604  -1.04685  -1.02652  -1.02244  -0.96219
 Alpha  occ. eigenvalues --   -0.95321  -0.94230  -0.91725  -0.88050  -0.87163
 Alpha  occ. eigenvalues --   -0.83927  -0.81651  -0.79974  -0.78759  -0.75451
 Alpha  occ. eigenvalues --   -0.74227  -0.73099  -0.71550  -0.69316  -0.67740
 Alpha  occ. eigenvalues --   -0.65917  -0.65143  -0.65050  -0.64144  -0.63443
 Alpha  occ. eigenvalues --   -0.63369  -0.61263  -0.60927  -0.60233  -0.59828
 Alpha  occ. eigenvalues --   -0.59245  -0.58352  -0.57802  -0.56270  -0.55892
 Alpha  occ. eigenvalues --   -0.55336  -0.54006  -0.52386  -0.52267  -0.51804
 Alpha  occ. eigenvalues --   -0.51028  -0.50673  -0.50372  -0.49780  -0.49515
 Alpha  occ. eigenvalues --   -0.49087  -0.45598  -0.45310  -0.44234  -0.43059
 Alpha  occ. eigenvalues --   -0.39052  -0.35654  -0.35000  -0.33122
 Alpha virt. eigenvalues --    0.02264   0.02654   0.02942   0.03282   0.03836
 Alpha virt. eigenvalues --    0.04009   0.04323   0.04887   0.05091   0.06070
 Alpha virt. eigenvalues --    0.06415   0.06942   0.07085   0.07128   0.07720

 Mulliken charges:
               1
     1  C    1.035678
     2  H    0.148622
     3  H   -0.032382
     4  C    0.779045
     5  H   -0.182852
     6  C   -0.036555
     7  H   -0.166252
     8  H   -0.149647
     9  B    1.171632
    10  C   -0.534239
    11  H   -0.101268
    12  C   -0.463987
    13  H   -0.042044
    14  C    2.319625
    15  O   -1.324943
    16  H    0.298601
    17  C    0.974864
    18  C   -0.213472
    19  C    0.251451
    20  H   -0.453349
    21  H   -0.284421
    22  H   -0.378976
    23  H    0.089670
    24  C   -1.665226
    25  N    2.231043
    26  C    1.439105
    27  O   -1.893075
    28  C    1.258551
    29  C   -0.231100
    30  H   -0.152868
    31  O   -2.505708
    32  H    0.179433
    33  H    0.160910
    34  H    0.050415
    35  H    0.110514
    36  O   -1.500866
    37  C   -0.737817
    38  H    0.269107
    39  C    0.495474
    40  C    0.170799
    41  C    0.182131
    42  H   -0.290843
    43  H   -0.337260
    44  H   -0.003828
    45  H    0.066309
 Sum of Mulliken charges =   0.00000

 Dipole moment (field-independent basis, Debye):
    X=              5.3469    Y=              1.5700    Z=             -0.0541  Tot=              5.5729

 Test job not archived.
 1\1\GINC-SE462\SP\RHF\Aug-CC-pVDZ\C17H22B1N1O4\OHZDE\09-Apr-2025\0\\#t
  hf aug-cc-pvdz iop(5/13=1,5/36=2,99/5=2) pseudo=read geom=check guess
 =(read,tcheck) scf=(maxcycle=1)\\title\\0,1\C,0,-1.818134,3.190624,-0.
 333852\H,0,-2.043497,3.948716,0.413211\H,0,-0.998937,1.968089,1.248595
 \C,0,-1.022616,-0.362533,-0.249253\H,0,0.07681,-0.55534,-2.013337\C,0,
 1.369029,-2.661969,-1.590669\H,0,2.838868,-1.571949,-0.373255\H,0,2.98
 5954,-1.438923,-3.438046\B,0,-2.16074,-1.934436,1.232731\C,0,-2.7824,-
 2.764236,0.064969\H,0,-3.568306,-3.438596,0.409398\C,0,-2.369105,-2.27

 Normal termination of Gaussian 16 at Wed Apr  9 01:45:33 2025.
