 Gaussian 16, Revision C.01,

 ----------------------------------------------------------------------
 #t hf aug-cc-pvdz symm=none int=(grid=ultrafine) guess=(read,tcheck) s
 table=(opt,rrhf)
 ----------------------------------------------------------------------
 -----
 title
 -----
 Symbolic Z-matrix:
 Charge =  0 Multiplicity = 1

 SCF Done:  E(RHF) =  -911.409319719     A.U. after   13 cycles
 Normal termination of Gaussian 16 at Wed Apr  9 01:30:42 2025.
 Gaussian 16:  ES64L-G16RevC.01  3-Jul-2019

 ----------------------------------------------------------------------
 #t hf aug-cc-pvdz iop(5/13=1,5/36=2,99/5=2) pseudo=read geom=check gue
 ss=(read,tcheck) scf=(maxcycle=1)
 ----------------------------------------------------------------------
 -----
 title
 -----
 Structure from the checkpoint file:  "BH10_325_reverse_mol3.chk"
 Charge =  0 Multiplicity = 1

                         Standard orientation:
 ---------------------------------------------------------------------
 Center     Atomic      Atomic             Coordinates (Angstroms)
 Number     Number       Type             X           Y           Z
 ---------------------------------------------------------------------
      1         16           0       -2.965708   -0.392257   -0.297509
      2          6           0       -1.405753   -1.056978    0.356953
      3          6           0       -3.023551    1.244802    0.481841
      4          6           0       -0.203604   -0.766945   -0.520549
      5          1           0       -1.531435   -2.138204    0.412944
      6          1           0       -1.240626   -0.681832    1.366132
      7          6           0        0.309180    0.663811   -0.528120
      8          8           0        0.898881   -1.565668   -0.057066
      9          1           0       -0.437369   -1.054905   -1.551647
     10          6           0        2.125156   -0.856156   -0.146648
     11          6           0        1.781929    0.456216   -0.888622
     12          8           0        2.589289    1.533368   -0.488777
     13          1           0        1.877494    0.309150   -1.967586
     14          8           0        0.216363    1.228562    0.767572
     15          1           0       -0.222504    1.280175   -1.258414
     16          7           0        2.717654   -0.559796    1.132717
     17          1           0        2.835982   -1.462570   -0.711027
     18          1           0        0.848745    1.958690    0.785577
     19          1           0        3.137038    1.191113    0.238943
     20          1           0        2.004212   -0.251573    1.786206
     21          1           0        3.196450   -1.361200    1.521256
     22          1           0       -3.954131    1.706269    0.152854
     23          1           0       -2.183797    1.868300    0.185623
     24          1           0       -3.038723    1.152688    1.567290
 ---------------------------------------------------------------------

 SCF Done:  E(RHF) =  -911.999539089     A.U. after    2 cycles

 The electronic state is 1-A.
 Alpha  occ. eigenvalues --  -93.93668 -20.55832 -20.55506 -20.55075 -15.50729
 Alpha  occ. eigenvalues --  -11.32629 -11.29676 -11.29635 -11.29412 -11.26071
 Alpha  occ. eigenvalues --  -11.25512  -8.21761  -6.19597  -6.19431  -6.19223
 Alpha  occ. eigenvalues --   -1.49154  -1.46562  -1.45181  -1.20202  -1.09921
 Alpha  occ. eigenvalues --   -1.05193  -1.00839  -0.93080  -0.84613  -0.82998
 Alpha  occ. eigenvalues --   -0.79527  -0.76949  -0.71370  -0.70110  -0.69033
 Alpha  occ. eigenvalues --   -0.67485  -0.64033  -0.60747  -0.60256  -0.60017
 Alpha  occ. eigenvalues --   -0.58506  -0.57717  -0.56855  -0.53925  -0.52091
 Alpha  occ. eigenvalues --   -0.51067  -0.48409  -0.46894  -0.46433  -0.44283
 Alpha  occ. eigenvalues --   -0.43436  -0.42340  -0.34362
 Alpha virt. eigenvalues --    0.03175   0.03554   0.03813   0.04561   0.05128
 Alpha virt. eigenvalues --    0.05188   0.05923   0.06366   0.06526   0.07913
 Alpha virt. eigenvalues --    0.08688   0.09455   0.10106   0.10495   0.12617

 Mulliken charges:
               1
     1  S    0.457391
     2  C   -0.380653
     3  C   -0.704694
     4  C    1.043030
     5  H    0.159363
     6  H    0.227359
     7  C    0.418465
     8  O   -1.656315
     9  H    0.126612
    10  C   -0.258810
    11  C    1.221816
    12  O   -1.419833
    13  H    0.075135
    14  O   -1.545703
    15  H    0.182317
    16  N    0.380837
    17  H   -0.072972
    18  H    0.353018
    19  H    0.305248
    20  H    0.294426
    21  H    0.285483
    22  H    0.126731
    23  H    0.195486
    24  H    0.186261
 Sum of Mulliken charges =   0.00000

 Dipole moment (field-independent basis, Debye):
    X=              1.6757    Y=              0.1451    Z=              0.7694  Tot=              1.8496

 Test job not archived.
 1\1\GINC-SE071\SP\RHF\Aug-CC-pVDZ\C6H13N1O3S1\OHZDE\09-Apr-2025\0\\#t
 hf aug-cc-pvdz iop(5/13=1,5/36=2,99/5=2) pseudo=read geom=check guess=
 (read,tcheck) scf=(maxcycle=1)\\title\\0,1\S,0,-2.965708,-0.392257,-0.
 297509\C,0,-1.405753,-1.056978,0.356953\C,0,-3.023551,1.244802,0.48184
 1\C,0,-0.203604,-0.766945,-0.520549\H,0,-1.531435,-2.138204,0.412944\H
 ,0,-1.240626,-0.681832,1.366132\C,0,0.30918,0.663811,-0.52812\O,0,0.89
 8881,-1.565668,-0.057066\H,0,-0.437369,-1.054905,-1.551647\C,0,2.12515
 6,-0.856156,-0.146648\C,0,1.781929,0.456216,-0.888622\O,0,2.589289,1.5

 Normal termination of Gaussian 16 at Wed Apr  9 01:31:00 2025.
