 Gaussian 16, Revision C.01,

 ----------------------------------------------------------------------
 #t hf aug-cc-pvdz symm=none int=(grid=ultrafine) guess=(read,tcheck) s
 table=opt
 ----------------------------------------------------------------------
 -----
 title
 -----
 Symbolic Z-matrix:
 Charge =  0 Multiplicity = 2

 SCF Done:  E(UHF) =  -2378.29845756     A.U. after   26 cycles
 Normal termination of Gaussian 16 at Wed Apr  9 01:12:56 2025.
 Gaussian 16:  ES64L-G16RevC.01  3-Jul-2019

 ----------------------------------------------------------------------
 #t hf aug-cc-pvdz iop(5/13=1,5/36=2,99/5=2) pseudo=read geom=check gue
 ss=(read,tcheck) scf=(maxcycle=1)
 ----------------------------------------------------------------------
 -----
 title
 -----
 Structure from the checkpoint file:  "BH10_166_forward_mol1.chk"
 Charge =  0 Multiplicity = 2

                         Standard orientation:
 ---------------------------------------------------------------------
 Center     Atomic      Atomic             Coordinates (Angstroms)
 Number     Number       Type             X           Y           Z
 ---------------------------------------------------------------------
      1          7           0        2.581719    0.645655   -0.993468
      2          1           0        3.188550    0.003068   -1.490533
      3          6           0        1.614037    0.046548   -0.138935
      4          1           0        0.506599    0.608669   -0.442239
      5          6           0        1.382519   -1.407938   -0.472642
      6          6           0        1.774105    0.303281    1.369405
      7          1           0        0.923109   -1.485740   -1.458324
      8          1           0        0.712314   -1.846511    0.259311
      9         16           0        2.910139   -2.409342   -0.561542
     10          8           0        1.898950   -0.649321    2.116162
     11          1           0        3.217124   -2.280758    0.741330
     12          7           0        1.755821    1.583170    1.762416
     13          1           0        1.651085    2.333173    1.087221
     14          1           0        1.869551    1.778461    2.744369
     15          6           0        2.705811    1.973360   -1.248128
     16          1           0        3.480513    2.189672   -1.997988
     17          8           0        2.046154    2.844506   -0.723119
     18          8           0       -0.553297    1.065272   -0.967463
     19          8           0       -1.377828   -0.033193   -1.137633
     20          6           0       -2.335023   -0.108660   -0.131634
     21         17           0       -3.288987   -1.526551   -0.576222
     22         17           0       -1.568357   -0.352122    1.463214
     23         17           0       -3.344679    1.348673   -0.087760
 ---------------------------------------------------------------------

 SCF Done:  E(UHF) =  -2379.17216970     A.U. after    2 cycles

 The electronic state is 2-A.
 Alpha  occ. eigenvalues -- -105.61104-105.60550-105.60442 -93.96307 -20.69946
 Alpha  occ. eigenvalues --  -20.68690 -20.54973 -20.52584 -15.56846 -15.53092
 Alpha  occ. eigenvalues --  -11.50946 -11.39254 -11.37643 -11.33715 -11.29204
 Alpha  occ. eigenvalues --  -10.65982 -10.65408 -10.65326  -8.24408  -7.82934
 Alpha  occ. eigenvalues --   -7.82481  -7.82478  -7.82364  -7.82285  -7.81934
 Alpha  occ. eigenvalues --   -7.81912  -7.81830  -7.81826  -6.22297  -6.22128
 Alpha  occ. eigenvalues --   -6.21894  -1.69955  -1.50153  -1.47986  -1.36949
 Alpha  occ. eigenvalues --   -1.29597  -1.23547  -1.18699  -1.11761  -1.08940
 Alpha  occ. eigenvalues --   -1.08550  -1.02380  -0.90516  -0.89967  -0.86478
 Alpha  occ. eigenvalues --   -0.83770  -0.80505  -0.78943  -0.77604  -0.73872
 Alpha  occ. eigenvalues --   -0.73070  -0.72359  -0.69479  -0.65811  -0.65036
 Alpha  occ. eigenvalues --   -0.64855  -0.61885  -0.61405  -0.60830  -0.59535
 Alpha  occ. eigenvalues --   -0.57592  -0.55876  -0.54828  -0.52317  -0.52044
 Alpha  occ. eigenvalues --   -0.51404  -0.50531  -0.48707  -0.48458  -0.48165
 Alpha  occ. eigenvalues --   -0.47039  -0.46896  -0.45775  -0.44696  -0.40665
 Alpha  occ. eigenvalues --   -0.38583
 Alpha virt. eigenvalues --    0.02977   0.04136   0.04719   0.05271   0.05842
 Alpha virt. eigenvalues --    0.06868   0.07109   0.07426   0.08207   0.08851
 Alpha virt. eigenvalues --    0.09042   0.09815   0.10365   0.11030   0.12031

  Beta  occ. eigenvalues -- -105.61112-105.60548-105.60439 -93.96265 -20.68652
  Beta  occ. eigenvalues --  -20.66630 -20.54858 -20.52393 -15.56872 -15.53094
  Beta  occ. eigenvalues --  -11.50956 -11.39265 -11.37715 -11.32293 -11.29361
  Beta  occ. eigenvalues --  -10.65991 -10.65406 -10.65324  -8.24360  -7.82959
  Beta  occ. eigenvalues --   -7.82494  -7.82481  -7.82353  -7.82276  -7.81936
  Beta  occ. eigenvalues --   -7.81910  -7.81828  -7.81823  -6.22189  -6.22035
  Beta  occ. eigenvalues --   -6.21866  -1.66302  -1.49909  -1.47568  -1.31087
  Beta  occ. eigenvalues --   -1.28736  -1.23522  -1.17695  -1.10819  -1.08899
  Beta  occ. eigenvalues --   -1.08502  -1.00549  -0.90309  -0.89655  -0.85760
  Beta  occ. eigenvalues --   -0.82734  -0.78790  -0.77416  -0.74064  -0.73227
  Beta  occ. eigenvalues --   -0.72088  -0.71340  -0.67226  -0.64899  -0.64810
  Beta  occ. eigenvalues --   -0.61860  -0.61150  -0.60972  -0.59612  -0.58870
  Beta  occ. eigenvalues --   -0.55697  -0.53757  -0.52663  -0.51846  -0.50990
  Beta  occ. eigenvalues --   -0.50560  -0.48416  -0.48345  -0.47995  -0.47373
  Beta  occ. eigenvalues --   -0.46835  -0.46096  -0.43934  -0.41822  -0.38407
  Beta virt. eigenvalues --    0.00638   0.03004   0.04143   0.04762   0.05281
  Beta virt. eigenvalues --    0.05853   0.06887   0.07119   0.07446   0.08241
  Beta virt. eigenvalues --    0.08985   0.09086   0.09832   0.10423   0.11062

 Mulliken charges and spin densities:
               1          2
     1  N    0.980111  -0.024946
     2  H    0.347225   0.007615
     3  C   -2.163950   0.781096
     4  H    1.244528  -0.329349
     5  C   -0.221253  -0.115136
     6  C    0.481273  -0.108379
     7  H    0.133495   0.008571
     8  H    0.111399  -0.002640
     9  S    0.050221   0.037887
    10  O   -1.361150   0.039432
    11  H    0.394475  -0.003112
    12  N    1.171983  -0.002315
    13  H    0.015995   0.001019
    14  H    0.072747  -0.002077
    15  C    0.721314  -0.018425
    16  H    0.043056  -0.001218
    17  O   -1.184798   0.024841
    18  O   -0.643476   0.741358
    19  O   -0.719943  -0.036192
    20  C    0.217965   0.005304
    21  Cl   0.117938  -0.005744
    22  Cl   0.037605   0.001501
    23  Cl   0.153239   0.000908
 Sum of Mulliken charges =  -0.00000   1.00000

 Dipole moment (field-independent basis, Debye):
    X=              1.3062    Y=              0.6758    Z=             -1.3975  Tot=              2.0288
                          Isotropic Fermi Contact Couplings
        Atom                 a.u.       MegaHertz       Gauss      10(-4) cm-1
     1  N(14)             -0.01676      -5.41619      -1.93263      -1.80665
     2  H(1)               0.00260      11.62684       4.14874       3.87830
     3  C(13)              0.17570     197.51756      70.47918      65.88477
     4  H(1)              -0.06311    -282.07617    -100.65179     -94.09048
     5  C(13)             -0.02542     -28.57137     -10.19497      -9.53038
     6  C(13)             -0.01169     -13.14453      -4.69030      -4.38454
     7  H(1)               0.00360      16.08003       5.73775       5.36372
     8  H(1)               0.00112       5.02369       1.79258       1.67572

 Normal termination of Gaussian 16 at Wed Apr  9 01:13:28 2025.
