 Gaussian 16, Revision C.01,

 ----------------------------------------------------------------------
 #t hf aug-cc-pvdz symm=none int=(grid=ultrafine) guess=(read,tcheck) s
 table=(opt,rrhf)
 ----------------------------------------------------------------------
 -----
 title
 -----
 Symbolic Z-matrix:
 Charge =  0 Multiplicity = 1

 SCF Done:  E(RHF) =  -742.491840902     A.U. after   14 cycles
 Normal termination of Gaussian 16 at Wed Apr  9 00:58:34 2025.
 Gaussian 16:  ES64L-G16RevC.01  3-Jul-2019

 ----------------------------------------------------------------------
 #t hf aug-cc-pvdz iop(5/13=1,5/36=2,99/5=2) pseudo=read geom=check gue
 ss=(read,tcheck) scf=(maxcycle=1)
 ----------------------------------------------------------------------
 -----
 title
 -----
 Structure from the checkpoint file:  "BH10_163_forward_mol2.chk"
 Charge =  0 Multiplicity = 1

                         Standard orientation:
 ---------------------------------------------------------------------
 Center     Atomic      Atomic             Coordinates (Angstroms)
 Number     Number       Type             X           Y           Z
 ---------------------------------------------------------------------
      1          6           0       -2.529849   -0.103247    0.987313
      2         16           0       -1.792261   -0.321828   -0.653291
      3          6           0       -0.497444    0.949981   -0.599612
      4          6           0        0.646676    0.663647    0.370866
      5          6           0        1.654758    1.817138    0.379785
      6          6           0        1.353018   -0.608203   -0.039032
      7          8           0        1.481126   -1.480179    0.977739
      8          8           0        1.788795   -0.827166   -1.136358
      9          1           0       -3.405794   -0.749425    1.027321
     10          1           0       -1.847349   -0.398777    1.783398
     11          1           0       -2.851876    0.928449    1.134523
     12          1           0        1.162143    2.744582    0.677176
     13          1           0        2.084491    1.955583   -0.613805
     14          1           0        2.468448    1.626513    1.081798
     15          1           0       -0.104643    1.005700   -1.615736
     16          1           0       -0.952407    1.913870   -0.361379
     17          1           0        0.254885    0.522236    1.378766
     18          1           0        1.945949   -2.256621    0.633620
 ---------------------------------------------------------------------

 SCF Done:  E(RHF) =  -742.908154712     A.U. after    2 cycles

 The electronic state is 1-A.
 Alpha  occ. eigenvalues --  -93.94273 -20.60211 -20.53561 -11.39096 -11.27306
 Alpha  occ. eigenvalues --  -11.26550 -11.26412 -11.24519  -8.22368  -6.20197
 Alpha  occ. eigenvalues --   -6.20034  -6.19817  -1.55197  -1.45389  -1.12899
 Alpha  occ. eigenvalues --   -1.05896  -0.95711  -0.91574  -0.84338  -0.77845
 Alpha  occ. eigenvalues --   -0.72224  -0.70131  -0.64826  -0.62571  -0.61157
 Alpha  occ. eigenvalues --   -0.59984  -0.59709  -0.57209  -0.55674  -0.54088
 Alpha  occ. eigenvalues --   -0.52279  -0.49308  -0.47360  -0.44457  -0.43699
 Alpha  occ. eigenvalues --   -0.35026
 Alpha virt. eigenvalues --    0.03168   0.03491   0.03756   0.04696   0.05457
 Alpha virt. eigenvalues --    0.06392   0.06700   0.07175   0.08193   0.09568
 Alpha virt. eigenvalues --    0.10199   0.11120   0.13098   0.13636   0.14128

 Mulliken charges:
               1
     1  C   -0.664819
     2  S    0.481852
     3  C   -0.381738
     4  C   -0.981182
     5  C   -0.134612
     6  C    2.461214
     7  O   -1.314464
     8  O   -1.298755
     9  H    0.118635
    10  H    0.187686
    11  H    0.156993
    12  H    0.158224
    13  H    0.238965
    14  H    0.158737
    15  H    0.206659
    16  H    0.150868
    17  H    0.116404
    18  H    0.339332
 Sum of Mulliken charges =  -0.00000

 Dipole moment (field-independent basis, Debye):
    X=             -0.2105    Y=              1.4602    Z=              2.8254  Tot=              3.1874

 Test job not archived.
 1\1\GINC-SE099\SP\RHF\Aug-CC-pVDZ\C5H10O2S1\OHZDE\09-Apr-2025\0\\#t hf
  aug-cc-pvdz iop(5/13=1,5/36=2,99/5=2) pseudo=read geom=check guess=(r
 ead,tcheck) scf=(maxcycle=1)\\title\\0,1\C,0,-2.529849,-0.103247,0.987
 313\S,0,-1.792261,-0.321828,-0.653291\C,0,-0.497444,0.949981,-0.599612
 \C,0,0.646676,0.663647,0.370866\C,0,1.654758,1.817138,0.379785\C,0,1.3
 53018,-0.608203,-0.039032\O,0,1.481126,-1.480179,0.977739\O,0,1.788795
 ,-0.827166,-1.136358\H,0,-3.405794,-0.749425,1.027321\H,0,-1.847349,-0
 .398777,1.783398\H,0,-2.851876,0.928449,1.134523\H,0,1.162143,2.744582

 Normal termination of Gaussian 16 at Wed Apr  9 00:58:42 2025.
