 Gaussian 16, Revision C.01,

 ----------------------------------------------------------------------
 #t hf aug-cc-pvdz symm=none int=(grid=ultrafine) guess=(read,tcheck) s
 table=(opt,rrhf)
 ----------------------------------------------------------------------
 -----
 title
 -----
 Symbolic Z-matrix:
 Charge =  0 Multiplicity = 1

 SCF Done:  E(RHF) =  -700.952646046     A.U. after   13 cycles
 Normal termination of Gaussian 16 at Wed Apr  9 02:07:05 2025.
 Gaussian 16:  ES64L-G16RevC.01  3-Jul-2019

 ----------------------------------------------------------------------
 #t hf aug-cc-pvdz iop(5/13=1,5/36=2,99/5=2) pseudo=read geom=check gue
 ss=(read,tcheck) scf=(maxcycle=1)
 ----------------------------------------------------------------------
 -----
 title
 -----
 Structure from the checkpoint file:  "BH10_93_forward_mol2.chk"
 Charge =  0 Multiplicity = 1

                         Standard orientation:
 ---------------------------------------------------------------------
 Center     Atomic      Atomic             Coordinates (Angstroms)
 Number     Number       Type             X           Y           Z
 ---------------------------------------------------------------------
      1          6           0       -0.556558   -1.288319    0.000196
      2          6           0       -1.763509   -0.742149    0.000110
      3          6           0       -0.556549    1.288319   -0.000198
      4          6           0       -1.763504    0.742156   -0.000116
      5         16           0        0.687295   -0.000004    0.000001
      6          8           0        1.420280    0.000194    1.255715
      7          8           0        1.420284   -0.000193   -1.255710
      8          1           0       -2.683961    1.309866   -0.000203
      9          1           0       -0.256282    2.324321   -0.000353
     10          1           0       -0.256297   -2.324322    0.000352
     11          1           0       -2.683970   -1.309853    0.000194
 ---------------------------------------------------------------------

 SCF Done:  E(RHF) =  -701.319826398     A.U. after    2 cycles

 The electronic state is 1-A.
 Alpha  occ. eigenvalues --  -94.19955 -20.54076 -20.54076 -11.30534 -11.30495
 Alpha  occ. eigenvalues --  -11.29960 -11.29925  -8.45260  -6.43346  -6.43168
 Alpha  occ. eigenvalues --   -6.43104  -1.55508  -1.43432  -1.20406  -1.05193
 Alpha  occ. eigenvalues --   -0.98391  -0.82048  -0.81674  -0.75494  -0.66988
 Alpha  occ. eigenvalues --   -0.65452  -0.65086  -0.64909  -0.60278  -0.52707
 Alpha  occ. eigenvalues --   -0.50548  -0.49019  -0.45241  -0.44679  -0.38476
 Alpha virt. eigenvalues --    0.02219   0.03048   0.03179   0.04216   0.05262
 Alpha virt. eigenvalues --    0.09651   0.10058   0.12251   0.12670   0.12712
 Alpha virt. eigenvalues --    0.13498   0.13702   0.13984   0.14499   0.14752

 Mulliken charges:
               1
     1  C   -0.423247
     2  C    0.346731
     3  C   -0.423245
     4  C    0.346721
     5  S    3.777621
     6  O   -1.589991
     7  O   -1.589992
     8  H   -0.111059
     9  H   -0.111239
    10  H   -0.111241
    11  H   -0.111058
 Sum of Mulliken charges =  -0.00000

 Dipole moment (field-independent basis, Debye):
    X=             -5.7935    Y=             -0.0000    Z=             -0.0000  Tot=              5.7935

 Test job not archived.
 1\1\GINC-SE127\SP\RHF\Aug-CC-pVDZ\C4H4O2S1\OHZDE\09-Apr-2025\0\\#t hf
 aug-cc-pvdz iop(5/13=1,5/36=2,99/5=2) pseudo=read geom=check guess=(re
 ad,tcheck) scf=(maxcycle=1)\\title\\0,1\C,0,0.556558,1.288319,0.000196
 \C,0,1.763509,0.742149,0.00011\C,0,0.556549,-1.288319,-0.000198\C,0,1.
 763504,-0.742156,-0.000116\S,0,-0.687295,0.000004,0.000001\O,0,-1.4202
 8,-0.000194,1.255715\O,0,-1.420284,0.000193,-1.25571\H,0,2.683961,-1.3
 09866,-0.000203\H,0,0.256282,-2.324321,-0.000353\H,0,0.256297,2.324322
 ,0.000352\H,0,2.68397,1.309853,0.000194\\Version=ES64L-G16RevC.01\Stat

 Normal termination of Gaussian 16 at Wed Apr  9 02:07:09 2025.
