 Gaussian 16, Revision C.01,

 ----------------------------------------------------------------------
 #t hf aug-cc-pvdz symm=none int=(grid=ultrafine) guess=(read,tcheck) s
 table=(opt,rrhf)
 ----------------------------------------------------------------------
 -----
 title
 -----
 Symbolic Z-matrix:
 Charge =  0 Multiplicity = 1

 SCF Done:  E(RHF) =  -485.759183215     A.U. after   16 cycles
 Normal termination of Gaussian 16 at Wed Apr  9 00:59:44 2025.
 Gaussian 16:  ES64L-G16RevC.01  3-Jul-2019

 ----------------------------------------------------------------------
 #t hf aug-cc-pvdz iop(5/13=1,5/36=2,99/5=2) pseudo=read geom=check gue
 ss=(read,tcheck) scf=(maxcycle=1)
 ----------------------------------------------------------------------
 -----
 title
 -----
 Structure from the checkpoint file:  "BH10_112_forward_mol2.chk"
 Charge =  0 Multiplicity = 1

                         Standard orientation:
 ---------------------------------------------------------------------
 Center     Atomic      Atomic             Coordinates (Angstroms)
 Number     Number       Type             X           Y           Z
 ---------------------------------------------------------------------
      1          6           0        1.898213    0.008896    0.001424
      2          6           0        2.466225   -0.610714   -1.263819
      3          6           0        0.382268    0.013958   -0.000143
      4          6           0        2.463479   -0.617115    1.264734
      5          1           0        2.089958   -0.081191   -2.139554
      6          1           0        2.174433   -1.658841   -1.343225
      7          1           0        3.555663   -0.550250   -1.251559
      8          6           0       -0.323327   -1.188229   -0.002833
      9          6           0       -0.335905    1.200895   -0.001829
     10          1           0        2.171320   -1.665559    1.338400
     11          1           0        2.085581   -0.091806    2.142300
     12          1           0        3.552951   -0.556861    1.254972
     13          6           0       -1.725798    1.184854   -0.005030
     14          6           0       -2.435492   -0.008934   -0.005523
     15          6           0       -1.707332   -1.197870   -0.006029
     16          1           0        0.208880   -2.132808   -0.004349
     17          1           0       -2.233321   -2.146678   -0.010164
     18          1           0        0.195661    2.142410   -0.002323
     19          1           0       -2.265627    2.125503   -0.008359
     20          6           0       -3.939722   -0.028650    0.007891
     21          1           0       -4.349742    0.965724   -0.172190
     22          1           0       -4.333938   -0.700150   -0.757913
     23          1           0       -4.318884   -0.375314    0.972967
     24          9           0        2.334601    1.353699    0.005327
 ---------------------------------------------------------------------

 SCF Done:  E(RHF) =  -486.261250893     A.U. after    2 cycles

 The electronic state is 1-A.
 Alpha  occ. eigenvalues --  -26.43353 -11.32659 -11.24424 -11.24217 -11.24126
 Alpha  occ. eigenvalues --  -11.23744 -11.23533 -11.23466 -11.23412 -11.23213
 Alpha  occ. eigenvalues --  -11.23206  -1.55543  -1.16557  -1.09144  -1.03202
 Alpha  occ. eigenvalues --   -1.01570  -0.95535  -0.94089  -0.84429  -0.83491
 Alpha  occ. eigenvalues --   -0.78115  -0.71934  -0.67522  -0.65925  -0.64465
 Alpha  occ. eigenvalues --   -0.62974  -0.62817  -0.59791  -0.58498  -0.57808
 Alpha  occ. eigenvalues --   -0.56944  -0.55043  -0.54694  -0.53982  -0.52936
 Alpha  occ. eigenvalues --   -0.50587  -0.49551  -0.48386  -0.47742  -0.34630
 Alpha  occ. eigenvalues --   -0.33136
 Alpha virt. eigenvalues --    0.03230   0.03278   0.03989   0.04138   0.04533
 Alpha virt. eigenvalues --    0.05232   0.05449   0.06607   0.07128   0.07407
 Alpha virt. eigenvalues --    0.08237   0.08320   0.09618   0.10525   0.11441

 Mulliken charges:
               1
     1  C    0.196659
     2  C   -0.352939
     3  C    1.140945
     4  C   -0.345207
     5  H    0.194658
     6  H    0.235374
     7  H    0.146452
     8  C    0.089638
     9  C   -0.159801
    10  H    0.235272
    11  H    0.193628
    12  H    0.144683
    13  C    0.274029
    14  C    0.277786
    15  C    0.125769
    16  H   -0.374879
    17  H   -0.314431
    18  H   -0.338713
    19  H   -0.300263
    20  C   -0.540225
    21  H    0.057175
    22  H    0.202729
    23  H    0.270159
    24  F   -1.058497
 Sum of Mulliken charges =  -0.00000

 Dipole moment (field-independent basis, Debye):
    X=             -0.8426    Y=             -1.7159    Z=              0.0107  Tot=              1.9116

 Test job not archived.
 1\1\GINC-SE132\SP\RHF\Aug-CC-pVDZ\C10H13F1\OHZDE\09-Apr-2025\0\\#t hf
 aug-cc-pvdz iop(5/13=1,5/36=2,99/5=2) pseudo=read geom=check guess=(re
 ad,tcheck) scf=(maxcycle=1)\\title\\0,1\C,0,1.898213,0.008896,0.001424
 \C,0,2.466225,-0.610714,-1.263819\C,0,0.382268,0.013958,-0.000143\C,0,
 2.463479,-0.617115,1.264734\H,0,2.089958,-0.081191,-2.139554\H,0,2.174
 433,-1.658841,-1.343225\H,0,3.555663,-0.55025,-1.251559\C,0,-0.323327,
 -1.188229,-0.002833\C,0,-0.335905,1.200895,-0.001829\H,0,2.17132,-1.66
 5559,1.3384\H,0,2.085581,-0.091806,2.1423\H,0,3.552951,-0.556861,1.254

 Normal termination of Gaussian 16 at Wed Apr  9 01:00:02 2025.
