 Gaussian 16, Revision C.01,

 ----------------------------------------------------------------------
 #t hf aug-cc-pvdz symm=none int=(grid=ultrafine) guess=(read,tcheck) s
 table=(opt,rrhf)
 ----------------------------------------------------------------------
 -----
 title
 -----
 Symbolic Z-matrix:
 Charge = -1 Multiplicity = 1

 SCF Done:  E(RHF) =  -641.548289608     A.U. after   12 cycles
 Normal termination of Gaussian 16 at Wed Apr  9 01:28:54 2025.
 Gaussian 16:  ES64L-G16RevC.01  3-Jul-2019

 ----------------------------------------------------------------------
 #t hf aug-cc-pvdz iop(5/13=1,5/36=2,99/5=2) pseudo=read geom=check gue
 ss=(read,tcheck) scf=(maxcycle=1)
 ----------------------------------------------------------------------
 -----
 title
 -----
 Structure from the checkpoint file:  "BH10_326_forward_mol3.chk"
 Charge = -1 Multiplicity = 1

                         Standard orientation:
 ---------------------------------------------------------------------
 Center     Atomic      Atomic             Coordinates (Angstroms)
 Number     Number       Type             X           Y           Z
 ---------------------------------------------------------------------
      1          8           0       -0.862725    1.012782   -0.851613
      2         15           0        0.000000    0.000001   -0.174272
      3          8           0        0.862729   -1.012772   -0.851622
      4          8           0       -0.982838   -0.827898    0.884438
      5          8           0        0.982833    0.827886    0.884454
      6          1           0       -1.751640   -0.274344    1.044416
      7          1           0        1.751644    0.274338    1.044410
 ---------------------------------------------------------------------

 SCF Done:  E(RHF) =  -641.892950384     A.U. after    2 cycles

 The electronic state is 1-A.
 Alpha  occ. eigenvalues --  -84.22895 -20.38707 -20.38703 -20.29776 -20.29774
 Alpha  occ. eigenvalues --   -6.67656  -4.21795  -4.21030  -4.20730  -1.32203
 Alpha  occ. eigenvalues --   -1.26155  -1.19010  -1.15496  -0.60987  -0.53099
 Alpha  occ. eigenvalues --   -0.45704  -0.43475  -0.41334  -0.35321  -0.34141
 Alpha  occ. eigenvalues --   -0.31726  -0.28078  -0.25445  -0.24866  -0.23115
 Alpha virt. eigenvalues --    0.14831   0.16163   0.21715   0.21791   0.23967
 Alpha virt. eigenvalues --    0.26887   0.33007   0.33362   0.33936   0.34612
 Alpha virt. eigenvalues --    0.35164   0.40885   0.41239   0.41638   0.42921

 Mulliken charges:
               1
     1  O   -1.460461
     2  P    3.824364
     3  O   -1.460462
     4  O   -1.273915
     5  O   -1.273917
     6  H    0.322194
     7  H    0.322196
 Sum of Mulliken charges =  -1.00000

 Dipole moment (field-independent basis, Debye):
    X=              0.0000    Y=             -0.0000    Z=              3.4492  Tot=              3.4492

 Test job not archived.
 1\1\GINC-SE069\SP\RHF\Aug-CC-pVDZ\H2O4P1(1-)\OHZDE\09-Apr-2025\0\\#t h
 f aug-cc-pvdz iop(5/13=1,5/36=2,99/5=2) pseudo=read geom=check guess=(
 read,tcheck) scf=(maxcycle=1)\\title\\-1,1\O,0,0.862725,-1.012782,-0.8
 51613\P,0,0.,-0.000001,-0.174272\O,0,-0.862729,1.012772,-0.851622\O,0,
 0.982838,0.827898,0.884438\O,0,-0.982833,-0.827886,0.884454\H,0,1.7516
 4,0.274344,1.044416\H,0,-1.751644,-0.274337,1.04441\\Version=ES64L-G16
 RevC.01\State=1-A\HF=-641.8929504\RMSD=1.128e-02\Dipole=-0.0000008,0.0
 000031,1.3570379\Quadrupole=4.3212826,-4.0839519,-0.2373306,2.1973053,

 Normal termination of Gaussian 16 at Wed Apr  9 01:28:57 2025.
