 Gaussian 16, Revision C.01,

 ----------------------------------------------------------------------
 #t hf aug-cc-pvdz symm=none int=(grid=ultrafine) guess=(read,tcheck) s
 table=(opt,rrhf)
 ----------------------------------------------------------------------
 -----
 title
 -----
 Symbolic Z-matrix:
 Charge =  0 Multiplicity = 1

 SCF Done:  E(RHF) =  -1155.49654080     A.U. after   17 cycles
 Normal termination of Gaussian 16 at Wed Apr  9 02:51:33 2025.
 Gaussian 16:  ES64L-G16RevC.01  3-Jul-2019

 ----------------------------------------------------------------------
 #t hf aug-cc-pvdz iop(5/13=1,5/36=2,99/5=2) pseudo=read geom=check gue
 ss=(read,tcheck) scf=(maxcycle=1)
 ----------------------------------------------------------------------
 -----
 title
 -----
 Structure from the checkpoint file:  "BH10_402_forward_mol1.chk"
 Charge =  0 Multiplicity = 1

                         Standard orientation:
 ---------------------------------------------------------------------
 Center     Atomic      Atomic             Coordinates (Angstroms)
 Number     Number       Type             X           Y           Z
 ---------------------------------------------------------------------
      1          6           0       -0.072733   -2.364039   -0.954229
      2          1           0       -0.144263   -3.451906   -0.965247
      3          1           0        0.226554   -2.050967   -1.963374
      4          6           0        1.009081   -1.910167    0.031016
      5          6           0       -0.347302    0.120673    0.461314
      6          1           0       -0.762434   -0.080606    1.454435
      7          1           0       -0.280802    1.202029    0.388628
      8          6           0       -1.349433   -0.371905   -0.603647
      9          1           0       -1.003818   -0.008859   -1.577953
     10          7           0       -1.392107   -1.826935   -0.695906
     11          6           0        2.185726    0.237434    0.245491
     12          6           0        2.043650   -2.787263    0.334780
     13          1           0        2.319651   -2.908822    1.365892
     14          1           0        2.103448   -3.715502   -0.232686
     15          6           0        3.427974   -0.342797   -0.044551
     16          1           0        4.059376    0.175341   -0.764657
     17          6           0        3.870553   -1.588655    0.384798
     18          6           0        1.010934   -0.541567    0.358621
     19          6           0        5.068774   -2.245401   -0.247191
     20          1           0        5.039548   -3.328531   -0.114759
     21          1           0        5.116129   -2.040069   -1.317885
     22          1           0        5.997790   -1.890054    0.210903
     23          1           0        3.775084   -1.769885    1.442754
     24          6           0       -2.721687    0.203873   -0.340338
     25          6           0       -2.069863   -2.436053    0.438444
     26          1           0       -1.630116   -2.137119    1.403391
     27          1           0       -1.955427   -3.518978    0.362402
     28          6           0       -3.542438   -2.064317    0.394164
     29          1           0       -4.017131   -2.609842   -0.427367
     30          6           0       -3.747990   -0.586593    0.174610
     31          1           0       -4.038457   -2.376371    1.317203
     32          6           0       -4.981287    0.000689    0.451942
     33          1           0       -5.778167   -0.615467    0.855411
     34          6           0       -2.953992    1.557236   -0.576369
     35          1           0       -2.159030    2.169022   -0.989089
     36          6           0       -5.204237    1.347130    0.220023
     37          1           0       -6.170175    1.784308    0.442659
     38          6           0       -4.183286    2.131605   -0.302392
     39          1           0       -4.346459    3.184751   -0.496762
     40         14           0        2.137563    2.129861    0.083823
     41          6           0        3.891286    2.766226   -0.152913
     42          1           0        4.325008    2.451097   -1.104626
     43          1           0        3.884618    3.859726   -0.145819
     44          1           0        4.556313    2.431321    0.645855
     45          6           0        1.151369    2.707114   -1.414465
     46          1           0        0.089380    2.467697   -1.358780
     47          1           0        1.544870    2.245962   -2.323982
     48          1           0        1.240167    3.791086   -1.529072
     49          6           0        1.476569    2.910729    1.662438
     50          1           0        2.075500    2.592309    2.519422
     51          1           0        1.544205    4.000357    1.598375
     52          1           0        0.437490    2.654738    1.873283
 ---------------------------------------------------------------------

 SCF Done:  E(RHF) =  -1156.43966452     A.U. after    2 cycles

 The electronic state is 1-A.
 Alpha  occ. eigenvalues --  -69.50647 -15.48389 -11.26221 -11.25515 -11.25210
 Alpha  occ. eigenvalues --  -11.25207 -11.23894 -11.23860 -11.23741 -11.23553
 Alpha  occ. eigenvalues --  -11.23430 -11.23367 -11.23317 -11.23184 -11.23142
 Alpha  occ. eigenvalues --  -11.22991 -11.22942 -11.22629 -11.22480 -11.21921
 Alpha  occ. eigenvalues --  -11.20493 -11.20280 -11.20187  -6.17653  -3.93003
 Alpha  occ. eigenvalues --   -3.92988  -3.92982  -1.24824  -1.15541  -1.12612
 Alpha  occ. eigenvalues --   -1.07133  -1.05951  -1.04940  -1.01529  -0.99523
 Alpha  occ. eigenvalues --   -0.97826  -0.96705  -0.93323  -0.92459  -0.92125
 Alpha  occ. eigenvalues --   -0.89169  -0.87056  -0.84286  -0.82960  -0.82033
 Alpha  occ. eigenvalues --   -0.78381  -0.74235  -0.70882  -0.68910  -0.67671
 Alpha  occ. eigenvalues --   -0.67040  -0.66308  -0.64408  -0.63279  -0.62809
 Alpha  occ. eigenvalues --   -0.61008  -0.60677  -0.59989  -0.59062  -0.58571
 Alpha  occ. eigenvalues --   -0.57718  -0.57191  -0.56832  -0.56520  -0.55990
 Alpha  occ. eigenvalues --   -0.55648  -0.55002  -0.54422  -0.54087  -0.53868
 Alpha  occ. eigenvalues --   -0.53273  -0.53217  -0.52439  -0.50914  -0.50464
 Alpha  occ. eigenvalues --   -0.49712  -0.48391  -0.47447  -0.46959  -0.45191
 Alpha  occ. eigenvalues --   -0.43494  -0.43360  -0.42311  -0.38941  -0.33681
 Alpha  occ. eigenvalues --   -0.32862  -0.30995  -0.28335
 Alpha virt. eigenvalues --    0.02594   0.02744   0.02906   0.03292   0.03568
 Alpha virt. eigenvalues --    0.03617   0.04325   0.04519   0.04631   0.05227
 Alpha virt. eigenvalues --    0.05438   0.06528   0.06751   0.07175   0.07205

 Mulliken charges:
               1
     1  C   -1.437998
     2  H   -0.022589
     3  H    0.080147
     4  C    1.102802
     5  C   -1.035873
     6  H    0.211788
     7  H   -0.351835
     8  C   -3.290201
     9  H   -0.078706
    10  N    2.205324
    11  C   -1.860034
    12  C   -0.261002
    13  H    0.102070
    14  H   -0.259500
    15  C    1.429685
    16  H   -0.341261
    17  C   -0.561068
    18  C    1.387210
    19  C   -0.505523
    20  H    0.157099
    21  H    0.146564
    22  H    0.252733
    23  H    0.016319
    24  C    1.838660
    25  C   -0.137482
    26  H    0.189076
    27  H   -0.063741
    28  C   -0.669881
    29  H    0.277488
    30  C    0.692960
    31  H    0.162588
    32  C    0.260908
    33  H   -0.357100
    34  C    0.966838
    35  H   -0.193203
    36  C   -0.113773
    37  H   -0.249913
    38  C   -0.513606
    39  H   -0.340904
    40  Si   2.943204
    41  C   -0.535750
    42  H    0.007630
    43  H   -0.195072
    44  H   -0.008050
    45  C   -0.142963
    46  H   -0.508691
    47  H   -0.010417
    48  H    0.014868
    49  C   -0.289693
    50  H   -0.073548
    51  H   -0.006431
    52  H   -0.030153
 Sum of Mulliken charges =  -0.00000

 Dipole moment (field-independent basis, Debye):
    X=              1.0684    Y=             -0.8619    Z=              0.6504  Tot=              1.5190

 Test job not archived.
 1\1\GINC-SE129\SP\RHF\Aug-CC-pVDZ\C21H29N1Si1\OHZDE\09-Apr-2025\0\\#t
 hf aug-cc-pvdz iop(5/13=1,5/36=2,99/5=2) pseudo=read geom=check guess=
 (read,tcheck) scf=(maxcycle=1)\\title\\0,1\C,0,-0.072733,-2.364039,-0.
 954229\H,0,-0.144263,-3.451906,-0.965247\H,0,0.226554,-2.050967,-1.963
 374\C,0,1.009081,-1.910167,0.031016\C,0,-0.347302,0.120673,0.461314\H,
 0,-0.762434,-0.080606,1.454435\H,0,-0.280802,1.202029,0.388628\C,0,-1.
 349433,-0.371905,-0.603647\H,0,-1.003818,-0.008859,-1.577953\N,0,-1.39
 2107,-1.826935,-0.695906\C,0,2.185726,0.237434,0.245491\C,0,2.04365,-2

 Normal termination of Gaussian 16 at Wed Apr  9 02:54:42 2025.
