 Gaussian 16, Revision C.01,

 ----------------------------------------------------------------------
 #t hf aug-cc-pvdz symm=none int=(grid=ultrafine) guess=(read,tcheck) s
 table=(opt,rrhf)
 ----------------------------------------------------------------------
 -----
 title
 -----
 Symbolic Z-matrix:
 Charge =  0 Multiplicity = 1

 SCF Done:  E(RHF) =  -1035.31447795     A.U. after   15 cycles
 Normal termination of Gaussian 16 at Wed Apr  9 01:42:56 2025.
 Gaussian 16:  ES64L-G16RevC.01  3-Jul-2019

 ----------------------------------------------------------------------
 #t hf aug-cc-pvdz iop(5/13=1,5/36=2,99/5=2) pseudo=read geom=check gue
 ss=(read,tcheck) scf=(maxcycle=1)
 ----------------------------------------------------------------------
 -----
 title
 -----
 Structure from the checkpoint file:  "BH10_289_forward_mol2.chk"
 Charge =  0 Multiplicity = 1

                         Standard orientation:
 ---------------------------------------------------------------------
 Center     Atomic      Atomic             Coordinates (Angstroms)
 Number     Number       Type             X           Y           Z
 ---------------------------------------------------------------------
      1          6           0       -1.527963   -2.295721   -0.562245
      2          1           0       -2.259279   -2.677975    0.145096
      3          1           0       -0.871262   -0.893044    0.953330
      4          6           0        0.733656   -2.543045   -0.725713
      5          8           0        1.797867   -3.068374   -0.864529
      6          6           0        2.005034    0.543294   -1.187258
      7          8           0        2.990989    1.418505   -0.869191
      8          8           0        1.777798   -0.226679    1.043826
      9          1           0        3.271272   -1.256130    3.653891
     10          1           0        2.209482    0.162555    3.576102
     11          1           0        3.840447   -1.803660   -0.003910
     12          1           0        4.974338   -1.516639    1.336919
     13          6           0        1.890324    3.595247   -0.922784
     14          1           0        1.350175    2.442127    0.753103
     15          1           0        1.740145    4.523997   -1.467870
     16          1           0       -1.588266    0.169838   -1.813029
     17          6           0       -2.944148    0.465138   -0.170456
     18          6           0       -4.389713    1.101525    1.659955
     19          6           0       -5.345456    0.277725   -0.380755
     20          1           0       -3.952944   -0.240724   -1.926480
     21          1           0       -6.500326    0.877837    1.326629
     22          1           0       -2.251036    1.228742    1.711852
     23          1           0       -1.980740   -2.220782   -1.554255
     24          6           0       -0.893641   -0.972928   -0.139505
     25          7           0        0.466283   -1.184168   -0.640310
     26          8           0       -0.434582   -3.219642   -0.631665
     27          6           0        1.486185   -0.281330   -0.289046
     28          1           0        1.674770    0.509788   -2.219838
     29          5           0        3.007472   -0.529233    1.603722
     30          6           0        3.101067   -0.298914    3.148581
     31          1           0        3.970428    0.320453    3.391621
     32          6           0        4.183154   -1.071134    0.731463
     33          1           0        4.622747   -0.240193    0.168937
     34          6           0        2.906914    2.673042   -1.526335
     35          6           0        1.209953    3.355621    0.187282
     36          1           0        0.496234    4.075738    0.567522
     37          6           0       -1.557283    0.266845   -0.724853
     38          1           0       -0.933531    1.134594   -0.497457
     39          6           0       -3.119897    0.954509    1.122753
     40          6           0       -5.507744    0.761422    0.909019
     41          6           0       -4.071584    0.131146   -0.914538
     42          1           0       -6.212066    0.015973   -0.975947
     43          1           0       -4.508098    1.486433    2.665752
     44          1           0        3.904285    3.112598   -1.457345
     45          1           0        2.692173    2.518698   -2.591991
 ---------------------------------------------------------------------

 SCF Done:  E(RHF) =  -1036.36740165     A.U. after    2 cycles

 The electronic state is 1-A.
 Alpha  occ. eigenvalues --  -20.59140 -20.57846 -20.56239 -20.51827 -15.53911
 Alpha  occ. eigenvalues --  -11.40767 -11.32698 -11.31100 -11.31072 -11.30038
 Alpha  occ. eigenvalues --  -11.29471 -11.25875 -11.25340 -11.25335 -11.25256
 Alpha  occ. eigenvalues --  -11.25235 -11.25016 -11.24937 -11.24908 -11.24120
 Alpha  occ. eigenvalues --  -11.19267 -11.17918  -7.60276  -1.55259  -1.51337
 Alpha  occ. eigenvalues --   -1.48873  -1.45760  -1.27423  -1.17459  -1.09905
 Alpha  occ. eigenvalues --   -1.08501  -1.04756  -1.02872  -1.02392  -0.96526
 Alpha  occ. eigenvalues --   -0.95716  -0.94867  -0.91902  -0.87948  -0.87526
 Alpha  occ. eigenvalues --   -0.84862  -0.81748  -0.80085  -0.78140  -0.75442
 Alpha  occ. eigenvalues --   -0.74130  -0.72996  -0.71740  -0.69531  -0.68111
 Alpha  occ. eigenvalues --   -0.67472  -0.66142  -0.65496  -0.64657  -0.63180
 Alpha  occ. eigenvalues --   -0.62149  -0.61380  -0.61127  -0.60770  -0.59795
 Alpha  occ. eigenvalues --   -0.59118  -0.58885  -0.57913  -0.56810  -0.55573
 Alpha  occ. eigenvalues --   -0.55351  -0.53148  -0.52591  -0.52466  -0.51839
 Alpha  occ. eigenvalues --   -0.51553  -0.51118  -0.50886  -0.50291  -0.49871
 Alpha  occ. eigenvalues --   -0.49132  -0.45649  -0.45276  -0.44419  -0.43033
 Alpha  occ. eigenvalues --   -0.38732  -0.35817  -0.35452  -0.34598
 Alpha virt. eigenvalues --    0.02376   0.02666   0.02753   0.03494   0.03645
 Alpha virt. eigenvalues --    0.03803   0.04491   0.04730   0.05458   0.05805
 Alpha virt. eigenvalues --    0.05854   0.06361   0.06868   0.07557   0.07947

 Mulliken charges:
               1
     1  C    0.980606
     2  H    0.104969
     3  H   -0.141348
     4  C    2.205014
     5  O   -1.369579
     6  C    1.605869
     7  O   -1.722909
     8  O   -2.410301
     9  H    0.108675
    10  H   -0.027534
    11  H    0.142900
    12  H   -0.081047
    13  C    0.560528
    14  H   -0.207285
    15  H   -0.183437
    16  H    0.090160
    17  C    1.910180
    18  C   -0.333819
    19  C    0.063921
    20  H   -0.355042
    21  H   -0.225683
    22  H   -0.359765
    23  H    0.128044
    24  C   -2.006628
    25  N    2.128471
    26  O   -1.586990
    27  C    0.719748
    28  H   -0.235582
    29  B    1.227052
    30  C   -0.444856
    31  H    0.067510
    32  C   -0.519288
    33  H    0.190994
    34  C    0.077215
    35  C    0.073792
    36  H   -0.165385
    37  C   -0.785318
    38  H    0.106752
    39  C    0.587220
    40  C    0.279593
    41  C    0.076735
    42  H   -0.252550
    43  H   -0.268305
    44  H   -0.006628
    45  H    0.253329
 Sum of Mulliken charges =  -0.00000

 Dipole moment (field-independent basis, Debye):
    X=             -3.4255    Y=              4.5563    Z=             -0.6740  Tot=              5.7401

 Test job not archived.
 1\1\GINC-SE284\SP\RHF\Aug-CC-pVDZ\C17H22B1N1O4\OHZDE\09-Apr-2025\0\\#t
  hf aug-cc-pvdz iop(5/13=1,5/36=2,99/5=2) pseudo=read geom=check guess
 =(read,tcheck) scf=(maxcycle=1)\\title\\0,1\C,0,-1.527963,-2.295721,-0
 .562245\H,0,-2.259279,-2.677975,0.145096\H,0,-0.871262,-0.893044,0.953
 33\C,0,0.733656,-2.543045,-0.725713\O,0,1.797867,-3.068374,-0.864529\C
 ,0,2.005034,0.543294,-1.187258\O,0,2.990989,1.418505,-0.869191\O,0,1.7
 77798,-0.226679,1.043826\H,0,3.271272,-1.25613,3.653891\H,0,2.209482,0
 .162555,3.576102\H,0,3.840447,-1.80366,-0.00391\H,0,4.974338,-1.516639

 Normal termination of Gaussian 16 at Wed Apr  9 01:44:56 2025.
