 Gaussian 16, Revision C.01,

 ----------------------------------------------------------------------
 #t hf aug-cc-pvdz symm=none int=(grid=ultrafine) guess=(read,tcheck) s
 table=(opt,rrhf)
 ----------------------------------------------------------------------
 -----
 title
 -----
 Symbolic Z-matrix:
 Charge =  0 Multiplicity = 1

 SCF Done:  E(RHF) =  -764.523475048     A.U. after   15 cycles
 Normal termination of Gaussian 16 at Wed Apr  9 00:59:08 2025.
 Gaussian 16:  ES64L-G16RevC.01  3-Jul-2019

 ----------------------------------------------------------------------
 #t hf aug-cc-pvdz iop(5/13=1,5/36=2,99/5=2) pseudo=read geom=check gue
 ss=(read,tcheck) scf=(maxcycle=1)
 ----------------------------------------------------------------------
 -----
 title
 -----
 Structure from the checkpoint file:  "BH10_172_forward_mol2.chk"
 Charge =  0 Multiplicity = 1

                         Standard orientation:
 ---------------------------------------------------------------------
 Center     Atomic      Atomic             Coordinates (Angstroms)
 Number     Number       Type             X           Y           Z
 ---------------------------------------------------------------------
      1          1           0       -3.550853   -0.796061    0.000239
      2          8           0       -3.171828    0.087044    0.000203
      3          6           0       -1.811820    0.015934    0.000116
      4          6           0       -1.124169   -1.190641    0.000079
      5          6           0        0.263571   -1.200490   -0.000010
      6          6           0        0.954303   -0.002195   -0.000062
      7          6           0        0.273882    1.206318   -0.000025
      8          6           0       -1.109907    1.215184    0.000064
      9          1           0       -1.660859    2.146568    0.000094
     10          1           0        0.803384   -2.137970   -0.000039
     11          1           0       -1.668140   -2.129197    0.000119
     12          1           0        0.826284    2.136534   -0.000066
     13         17           0        2.702921   -0.010640   -0.000173
 ---------------------------------------------------------------------

 SCF Done:  E(RHF) =  -764.909262888     A.U. after    2 cycles

 The electronic state is 1-A.
 Alpha  occ. eigenvalues -- -105.56974 -20.59080 -11.32103 -11.30250 -11.26550
 Alpha  occ. eigenvalues --  -11.26377 -11.25659 -11.25093 -10.61786  -7.78754
 Alpha  occ. eigenvalues --   -7.78358  -7.78336  -1.50667  -1.18824  -1.09577
 Alpha  occ. eigenvalues --   -1.04396  -0.98545  -0.87833  -0.83498  -0.75927
 Alpha  occ. eigenvalues --   -0.70454  -0.66945  -0.63811  -0.62262  -0.60425
 Alpha  occ. eigenvalues --   -0.58939  -0.54516  -0.54237  -0.52519  -0.46473
 Alpha  occ. eigenvalues --   -0.46427  -0.36991  -0.32810
 Alpha virt. eigenvalues --    0.02742   0.03923   0.04218   0.05614   0.06463
 Alpha virt. eigenvalues --    0.08760   0.09546   0.09679   0.10902   0.12799
 Alpha virt. eigenvalues --    0.12859   0.13024   0.13448   0.13767   0.14194

 Mulliken charges:
               1
     1  H    0.404822
     2  O   -1.741985
     3  C    1.533024
     4  C    0.084628
     5  C    0.276999
     6  C   -0.173662
     7  C    0.405087
     8  C    0.405051
     9  H   -0.240018
    10  H   -0.144229
    11  H   -0.313535
    12  H   -0.157604
    13  Cl  -0.338577
 Sum of Mulliken charges =  -0.00000

 Dipole moment (field-independent basis, Debye):
    X=             -1.9800    Y=             -1.3161    Z=              0.0001  Tot=              2.3775

 Test job not archived.
 1\1\GINC-SE187\SP\RHF\Aug-CC-pVDZ\C6H5Cl1O1\OHZDE\09-Apr-2025\0\\#t hf
  aug-cc-pvdz iop(5/13=1,5/36=2,99/5=2) pseudo=read geom=check guess=(r
 ead,tcheck) scf=(maxcycle=1)\\title\\0,1\H,0,-3.550853,-0.796061,0.000
 239\O,0,-3.171828,0.087044,0.000203\C,0,-1.81182,0.015934,0.000116\C,0
 ,-1.124169,-1.190641,0.000079\C,0,0.263571,-1.20049,-0.00001\C,0,0.954
 303,-0.002195,-0.000062\C,0,0.273882,1.206318,-0.000025\C,0,-1.109907,
 1.215184,0.000064\H,0,-1.660859,2.146568,0.000094\H,0,0.803384,-2.1379
 7,-0.000039\H,0,-1.66814,-2.129197,0.000119\H,0,0.826284,2.136534,-0.0

 Normal termination of Gaussian 16 at Wed Apr  9 00:59:13 2025.
