 Gaussian 16, Revision C.01,

 ----------------------------------------------------------------------
 #t hf aug-cc-pvdz symm=none int=(grid=ultrafine) guess=(read,tcheck) s
 table=opt
 ----------------------------------------------------------------------
 -----
 title
 -----
 Symbolic Z-matrix:
 Charge =  0 Multiplicity = 2

 SCF Done:  E(UHF) =  -1512.37309633     A.U. after   15 cycles
 Normal termination of Gaussian 16 at Wed Apr  9 01:29:37 2025.
 Gaussian 16:  ES64L-G16RevC.01  3-Jul-2019

 ----------------------------------------------------------------------
 #t hf aug-cc-pvdz iop(5/13=1,5/36=2,99/5=2) pseudo=read geom=check gue
 ss=(read,tcheck) scf=(maxcycle=1)
 ----------------------------------------------------------------------
 -----
 title
 -----
 Structure from the checkpoint file:  "BH10_291_forward_mol3.chk"
 Charge =  0 Multiplicity = 2

                         Standard orientation:
 ---------------------------------------------------------------------
 Center     Atomic      Atomic             Coordinates (Angstroms)
 Number     Number       Type             X           Y           Z
 ---------------------------------------------------------------------
      1         14           0       -0.000493    0.000060   -0.628883
      2         14           0       -2.264306    0.037055   -0.050547
      3         14           0        1.164004    1.941542   -0.050597
      4         14           0        1.100158   -1.978573   -0.050564
      5          6           0       -3.244162   -1.163276   -1.119075
      6          1           0       -4.299339   -1.164543   -0.830696
      7          1           0       -3.184839   -0.891370   -2.175272
      8          1           0       -2.868582   -2.183762   -1.017772
      9          6           0       -2.457279   -0.465634    1.758204
     10          1           0       -3.509379   -0.438659    2.057478
     11          1           0       -2.088587   -1.479434    1.931069
     12          1           0       -1.903188    0.205656    2.418231
     13          6           0       -2.961803    1.772967   -0.271452
     14          1           0       -4.026128    1.793821   -0.020189
     15          1           0       -2.455291    2.493324    0.375131
     16          1           0       -2.855281    2.117652   -1.302481
     17          6           0        0.831491    2.355408    1.760527
     18          1           0        1.139080    1.538516    2.417405
     19          1           0        1.381467    3.252663    2.059964
     20          1           0       -0.230270    2.541936    1.938221
     21          6           0        3.015400    1.678885   -0.278180
     22          1           0        3.257389    1.416991   -1.310654
     23          1           0        3.566141    2.589714   -0.026310
     24          1           0        3.388186    0.878491    0.365166
     25          6           0        0.610117    3.392273   -1.114077
     26          1           0        0.811532    3.206910   -2.171462
     27          1           0       -0.460986    3.576902   -1.007897
     28          1           0        1.137781    4.306180   -0.826122
     29          6           0        2.629102   -2.226185   -1.119942
     30          1           0        3.324567   -1.390153   -1.018818
     31          1           0        3.158466   -3.139182   -0.832220
     32          1           0        2.363271   -2.310582   -2.175985
     33          6           0        1.632445   -1.893923    1.758041
     34          1           0        2.135886   -2.818214    2.057095
     35          1           0        2.325382   -1.067123    1.930953
     36          1           0        0.774062   -1.750575    2.418321
     37          6           0       -0.054382   -3.450656   -0.270700
     38          1           0        0.459209   -4.382677   -0.017862
     39          1           0       -0.932077   -3.371077    0.374904
     40          1           0       -0.405130   -3.531730   -1.302001
 ---------------------------------------------------------------------

 SCF Done:  E(UHF) =  -1512.90496774     A.U. after    2 cycles

 The electronic state is 2-A.
 Alpha  occ. eigenvalues --  -69.50682 -69.50681 -69.50679 -69.48385 -11.20830
 Alpha  occ. eigenvalues --  -11.20829 -11.20829 -11.20803 -11.20802 -11.20800
 Alpha  occ. eigenvalues --  -11.20600 -11.20599 -11.20597  -6.17733  -6.17720
 Alpha  occ. eigenvalues --   -6.17719  -6.16030  -3.93050  -3.93050  -3.93049
 Alpha  occ. eigenvalues --   -3.93048  -3.93046  -3.93044  -3.93025  -3.93021
 Alpha  occ. eigenvalues --   -3.93019  -3.91956  -3.91012  -3.91012  -0.98236
 Alpha  occ. eigenvalues --   -0.97442  -0.97440  -0.92870  -0.92733  -0.92732
 Alpha  occ. eigenvalues --   -0.92349  -0.92346  -0.92122  -0.74049  -0.64423
 Alpha  occ. eigenvalues --   -0.64421  -0.60001  -0.57918  -0.57914  -0.56967
 Alpha  occ. eigenvalues --   -0.56967  -0.56962  -0.56298  -0.56229  -0.56228
 Alpha  occ. eigenvalues --   -0.55026  -0.54685  -0.54682  -0.54301  -0.54296
 Alpha  occ. eigenvalues --   -0.54031  -0.53794  -0.53488  -0.53463  -0.53458
 Alpha  occ. eigenvalues --   -0.44604  -0.44351  -0.44351  -0.43786  -0.43785
 Alpha  occ. eigenvalues --   -0.43488  -0.35859  -0.35855  -0.29331
 Alpha virt. eigenvalues --    0.02952   0.02953   0.03215   0.03318   0.04642
 Alpha virt. eigenvalues --    0.04642   0.05167   0.05173   0.05174   0.06750
 Alpha virt. eigenvalues --    0.06909   0.07252   0.07252   0.07502   0.07503

  Beta  occ. eigenvalues --  -69.50707 -69.50706 -69.50704 -69.47880 -11.20809
  Beta  occ. eigenvalues --  -11.20809 -11.20807 -11.20759 -11.20758 -11.20757
  Beta  occ. eigenvalues --  -11.20600 -11.20599 -11.20597  -6.17771  -6.17758
  Beta  occ. eigenvalues --   -6.17757  -6.15316  -3.93114  -3.93108  -3.93106
  Beta  occ. eigenvalues --   -3.93071  -3.93070  -3.93068  -3.93062  -3.93061
  Beta  occ. eigenvalues --   -3.93059  -3.90639  -3.90639  -3.89814  -0.98076
  Beta  occ. eigenvalues --   -0.97386  -0.97384  -0.92738  -0.92728  -0.92727
  Beta  occ. eigenvalues --   -0.92231  -0.92227  -0.92132  -0.70805  -0.64404
  Beta  occ. eigenvalues --   -0.64402  -0.59514  -0.57860  -0.57856  -0.56942
  Beta  occ. eigenvalues --   -0.56940  -0.56829  -0.56203  -0.56201  -0.56178
  Beta  occ. eigenvalues --   -0.54818  -0.54657  -0.54655  -0.54211  -0.54206
  Beta  occ. eigenvalues --   -0.54009  -0.53473  -0.53440  -0.53435  -0.51495
  Beta  occ. eigenvalues --   -0.44312  -0.44311  -0.43938  -0.43519  -0.43517
  Beta  occ. eigenvalues --   -0.43498  -0.35182  -0.35178
  Beta virt. eigenvalues --    0.01988   0.02955   0.02956   0.03333   0.04651
  Beta virt. eigenvalues --    0.04651   0.04759   0.05194   0.05195   0.05554
  Beta virt. eigenvalues --    0.06749   0.06914   0.07256   0.07256   0.07511

 Mulliken charges and spin densities:
               1          2
     1  Si  -0.366865   1.361260
     2  Si   2.538965  -0.117841
     3  Si   2.537686  -0.118009
     4  Si   2.538594  -0.117781
     5  C   -0.569934  -0.013653
     6  H   -0.087083  -0.004160
     7  H   -0.084441  -0.011890
     8  H   -0.095978   0.008202
     9  C   -0.507069   0.021367
    10  H   -0.111153   0.004073
    11  H   -0.107633  -0.002218
    12  H   -0.072861  -0.010299
    13  C   -0.544620   0.003172
    14  H   -0.126583  -0.002352
    15  H   -0.088977   0.007660
    16  H   -0.019754  -0.002380
    17  C   -0.507133   0.021426
    18  H   -0.072972  -0.010254
    19  H   -0.111542   0.004111
    20  H   -0.106746  -0.002299
    21  C   -0.544003   0.003053
    22  H   -0.020453  -0.002469
    23  H   -0.126303  -0.002367
    24  H   -0.089236   0.007658
    25  C   -0.569752  -0.013626
    26  H   -0.084409  -0.011783
    27  H   -0.096467   0.008190
    28  H   -0.087003  -0.004164
    29  C   -0.569838  -0.013711
    30  H   -0.095681   0.008201
    31  H   -0.087318  -0.004166
    32  H   -0.084109  -0.011889
    33  C   -0.507307   0.021327
    34  H   -0.111169   0.004083
    35  H   -0.107180  -0.002276
    36  H   -0.073069  -0.010278
    37  C   -0.544443   0.003194
    38  H   -0.125871  -0.002341
    39  H   -0.090363   0.007663
    40  H   -0.019928  -0.002434
 Sum of Mulliken charges =   0.00000   1.00000

 Dipole moment (field-independent basis, Debye):
    X=             -0.0003    Y=             -0.0007    Z=              0.3408  Tot=              0.3408
                          Isotropic Fermi Contact Couplings
        Atom                 a.u.       MegaHertz       Gauss      10(-4) cm-1
     1  Si(29)             0.31764    -282.29838    -100.73108     -94.16460
     2  Si(29)            -0.02736      24.31846       8.67743       8.11176
     3  Si(29)            -0.02739      24.34246       8.68599       8.11977
     4  Si(29)            -0.02738      24.33177       8.68218       8.11621
     5  C(13)              0.00093       1.04752       0.37378       0.34941
     6  H(1)              -0.00028      -1.27204      -0.45390      -0.42431
     7  H(1)               0.00001       0.02821       0.01007       0.00941
     8  H(1)              -0.00002      -0.07018      -0.02504      -0.02341

 Normal termination of Gaussian 16 at Wed Apr  9 01:30:52 2025.
