 Gaussian 16, Revision C.01,

 ----------------------------------------------------------------------
 #t hf aug-cc-pvdz symm=none int=(grid=ultrafine) guess=(read,tcheck) s
 table=(opt,rrhf)
 ----------------------------------------------------------------------
 -----
 title
 -----
 Symbolic Z-matrix:
 Charge =  0 Multiplicity = 1

 SCF Done:  E(RHF) =  -1125.28392216     A.U. after   15 cycles
 Normal termination of Gaussian 16 at Wed Apr  9 02:05:48 2025.
 Gaussian 16:  ES64L-G16RevC.01  3-Jul-2019

 ----------------------------------------------------------------------
 #t hf aug-cc-pvdz iop(5/13=1,5/36=2,99/5=2) pseudo=read geom=check gue
 ss=(read,tcheck) scf=(maxcycle=1)
 ----------------------------------------------------------------------
 -----
 title
 -----
 Structure from the checkpoint file:  "BH10_296_reverse_mol2.chk"
 Charge =  0 Multiplicity = 1

                         Standard orientation:
 ---------------------------------------------------------------------
 Center     Atomic      Atomic             Coordinates (Angstroms)
 Number     Number       Type             X           Y           Z
 ---------------------------------------------------------------------
      1          6           0        0.648503    2.595494    0.372259
      2          6           0        0.454733    1.219434    1.068882
      3          6           0       -2.159439    1.240975   -0.618622
      4          1           0        1.718701    2.748165    0.211483
      5          6           0       -0.587409    1.260166    2.206605
      6          1           0       -0.789021    0.241115    2.553838
      7          1           0       -0.132702    1.779793    3.057222
      8          1           0       -3.019171    1.061360   -1.270914
      9          1           0        1.406093    0.968573    1.545340
     10          6           0       -1.905059    1.960333    1.892452
     11          1           0       -2.501449    1.990172    2.809796
     12          1           0       -1.706463    3.006318    1.643693
     13          6           0       -2.762627    1.337710    0.795255
     14          1           0       -3.086020    0.343839    1.117836
     15          1           0       -3.678092    1.934329    0.719343
     16          6           0       -1.551373    2.587076   -1.090924
     17          1           0       -1.809469    2.725046   -2.145416
     18          6           0       -0.029933    2.759765   -0.994549
     19          1           0        0.442034    2.064304   -1.698277
     20          1           0        0.214930    3.755587   -1.376642
     21          1           0       -2.046966    3.406626   -0.559943
     22          1           0        0.328952    3.397086    1.045540
     23          6           0       -1.195458    0.052635   -0.817483
     24          1           0       -0.918235    0.003996   -1.881313
     25         14           0       -1.954151   -1.683260   -0.572623
     26          6           0       -1.750477   -2.306053    1.191797
     27          1           0       -2.286367   -1.692933    1.919081
     28          1           0       -2.132988   -3.326995    1.276746
     29          1           0       -0.695357   -2.326139    1.477893
     30          6           0       -1.069646   -2.875920   -1.719973
     31          1           0       -1.458064   -3.891326   -1.604095
     32          1           0       -1.198578   -2.587678   -2.766603
     33          1           0        0.000584   -2.892467   -1.507731
     34          6           0       -3.779705   -1.656215   -1.026194
     35          1           0       -3.924955   -1.310631   -2.053090
     36          1           0       -4.197178   -2.664499   -0.957059
     37          1           0       -4.367167   -1.009628   -0.371503
     38          5           0        0.144835    0.147452   -0.038852
     39          6           0        3.509659    0.442686   -1.452258
     40          6           0        3.442753   -0.385547   -0.262025
     41          6           0        4.615921    1.032366   -1.903808
     42          6           0        2.298321   -0.910673    0.191837
     43          8           0        1.116196   -0.760062   -0.439259
     44          8           0        2.130331   -1.678153    1.283489
     45          6           0        3.274624   -1.979682    2.063038
     46          1           0        3.728165   -1.066364    2.457193
     47          1           0        2.923190   -2.599521    2.883905
     48          1           0        4.011743   -2.530668    1.473435
     49          1           0        2.582180    0.573212   -2.000302
     50          1           0        5.566339    0.927961   -1.391300
     51          1           0        4.604629    1.636458   -2.801607
     52          1           0        4.362124   -0.578293    0.272859
 ---------------------------------------------------------------------

 SCF Done:  E(RHF) =  -1126.19897548     A.U. after    2 cycles

 The electronic state is 1-A.
 Alpha  occ. eigenvalues --  -69.50051 -20.58787 -20.56559 -11.36641 -11.30251
 Alpha  occ. eigenvalues --  -11.24089 -11.22748 -11.22299 -11.22288 -11.22198
 Alpha  occ. eigenvalues --  -11.22190 -11.22117 -11.21922 -11.21834 -11.21798
 Alpha  occ. eigenvalues --  -11.20038 -11.19897 -11.19869 -11.19356 -11.18237
 Alpha  occ. eigenvalues --   -7.60649  -6.17065  -3.92407  -3.92399  -3.92389
 Alpha  occ. eigenvalues --   -1.54998  -1.47236  -1.12063  -1.08637  -1.04977
 Alpha  occ. eigenvalues --   -1.04346  -1.00778  -0.98131  -0.96821  -0.95122
 Alpha  occ. eigenvalues --   -0.92171  -0.91730  -0.91407  -0.88421  -0.83011
 Alpha  occ. eigenvalues --   -0.80254  -0.79669  -0.77100  -0.73181  -0.72306
 Alpha  occ. eigenvalues --   -0.70683  -0.68610  -0.66906  -0.65014  -0.64084
 Alpha  occ. eigenvalues --   -0.63014  -0.61322  -0.60973  -0.60005  -0.59628
 Alpha  occ. eigenvalues --   -0.58624  -0.58444  -0.57960  -0.56955  -0.56570
 Alpha  occ. eigenvalues --   -0.56128  -0.55473  -0.54969  -0.53708  -0.53325
 Alpha  occ. eigenvalues --   -0.52743  -0.52456  -0.51357  -0.50252  -0.50209
 Alpha  occ. eigenvalues --   -0.49858  -0.49473  -0.48370  -0.47562  -0.46591
 Alpha  occ. eigenvalues --   -0.44959  -0.43767  -0.43718  -0.43253  -0.42412
 Alpha  occ. eigenvalues --   -0.42072  -0.41409  -0.38794  -0.30265
 Alpha virt. eigenvalues --    0.02272   0.02606   0.02705   0.03297   0.04038
 Alpha virt. eigenvalues --    0.04089   0.04388   0.04536   0.04780   0.06167
 Alpha virt. eigenvalues --    0.06299   0.06569   0.06746   0.07181   0.07354

 Mulliken charges:
               1
     1  C   -0.424628
     2  C    0.101501
     3  C   -0.003502
     4  H    0.036702
     5  C   -0.476370
     6  H    0.191728
     7  H    0.060829
     8  H    0.047725
     9  H    0.023560
    10  C   -0.267874
    11  H    0.011338
    12  H    0.286513
    13  C   -0.285776
    14  H    0.111255
    15  H    0.082697
    16  C   -0.497894
    17  H    0.091134
    18  C   -0.067526
    19  H    0.363275
    20  H   -0.055603
    21  H    0.133947
    22  H    0.108309
    23  C   -0.961743
    24  H    0.003524
    25  Si   2.220808
    26  C   -0.181680
    27  H    0.008252
    28  H   -0.143507
    29  H   -0.070838
    30  C   -0.404927
    31  H   -0.096513
    32  H    0.003421
    33  H    0.034834
    34  C   -0.442010
    35  H   -0.023898
    36  H   -0.225638
    37  H    0.035758
    38  B    2.223974
    39  C    0.651786
    40  C    0.866458
    41  C   -0.037826
    42  C    1.906895
    43  O   -2.616501
    44  O   -1.627251
    45  C    0.246160
    46  H    0.182075
    47  H   -0.083367
    48  H    0.190231
    49  H   -0.410592
    50  H   -0.159892
    51  H   -0.223753
    52  H   -0.435578
 Sum of Mulliken charges =  -0.00000

 Dipole moment (field-independent basis, Debye):
    X=              0.4703    Y=              0.0670    Z=              1.6869  Tot=              1.7525

 Test job not archived.
 1\1\GINC-SE273\SP\RHF\Aug-CC-pVDZ\C17H31B1O2Si1\OHZDE\09-Apr-2025\0\\#
 t hf aug-cc-pvdz iop(5/13=1,5/36=2,99/5=2) pseudo=read geom=check gues
 s=(read,tcheck) scf=(maxcycle=1)\\title\\0,1\C,0,0.648503,2.595494,0.3
 72259\C,0,0.454733,1.219434,1.068882\C,0,-2.159439,1.240975,-0.618622\
 H,0,1.718701,2.748165,0.211483\C,0,-0.587409,1.260166,2.206605\H,0,-0.
 789021,0.241115,2.553838\H,0,-0.132702,1.779793,3.057222\H,0,-3.019171
 ,1.06136,-1.270914\H,0,1.406093,0.968573,1.54534\C,0,-1.905059,1.96033
 3,1.892452\H,0,-2.501449,1.990172,2.809796\H,0,-1.706463,3.006318,1.64

 Normal termination of Gaussian 16 at Wed Apr  9 02:08:56 2025.
