 Gaussian 16, Revision C.01,

 ----------------------------------------------------------------------
 #t hf aug-cc-pvdz symm=none int=(grid=ultrafine) guess=(read,tcheck) s
 table=(opt,rrhf)
 ----------------------------------------------------------------------
 -----
 title
 -----
 Symbolic Z-matrix:
 Charge =  0 Multiplicity = 1

 SCF Done:  E(RHF) =  -842.581321091     A.U. after   15 cycles
 Normal termination of Gaussian 16 at Wed Apr  9 01:02:39 2025.
 Gaussian 16:  ES64L-G16RevC.01  3-Jul-2019

 ----------------------------------------------------------------------
 #t hf aug-cc-pvdz iop(5/13=1,5/36=2,99/5=2) pseudo=read geom=check gue
 ss=(read,tcheck) scf=(maxcycle=1)
 ----------------------------------------------------------------------
 -----
 title
 -----
 Structure from the checkpoint file:  "BH10_246_forward_mol2.chk"
 Charge =  0 Multiplicity = 1

                         Standard orientation:
 ---------------------------------------------------------------------
 Center     Atomic      Atomic             Coordinates (Angstroms)
 Number     Number       Type             X           Y           Z
 ---------------------------------------------------------------------
      1          6           0        2.428229    0.545421   -0.717635
      2          6           0        0.953592    0.354489   -0.448549
      3          6           0        0.152064    1.415320   -0.048638
      4          6           0        0.371358   -0.898574   -0.620487
      5          6           0       -1.208758    1.243055    0.169051
      6          1           0        0.591825    2.395224    0.101241
      7          6           0       -0.982237   -1.090196   -0.399517
      8          1           0        0.993202   -1.734124   -0.918987
      9          6           0       -1.762437   -0.012085   -0.008445
     10          1           0       -1.830895    2.071281    0.481087
     11          1           0       -1.434079   -2.064517   -0.530499
     12          8           0        3.233911   -0.476400   -0.174093
     13          6           0        3.296111   -0.451087    1.235363
     14          1           0        2.311791   -0.612058    1.688373
     15          1           0        3.965424   -1.253922    1.539736
     16          1           0        3.697270    0.505928    1.592926
     17         17           0       -3.471768   -0.246191    0.270932
     18          1           0        2.748438    1.526531   -0.341133
     19          1           0        2.618262    0.524052   -1.792708
 ---------------------------------------------------------------------

 SCF Done:  E(RHF) =  -843.052765584     A.U. after    2 cycles

 The electronic state is 1-A.
 Alpha  occ. eigenvalues -- -105.57204 -20.55167 -11.30947 -11.29668 -11.28302
 Alpha  occ. eigenvalues --  -11.25876 -11.25818 -11.25651 -11.25437 -11.25263
 Alpha  occ. eigenvalues --  -10.62021  -7.78990  -7.78591  -7.78573  -1.47119
 Alpha  occ. eigenvalues --   -1.19108  -1.10798  -1.03771  -1.02314  -0.95956
 Alpha  occ. eigenvalues --   -0.88994  -0.86147  -0.81212  -0.71636  -0.69213
 Alpha  occ. eigenvalues --   -0.67089  -0.65678  -0.64441  -0.63255  -0.61592
 Alpha  occ. eigenvalues --   -0.57837  -0.56220  -0.54439  -0.53437  -0.52514
 Alpha  occ. eigenvalues --   -0.48334  -0.47346  -0.46549  -0.42879  -0.36412
 Alpha  occ. eigenvalues --   -0.34399
 Alpha virt. eigenvalues --    0.03150   0.03720   0.03927   0.04096   0.05266
 Alpha virt. eigenvalues --    0.05990   0.06484   0.07082   0.07813   0.09104
 Alpha virt. eigenvalues --    0.09782   0.09917   0.10984   0.11939   0.13254

 Mulliken charges:
               1
     1  C    0.379838
     2  C    0.656517
     3  C    0.569626
     4  C    0.371786
     5  C    0.185123
     6  H   -0.332862
     7  C    0.245850
     8  H   -0.336040
     9  C   -0.421314
    10  H   -0.196110
    11  H   -0.196108
    12  O   -1.259116
    13  C    0.163075
    14  H    0.229030
    15  H   -0.033498
    16  H    0.159843
    17  Cl  -0.337916
    18  H    0.063907
    19  H    0.088369
 Sum of Mulliken charges =  -0.00000

 Dipole moment (field-independent basis, Debye):
    X=              1.4840    Y=              1.0024    Z=              0.4518  Tot=              1.8469

 Test job not archived.
 1\1\GINC-SE179\SP\RHF\Aug-CC-pVDZ\C8H9Cl1O1\OHZDE\09-Apr-2025\0\\#t hf
  aug-cc-pvdz iop(5/13=1,5/36=2,99/5=2) pseudo=read geom=check guess=(r
 ead,tcheck) scf=(maxcycle=1)\\title\\0,1\C,0,2.428229,0.545421,-0.7176
 35\C,0,0.953592,0.354489,-0.448549\C,0,0.152064,1.41532,-0.048638\C,0,
 0.371358,-0.898574,-0.620487\C,0,-1.208758,1.243055,0.169051\H,0,0.591
 825,2.395224,0.101241\C,0,-0.982237,-1.090196,-0.399517\H,0,0.993202,-
 1.734124,-0.918987\C,0,-1.762437,-0.012085,-0.008445\H,0,-1.830895,2.0
 71281,0.481087\H,0,-1.434079,-2.064517,-0.530499\O,0,3.233911,-0.4764,

 Normal termination of Gaussian 16 at Wed Apr  9 01:02:50 2025.
