 Gaussian 16, Revision C.01,

 ----------------------------------------------------------------------
 #t hf aug-cc-pvdz symm=none int=(grid=ultrafine) guess=(read,tcheck) s
 table=(opt,rrhf)
 ----------------------------------------------------------------------
 -----
 title
 -----
 Symbolic Z-matrix:
 Charge =  0 Multiplicity = 1

 SCF Done:  E(RHF) =  -498.870905975     A.U. after   14 cycles
 Normal termination of Gaussian 16 at Wed Apr  9 00:56:56 2025.
 Gaussian 16:  ES64L-G16RevC.01  3-Jul-2019

 ----------------------------------------------------------------------
 #t hf aug-cc-pvdz iop(5/13=1,5/36=2,99/5=2) pseudo=read geom=check gue
 ss=(read,tcheck) scf=(maxcycle=1)
 ----------------------------------------------------------------------
 -----
 title
 -----
 Structure from the checkpoint file:  "BH10_107_forward_mol2.chk"
 Charge =  0 Multiplicity = 1

                         Standard orientation:
 ---------------------------------------------------------------------
 Center     Atomic      Atomic             Coordinates (Angstroms)
 Number     Number       Type             X           Y           Z
 ---------------------------------------------------------------------
      1          6           0        0.272587    0.436301   -0.493132
      2          6           0        1.458203   -0.458749   -0.090540
      3          8           0        2.579185    0.223737    0.121540
      4          8           0        1.398465   -1.653247   -0.005949
      5          6           0       -1.086187   -0.087798    0.013207
      6          1           0        0.244913    0.397666   -1.586353
      7          7           0        0.573657    1.816886   -0.123441
      8          1           0        2.337353    1.170273    0.020348
      9          6           0       -1.140502   -0.258333    1.517490
     10          6           0       -1.553208   -1.318942   -0.731103
     11          1           0        0.283117    2.018736    0.827506
     12          1           0        0.082568    2.466194   -0.723983
     13          1           0       -0.839595    0.651775    2.040813
     14          1           0       -2.161601   -0.491533    1.819482
     15          1           0       -2.559536   -1.583063   -0.403091
     16          1           0       -0.877130   -2.150818   -0.542423
     17          1           0       -1.580214   -1.122824   -1.804496
     18          1           0       -0.488060   -1.075229    1.826172
     19          9           0       -1.998219    0.951314   -0.314462
 ---------------------------------------------------------------------

 SCF Done:  E(RHF) =  -499.374030402     A.U. after    2 cycles

 The electronic state is 1-A.
 Alpha  occ. eigenvalues --  -26.44867 -20.59192 -20.53353 -15.53001 -11.39397
 Alpha  occ. eigenvalues --  -11.34103 -11.30530 -11.24461 -11.23384  -1.56915
 Alpha  occ. eigenvalues --   -1.54758  -1.45849  -1.23190  -1.09353  -0.98545
 Alpha  occ. eigenvalues --   -0.96496  -0.84222  -0.81306  -0.76786  -0.72535
 Alpha  occ. eigenvalues --   -0.71588  -0.67459  -0.66352  -0.65134  -0.64769
 Alpha  occ. eigenvalues --   -0.60854  -0.58868  -0.57694  -0.56491  -0.55779
 Alpha  occ. eigenvalues --   -0.54690  -0.52669  -0.50295  -0.48228  -0.46806
 Alpha  occ. eigenvalues --   -0.43408
 Alpha virt. eigenvalues --    0.02741   0.03752   0.04019   0.05306   0.05825
 Alpha virt. eigenvalues --    0.06019   0.06514   0.07474   0.08579   0.08994
 Alpha virt. eigenvalues --    0.09691   0.11372   0.12748   0.13148   0.14389

 Mulliken charges:
               1
     1  C   -2.074300
     2  C    2.496223
     3  O   -1.363941
     4  O   -1.333424
     5  C    0.884124
     6  H    0.225593
     7  N    0.331794
     8  H    0.480696
     9  C   -0.260899
    10  C   -0.243889
    11  H    0.228215
    12  H    0.391063
    13  H    0.119711
    14  H    0.209736
    15  H    0.186632
    16  H    0.279940
    17  H    0.193196
    18  H    0.271502
    19  F   -1.021971
 Sum of Mulliken charges =  -0.00000

 Dipole moment (field-independent basis, Debye):
    X=             -1.8644    Y=              2.6974    Z=             -0.0105  Tot=              3.2790

 Test job not archived.
 1\1\GINC-SE099\SP\RHF\Aug-CC-pVDZ\C5H10F1N1O2\OHZDE\09-Apr-2025\0\\#t
 hf aug-cc-pvdz iop(5/13=1,5/36=2,99/5=2) pseudo=read geom=check guess=
 (read,tcheck) scf=(maxcycle=1)\\title\\0,1\C,0,0.272587,0.436301,-0.49
 3132\C,0,1.458203,-0.458749,-0.09054\O,0,2.579185,0.223737,0.12154\O,0
 ,1.398465,-1.653247,-0.005949\C,0,-1.086187,-0.087798,0.013207\H,0,0.2
 44913,0.397666,-1.586353\N,0,0.573657,1.816886,-0.123441\H,0,2.337353,
 1.170273,0.020348\C,0,-1.140502,-0.258333,1.51749\C,0,-1.553208,-1.318
 942,-0.731103\H,0,0.283117,2.018736,0.827506\H,0,0.082568,2.466194,-0.

 Normal termination of Gaussian 16 at Wed Apr  9 00:57:06 2025.
