 Gaussian 16, Revision C.01,

 ----------------------------------------------------------------------
 #t hf aug-cc-pvdz symm=none int=(grid=ultrafine) guess=(read,tcheck) s
 table=(opt,rrhf)
 ----------------------------------------------------------------------
 -----
 title
 -----
 Symbolic Z-matrix:
 Charge =  0 Multiplicity = 1

 SCF Done:  E(RHF) =  -864.111411637     A.U. after   15 cycles
 Normal termination of Gaussian 16 at Wed Apr  9 01:00:26 2025.
 Gaussian 16:  ES64L-G16RevC.01  3-Jul-2019

 ----------------------------------------------------------------------
 #t hf aug-cc-pvdz iop(5/13=1,5/36=2,99/5=2) pseudo=read geom=check gue
 ss=(read,tcheck) scf=(maxcycle=1)
 ----------------------------------------------------------------------
 -----
 title
 -----
 Structure from the checkpoint file:  "BH10_136_forward_mol2.chk"
 Charge =  0 Multiplicity = 1

                         Standard orientation:
 ---------------------------------------------------------------------
 Center     Atomic      Atomic             Coordinates (Angstroms)
 Number     Number       Type             X           Y           Z
 ---------------------------------------------------------------------
      1         17           0       -2.942743   -0.637394   -1.173169
      2          6           0       -2.109930    0.134928    0.326376
      3          6           0       -0.678016   -0.266898    0.301291
      4          6           0        0.345174    0.563255    0.044190
      5          7           0        1.660215    0.224422   -0.013951
      6          1           0        0.160622    1.613931   -0.150875
      7          1           0       -0.490788   -1.319531    0.478628
      8          6           0       -2.826432   -0.456694    1.532607
      9          6           0        2.145471   -1.119694    0.246189
     10          1           0        1.736463   -1.509889    1.184978
     11          6           0        3.668119   -0.956820    0.303935
     12          1           0        1.830155   -1.799082   -0.554942
     13          1           0        3.986093   -0.803851    1.338244
     14          6           0        3.932465    0.311905   -0.512960
     15          1           0        4.195081   -1.830674   -0.078753
     16          6           0        2.736095    1.191769   -0.164360
     17          1           0        3.921413    0.082867   -1.581423
     18          1           0        4.886345    0.783409   -0.275752
     19          1           0        2.498673    1.917430   -0.945604
     20          1           0        2.917152    1.744329    0.768675
     21          1           0       -2.680828   -1.536147    1.578728
     22          1           0       -3.896967   -0.252176    1.493402
     23          1           0       -2.413315   -0.013554    2.442520
     24          6           0       -2.367802    1.628369    0.215864
     25          1           0       -1.949059    2.042712   -0.700647
     26          1           0       -1.926627    2.142427    1.073576
     27          1           0       -3.440152    1.821808    0.211983
 ---------------------------------------------------------------------

 SCF Done:  E(RHF) =  -864.624242780     A.U. after    2 cycles

 The electronic state is 1-A.
 Alpha  occ. eigenvalues -- -105.52114 -15.50615 -11.30597 -11.27755 -11.27261
 Alpha  occ. eigenvalues --  -11.26656 -11.24092 -11.24066 -11.23090 -11.22787
 Alpha  occ. eigenvalues --  -11.21116 -10.56931  -7.73842  -7.73521  -7.73518
 Alpha  occ. eigenvalues --   -1.26890  -1.13396  -1.08781  -1.00864  -0.99482
 Alpha  occ. eigenvalues --   -0.96980  -0.94758  -0.87912  -0.82668  -0.79332
 Alpha  occ. eigenvalues --   -0.73961  -0.71734  -0.69342  -0.65491  -0.61776
 Alpha  occ. eigenvalues --   -0.61557  -0.60495  -0.59693  -0.57922  -0.57132
 Alpha  occ. eigenvalues --   -0.54919  -0.53782  -0.51870  -0.50814  -0.50560
 Alpha  occ. eigenvalues --   -0.49575  -0.48705  -0.48409  -0.45407  -0.42298
 Alpha  occ. eigenvalues --   -0.41808  -0.31056
 Alpha virt. eigenvalues --    0.03121   0.03504   0.03605   0.03972   0.04462
 Alpha virt. eigenvalues --    0.04638   0.05029   0.05522   0.06192   0.07073
 Alpha virt. eigenvalues --    0.07667   0.08320   0.08593   0.09910   0.10193

 Mulliken charges:
               1
     1  Cl  -0.216851
     2  C   -1.618144
     3  C    2.319317
     4  C   -2.586553
     5  N    1.609703
     6  H   -0.378308
     7  H   -0.335622
     8  C   -0.081775
     9  C    0.348602
    10  H    0.003115
    11  C   -0.552276
    12  H   -0.029878
    13  H    0.105436
    14  C   -0.235889
    15  H    0.161716
    16  C    0.028107
    17  H    0.066211
    18  H    0.146624
    19  H    0.024821
    20  H    0.018510
    21  H    0.184754
    22  H    0.136234
    23  H    0.256296
    24  C   -0.010608
    25  H    0.255961
    26  H    0.312536
    27  H    0.067958
 Sum of Mulliken charges =  -0.00000

 Dipole moment (field-independent basis, Debye):
    X=              3.8005    Y=              1.3986    Z=              1.9471  Tot=              4.4934

 Test job not archived.
 1\1\GINC-SE073\SP\RHF\Aug-CC-pVDZ\C9H16Cl1N1\OHZDE\09-Apr-2025\0\\#t h
 f aug-cc-pvdz iop(5/13=1,5/36=2,99/5=2) pseudo=read geom=check guess=(
 read,tcheck) scf=(maxcycle=1)\\title\\0,1\Cl,0,-2.942743,-0.637394,-1.
 173169\C,0,-2.10993,0.134928,0.326376\C,0,-0.678016,-0.266898,0.301291
 \C,0,0.345174,0.563255,0.04419\N,0,1.660215,0.224422,-0.013951\H,0,0.1
 60622,1.613931,-0.150875\H,0,-0.490788,-1.319531,0.478628\C,0,-2.82643
 2,-0.456694,1.532607\C,0,2.145471,-1.119694,0.246189\H,0,1.736463,-1.5
 09889,1.184978\C,0,3.668119,-0.95682,0.303935\H,0,1.830155,-1.799082,-

 Normal termination of Gaussian 16 at Wed Apr  9 01:00:48 2025.
