 Gaussian 16, Revision C.01,

 ----------------------------------------------------------------------
 #t hf aug-cc-pvdz symm=none int=(grid=ultrafine) guess=(read,tcheck) s
 table=(opt,rrhf)
 ----------------------------------------------------------------------
 -----
 title
 -----
 Symbolic Z-matrix:
 Charge =  0 Multiplicity = 1

 SCF Done:  E(RHF) =  -679.009341254     A.U. after   14 cycles
 Normal termination of Gaussian 16 at Wed Apr  9 01:19:59 2025.
 Gaussian 16:  ES64L-G16RevC.01  3-Jul-2019

 ----------------------------------------------------------------------
 #t hf aug-cc-pvdz iop(5/13=1,5/36=2,99/5=2) pseudo=read geom=check gue
 ss=(read,tcheck) scf=(maxcycle=1)
 ----------------------------------------------------------------------
 -----
 title
 -----
 Structure from the checkpoint file:  "BH10_282_reverse_mol2.chk"
 Charge =  0 Multiplicity = 1

                         Standard orientation:
 ---------------------------------------------------------------------
 Center     Atomic      Atomic             Coordinates (Angstroms)
 Number     Number       Type             X           Y           Z
 ---------------------------------------------------------------------
      1          6           0        1.312948   -0.681078   -0.801955
      2          6           0        2.531614    0.453038    1.187287
      3          6           0        2.587918   -1.493852   -1.105843
      4          1           0        2.452355   -2.493349   -0.676132
      5          1           0        2.682377   -1.645894   -2.186862
      6          1           0        2.524125    0.671858    2.260626
      7          1           0        0.452794   -1.262227   -1.145902
      8          6           0        3.791514   -0.380699    0.878725
      9          1           0        3.797177   -1.238454    1.561863
     10          1           0        4.690432    0.197742    1.120087
     11          5           0        1.237799   -0.285166    0.708441
     12          6           0       -1.309159   -0.715175    0.940032
     13          6           0       -2.334781    0.126352    0.841607
     14          1           0       -2.330331    1.103795    1.309559
     15          6           0       -0.027241   -0.431036    1.635545
     16          6           0       -3.537419   -0.244899    0.077431
     17          8           0       -3.717023   -1.283073   -0.510029
     18          8           0       -4.452224    0.743081    0.106542
     19          6           0       -5.662973    0.487397   -0.606464
     20          1           0       -6.273132    1.377882   -0.479589
     21          1           0       -5.454763    0.312216   -1.662057
     22          1           0       -6.169947   -0.386338   -0.196775
     23          6           0        2.462791    1.818599    0.445687
     24          1           0        1.619378    2.384340    0.859499
     25          1           0        3.358446    2.404551    0.678592
     26          6           0        1.235948    0.696876   -1.522456
     27          1           0        0.237417    1.113323   -1.344773
     28          1           0        1.307146    0.541500   -2.604179
     29          6           0        3.894586   -0.902039   -0.560594
     30          1           0        4.241797   -0.104815   -1.217039
     31          1           0        4.672845   -1.669786   -0.602004
     32          6           0        2.287585    1.724060   -1.077657
     33          1           0        2.000577    2.708193   -1.459592
     34          1           0        3.244445    1.498660   -1.546105
     35          1           0       -1.408569   -1.673409    0.436547
     36          1           0        0.232956   -1.276106    2.294110
     37          1           0       -0.112533    0.436816    2.297748
 ---------------------------------------------------------------------

 SCF Done:  E(RHF) =  -679.722139503     A.U. after    2 cycles

 The electronic state is 1-A.
 Alpha  occ. eigenvalues --  -20.58079 -20.51719 -11.37675 -11.28811 -11.26496
 Alpha  occ. eigenvalues --  -11.23459 -11.23273 -11.23066 -11.22723 -11.22623
 Alpha  occ. eigenvalues --  -11.22503 -11.22384 -11.22217 -11.20346 -11.20201
 Alpha  occ. eigenvalues --   -7.57316  -1.53606  -1.43790  -1.12612  -1.09806
 Alpha  occ. eigenvalues --   -1.04619  -1.03165  -1.00396  -0.95391  -0.92733
 Alpha  occ. eigenvalues --   -0.91737  -0.82358  -0.79971  -0.79117  -0.75923
 Alpha  occ. eigenvalues --   -0.75112  -0.71878  -0.68111  -0.67395  -0.66582
 Alpha  occ. eigenvalues --   -0.65551  -0.61556  -0.60985  -0.60308  -0.59225
 Alpha  occ. eigenvalues --   -0.58933  -0.57852  -0.57266  -0.56072  -0.55497
 Alpha  occ. eigenvalues --   -0.54903  -0.52705  -0.51937  -0.51220  -0.49509
 Alpha  occ. eigenvalues --   -0.49126  -0.48592  -0.48115  -0.46837  -0.44762
 Alpha  occ. eigenvalues --   -0.43427  -0.43166  -0.41747  -0.39632  -0.36893
 Alpha virt. eigenvalues --    0.02548   0.02673   0.03125   0.03491   0.04263
 Alpha virt. eigenvalues --    0.04781   0.05081   0.05170   0.05289   0.06142
 Alpha virt. eigenvalues --    0.06513   0.06886   0.07967   0.08324   0.08484

 Mulliken charges:
               1
     1  C   -0.232543
     2  C   -0.262895
     3  C   -0.232695
     4  H    0.119236
     5  H    0.102820
     6  H   -0.202130
     7  H   -0.123983
     8  C   -0.338175
     9  H    0.109656
    10  H    0.111409
    11  B    1.169851
    12  C    0.898160
    13  C    0.233226
    14  H   -0.357867
    15  C   -0.931855
    16  C    2.146283
    17  O   -1.423759
    18  O   -1.465025
    19  C    0.227925
    20  H   -0.017228
    21  H    0.183286
    22  H    0.177118
    23  C   -0.263505
    24  H    0.153822
    25  H    0.074009
    26  C   -0.267229
    27  H    0.126224
    28  H    0.040796
    29  C   -0.282960
    30  H    0.201846
    31  H    0.073433
    32  C   -0.379704
    33  H    0.069846
    34  H    0.206965
    35  H   -0.273522
    36  H    0.444713
    37  H    0.184448
 Sum of Mulliken charges =  -0.00000

 Dipole moment (field-independent basis, Debye):
    X=              1.5033    Y=              1.3097    Z=              0.8079  Tot=              2.1512

 Test job not archived.
 1\1\GINC-SE366\SP\RHF\Aug-CC-pVDZ\C13H21B1O2\OHZDE\09-Apr-2025\0\\#t h
 f aug-cc-pvdz iop(5/13=1,5/36=2,99/5=2) pseudo=read geom=check guess=(
 read,tcheck) scf=(maxcycle=1)\\title\\0,1\C,0,1.312948,-0.681078,-0.80
 1955\C,0,2.531614,0.453038,1.187287\C,0,2.587918,-1.493852,-1.105843\H
 ,0,2.452355,-2.493349,-0.676132\H,0,2.682377,-1.645894,-2.186862\H,0,2
 .524125,0.671858,2.260626\H,0,0.452794,-1.262227,-1.145902\C,0,3.79151
 4,-0.380699,0.878725\H,0,3.797177,-1.238454,1.561863\H,0,4.690432,0.19
 7742,1.120087\B,0,1.237799,-0.285166,0.708441\C,0,-1.309159,-0.715175,

 Normal termination of Gaussian 16 at Wed Apr  9 01:20:46 2025.
