 Gaussian 16, Revision C.01,

 ----------------------------------------------------------------------
 #t hf aug-cc-pvdz symm=none int=(grid=ultrafine) guess=(read,tcheck) s
 table=opt
 ----------------------------------------------------------------------
 -----
 title
 -----
 Symbolic Z-matrix:
 Charge =  0 Multiplicity = 2

 SCF Done:  E(UHF) =  -780.885723561     A.U. after   23 cycles
 Normal termination of Gaussian 16 at Wed Apr  9 00:59:09 2025.
 Gaussian 16:  ES64L-G16RevC.01  3-Jul-2019

 ----------------------------------------------------------------------
 #t hf aug-cc-pvdz iop(5/13=1,5/36=2,99/5=2) pseudo=read geom=check gue
 ss=(read,tcheck) scf=(maxcycle=1)
 ----------------------------------------------------------------------
 -----
 title
 -----
 Structure from the checkpoint file:  "BH10_158_forward_mol2.chk"
 Charge =  0 Multiplicity = 2

                         Standard orientation:
 ---------------------------------------------------------------------
 Center     Atomic      Atomic             Coordinates (Angstroms)
 Number     Number       Type             X           Y           Z
 ---------------------------------------------------------------------
      1          6           0        0.179417    1.279402   -0.493731
      2          1           0        0.401427    0.663040   -1.367983
      3          6           0        2.058703    0.093792    0.810005
      4          1           0        2.902500    0.271567    1.484325
      5          1           0       -0.116435    2.266777   -0.856255
      6          1           0        1.356090   -0.538695    1.356637
      7          6           0        1.414235    1.413751    0.393782
      8          1           0        1.153532    1.969293    1.302613
      9          1           0        2.156590    2.016674   -0.134563
     10          6           0       -1.022592    0.690822    0.200661
     11          6           0       -3.008340   -0.276436   -0.151444
     12          6           0       -2.041918   -1.380321    0.278576
     13          1           0       -3.582581    0.108107    0.700277
     14          1           0       -3.690932   -0.570359   -0.946250
     15          1           0       -2.365744   -1.898979    1.183102
     16          1           0       -1.871991   -2.110063   -0.516003
     17         16           0        2.696937   -0.917489   -0.537011
     18          8           0       -2.139174    0.724106   -0.649247
     19          8           0       -0.825128   -0.681337    0.527702
     20          1           0       -1.256075    1.234259    1.131546
 ---------------------------------------------------------------------

 SCF Done:  E(UHF) =  -781.338650986     A.U. after    2 cycles

 The electronic state is 2-A.
 Alpha  occ. eigenvalues --  -93.95399 -20.55843 -20.55174 -11.34023 -11.29589
 Alpha  occ. eigenvalues --  -11.29336 -11.26127 -11.23954 -11.23040  -8.23456
 Alpha  occ. eigenvalues --   -6.22635  -6.20873  -6.20571  -1.53072  -1.42796
 Alpha  occ. eigenvalues --   -1.11112  -1.05816  -1.00057  -0.91973  -0.86598
 Alpha  occ. eigenvalues --   -0.84158  -0.79239  -0.72604  -0.69808  -0.65427
 Alpha  occ. eigenvalues --   -0.64694  -0.62445  -0.61331  -0.58647  -0.57855
 Alpha  occ. eigenvalues --   -0.53156  -0.51710  -0.51112  -0.50154  -0.49955
 Alpha  occ. eigenvalues --   -0.46630  -0.44302  -0.42325  -0.41734  -0.36709
 Alpha virt. eigenvalues --    0.03306   0.03526   0.03990   0.04266   0.05290
 Alpha virt. eigenvalues --    0.05633   0.06385   0.06637   0.07921   0.08591
 Alpha virt. eigenvalues --    0.09047   0.09292   0.11048   0.12785   0.13793

  Beta  occ. eigenvalues --  -93.94505 -20.55843 -20.55170 -11.34023 -11.29589
  Beta  occ. eigenvalues --  -11.29336 -11.26253 -11.23953 -11.23037  -8.22430
  Beta  occ. eigenvalues --   -6.20349  -6.20031  -6.18669  -1.53069  -1.42790
  Beta  occ. eigenvalues --   -1.10355  -1.04524  -0.98259  -0.89275  -0.86583
  Beta  occ. eigenvalues --   -0.82860  -0.77283  -0.72592  -0.69665  -0.65294
  Beta  occ. eigenvalues --   -0.64350  -0.61723  -0.61201  -0.58345  -0.57366
  Beta  occ. eigenvalues --   -0.52745  -0.51590  -0.51069  -0.49904  -0.49256
  Beta  occ. eigenvalues --   -0.45647  -0.44262  -0.41981  -0.34527
  Beta virt. eigenvalues --    0.01897   0.03307   0.03682   0.04003   0.04302
  Beta virt. eigenvalues --    0.05311   0.05872   0.06421   0.06651   0.07940
  Beta virt. eigenvalues --    0.08634   0.09251   0.09466   0.11094   0.12796

 Mulliken charges and spin densities:
               1          2
     1  C   -0.327014   0.004745
     2  H    0.247014  -0.007125
     3  C   -0.581178  -0.121666
     4  H    0.177546   0.020943
     5  H    0.185816  -0.001374
     6  H    0.266452   0.016529
     7  C   -0.343480  -0.010343
     8  H    0.176149   0.002918
     9  H    0.139117  -0.001207
    10  C    1.915873  -0.006442
    11  C    0.187183  -0.001238
    12  C    0.456075   0.001928
    13  H    0.111169   0.000138
    14  H    0.029269  -0.000177
    15  H    0.065970   0.000013
    16  H    0.056230  -0.000013
    17  S    0.197306   1.104950
    18  O   -1.503467   0.000054
    19  O   -1.500468  -0.001603
    20  H    0.044438  -0.001031
 Sum of Mulliken charges =  -0.00000   1.00000

 Dipole moment (field-independent basis, Debye):
    X=             -2.0839    Y=              0.6154    Z=              1.7125  Tot=              2.7666
                          Isotropic Fermi Contact Couplings
        Atom                 a.u.       MegaHertz       Gauss      10(-4) cm-1
     1  C(13)             -0.00045      -0.50284      -0.17943      -0.16773
     2  H(1)               0.00017       0.73864       0.26356       0.24638
     3  C(13)             -0.02574     -28.93363     -10.32424      -9.65122
     4  H(1)               0.01257      56.19961      20.05342      18.74617
     5  H(1)              -0.00003      -0.14327      -0.05112      -0.04779
     6  H(1)               0.01153      51.55279      18.39532      17.19616
     7  C(13)             -0.00058      -0.65126      -0.23239      -0.21724
     8  H(1)              -0.00059      -2.65164      -0.94617      -0.88449

 Normal termination of Gaussian 16 at Wed Apr  9 00:59:20 2025.
