 Gaussian 16, Revision C.01,

 ----------------------------------------------------------------------
 #t hf aug-cc-pvdz symm=none int=(grid=ultrafine) guess=(read,tcheck) s
 table=(opt,rrhf)
 ----------------------------------------------------------------------
 -----
 title
 -----
 Symbolic Z-matrix:
 Charge =  0 Multiplicity = 1

 SCF Done:  E(RHF) =  -753.639988825     A.U. after   15 cycles
 Normal termination of Gaussian 16 at Wed Apr  9 02:23:20 2025.
 Gaussian 16:  ES64L-G16RevC.01  3-Jul-2019

 ----------------------------------------------------------------------
 #t hf aug-cc-pvdz iop(5/13=1,5/36=2,99/5=2) pseudo=read geom=check gue
 ss=(read,tcheck) scf=(maxcycle=1)
 ----------------------------------------------------------------------
 -----
 title
 -----
 Structure from the checkpoint file:  "BH10_94_forward_mol2.chk"
 Charge =  0 Multiplicity = 1

                         Standard orientation:
 ---------------------------------------------------------------------
 Center     Atomic      Atomic             Coordinates (Angstroms)
 Number     Number       Type             X           Y           Z
 ---------------------------------------------------------------------
      1          6           0       -0.734046    4.610883   -0.847598
      2          8           0        0.020673    3.430769   -0.629617
      3          1           0       -1.628817    4.400474   -1.437397
      4          6           0        1.634834    1.059397   -0.159683
      5          6           0        0.366684    1.113763    0.259007
      6          6           0        2.558216   -0.077133   -0.037782
      7          6           0        2.131459   -1.363036    0.305723
      8          6           0        3.917855    0.125146   -0.279184
      9          6           0        3.037676   -2.402897    0.420221
     10          6           0        4.828857   -0.914313   -0.161017
     11          6           0       -2.480216    1.489052    1.219099
     12          6           0        4.391568   -2.182624    0.191240
     13          6           0       -2.969697    0.395987    0.326251
     14          6           0       -2.733909   -0.897647    0.534871
     15          6           0       -3.211250   -1.975255   -0.317337
     16          6           0       -2.954002   -3.263926   -0.098759
     17          6           0       -3.419818   -4.391432   -0.960225
     18          8           0       -1.799055    2.506306    0.491076
     19          5           0       -0.513019    2.374643    0.043597
     20          1           0        1.077644   -1.553616    0.466808
     21          1           0        4.261401    1.115196   -0.557625
     22          1           0        2.688086   -3.394433    0.682538
     23          1           0        5.880721   -0.733870   -0.347484
     24          1           0       -1.839180    1.083589    2.007286
     25          1           0       -3.321733    1.990642    1.703187
     26          1           0        5.098605   -2.998516    0.280368
     27          1           0       -2.572320   -4.961397   -1.352298
     28          1           0       -4.008052   -4.031032   -1.805667
     29          1           0       -4.035247   -5.093368   -0.389797
     30          1           0       -0.098045    5.308707   -1.390973
     31          1           0       -1.041988    5.060370    0.098856
     32          1           0       -2.358303   -3.532818    0.771782
     33          1           0       -3.805687   -1.687981   -1.181924
     34          1           0       -3.551367    0.712242   -0.536174
     35          1           0       -2.139135   -1.193388    1.397707
     36          1           0        2.050655    1.943018   -0.637616
     37          1           0       -0.050357    0.240562    0.749808
 ---------------------------------------------------------------------

 SCF Done:  E(RHF) =  -754.419626555     A.U. after    2 cycles

 The electronic state is 1-A.
 Alpha  occ. eigenvalues --  -20.53904 -20.52864 -11.29492 -11.27450 -11.24656
 Alpha  occ. eigenvalues --  -11.24654 -11.24625 -11.24550 -11.24275 -11.24192
 Alpha  occ. eigenvalues --  -11.24140 -11.24082 -11.24045 -11.23925 -11.23920
 Alpha  occ. eigenvalues --  -11.23702 -11.20289  -7.62047  -1.47464  -1.43334
 Alpha  occ. eigenvalues --   -1.16330  -1.11231  -1.07120  -1.05634  -1.01961
 Alpha  occ. eigenvalues --   -0.99316  -0.97255  -0.92981  -0.90694  -0.85698
 Alpha  occ. eigenvalues --   -0.83519  -0.78904  -0.77741  -0.76742  -0.72224
 Alpha  occ. eigenvalues --   -0.71267  -0.68460  -0.67344  -0.65564  -0.65023
 Alpha  occ. eigenvalues --   -0.63993  -0.63418  -0.62475  -0.61000  -0.59909
 Alpha  occ. eigenvalues --   -0.59368  -0.58621  -0.57925  -0.56783  -0.55052
 Alpha  occ. eigenvalues --   -0.53343  -0.52690  -0.52161  -0.51347  -0.50561
 Alpha  occ. eigenvalues --   -0.49814  -0.48279  -0.47829  -0.45554  -0.44587
 Alpha  occ. eigenvalues --   -0.43629  -0.40955  -0.34791  -0.32447  -0.31258
 Alpha virt. eigenvalues --    0.02689   0.03101   0.03337   0.03615   0.04041
 Alpha virt. eigenvalues --    0.04311   0.04932   0.05097   0.05523   0.06150
 Alpha virt. eigenvalues --    0.06400   0.06925   0.06978   0.07641   0.07931

 Mulliken charges:
               1
     1  C    0.444179
     2  O   -1.750793
     3  H    0.149729
     4  C   -0.202714
     5  C    0.587796
     6  C    1.230407
     7  C    0.483684
     8  C    0.015676
     9  C    0.012199
    10  C    0.075953
    11  C    0.221311
    12  C   -0.035025
    13  C    0.199846
    14  C    0.885308
    15  C    0.842866
    16  C   -0.165610
    17  C   -0.827191
    18  O   -1.371298
    19  B    1.642119
    20  H   -0.292718
    21  H   -0.325297
    22  H   -0.274846
    23  H   -0.241044
    24  H    0.040327
    25  H   -0.004229
    26  H   -0.232347
    27  H    0.258747
    28  H    0.088848
    29  H    0.259044
    30  H   -0.063555
    31  H    0.148128
    32  H   -0.225433
    33  H   -0.237622
    34  H   -0.264314
    35  H   -0.265553
    36  H   -0.442619
    37  H   -0.363958
 Sum of Mulliken charges =  -0.00000

 Dipole moment (field-independent basis, Debye):
    X=             -0.7377    Y=             -1.4935    Z=              0.3205  Tot=              1.6963

 Test job not archived.
 1\1\GINC-SE334\SP\RHF\Aug-CC-pVDZ\C15H19B1O2\OHZDE\09-Apr-2025\0\\#t h
 f aug-cc-pvdz iop(5/13=1,5/36=2,99/5=2) pseudo=read geom=check guess=(
 read,tcheck) scf=(maxcycle=1)\\title\\0,1\C,0,-0.734047,4.610883,-0.84
 7598\O,0,0.020673,3.430769,-0.629617\H,0,-1.628818,4.400474,-1.437397\
 C,0,1.634834,1.059397,-0.159683\C,0,0.366684,1.113763,0.259007\C,0,2.5
 58216,-0.077133,-0.037782\C,0,2.131459,-1.363036,0.305723\C,0,3.917855
 ,0.125146,-0.279184\C,0,3.037676,-2.402897,0.420221\C,0,4.828857,-0.91
 4312,-0.161017\C,0,-2.480216,1.489052,1.219099\C,0,4.391568,-2.182623,

 Normal termination of Gaussian 16 at Wed Apr  9 02:24:14 2025.
