 Gaussian 16, Revision C.01,

 ----------------------------------------------------------------------
 #t hf aug-cc-pvdz symm=none int=(grid=ultrafine) guess=(read,tcheck) s
 table=(opt,rrhf)
 ----------------------------------------------------------------------
 -----
 title
 -----
 Symbolic Z-matrix:
 Charge =  0 Multiplicity = 1

 SCF Done:  E(RHF) =  -1081.86081087     A.U. after   15 cycles
 Normal termination of Gaussian 16 at Wed Apr  9 02:09:47 2025.
 Gaussian 16:  ES64L-G16RevC.01  3-Jul-2019

 ----------------------------------------------------------------------
 #t hf aug-cc-pvdz iop(5/13=1,5/36=2,99/5=2) pseudo=read geom=check gue
 ss=(read,tcheck) scf=(maxcycle=1)
 ----------------------------------------------------------------------
 -----
 title
 -----
 Structure from the checkpoint file:  "BH10_88_forward_mol2.chk"
 Charge =  0 Multiplicity = 1

                         Standard orientation:
 ---------------------------------------------------------------------
 Center     Atomic      Atomic             Coordinates (Angstroms)
 Number     Number       Type             X           Y           Z
 ---------------------------------------------------------------------
      1          6           0        0.328236    0.031571   -0.684939
      2          6           0        0.204217    1.317206    0.079176
      3          6           0       -0.652414   -0.860385   -0.763571
      4          6           0       -1.948867   -0.656596   -0.083147
      5          8           0       -2.776958   -1.679638   -0.321638
      6          8           0       -2.238327    0.292913    0.599845
      7          8           0        0.687654    1.475449    1.174116
      8          8           0       -0.406519    2.259253   -0.614997
      9          6           0       -0.613594    3.504239    0.068240
     10          6           0       -4.063263   -1.596579    0.301328
     11         16           0        1.927449   -0.221347   -1.429420
     12          6           0        2.620581   -1.553613   -0.380608
     13          6           0        3.006648   -1.140877    1.033076
     14          8           0        1.903045   -0.981061    1.887698
     15          1           0       -1.094591    4.155098   -0.655855
     16          1           0        0.339147    3.919839    0.393326
     17          1           0       -1.258291    3.339888    0.930731
     18          1           0       -3.954534   -1.539296    1.383988
     19          1           0       -4.586288   -2.504354    0.014272
     20          1           0       -4.597910   -0.715337   -0.052326
     21          1           0        3.508163   -1.870881   -0.933398
     22          1           0        1.918411   -2.386831   -0.354745
     23          1           0        3.626222   -0.237647    0.999186
     24          1           0        3.615762   -1.945961    1.455200
     25          1           0        1.525629   -0.093355    1.783256
     26          1           0       -0.521318   -1.784741   -1.310440
 ---------------------------------------------------------------------

 SCF Done:  E(RHF) =  -1082.60335595     A.U. after    2 cycles

 The electronic state is 1-A.
 Alpha  occ. eigenvalues --  -93.96836 -20.60304 -20.60242 -20.54808 -20.54366
 Alpha  occ. eigenvalues --  -20.52607 -11.41116 -11.40275 -11.31457 -11.30329
 Alpha  occ. eigenvalues --  -11.30000 -11.28615 -11.27907 -11.27724  -8.24930
 Alpha  occ. eigenvalues --   -6.22763  -6.22579  -6.22373  -1.56652  -1.56006
 Alpha  occ. eigenvalues --   -1.47023  -1.46443  -1.43355  -1.15419  -1.07580
 Alpha  occ. eigenvalues --   -1.01938  -0.98773  -0.95925  -0.88645  -0.82934
 Alpha  occ. eigenvalues --   -0.81707  -0.77879  -0.75138  -0.71101  -0.70813
 Alpha  occ. eigenvalues --   -0.69028  -0.68882  -0.68396  -0.64951  -0.64734
 Alpha  occ. eigenvalues --   -0.62834  -0.60828  -0.59098  -0.58276  -0.57420
 Alpha  occ. eigenvalues --   -0.56517  -0.54425  -0.54084  -0.52927  -0.51317
 Alpha  occ. eigenvalues --   -0.48476  -0.47308  -0.46149  -0.45919  -0.45034
 Alpha  occ. eigenvalues --   -0.43880  -0.41280  -0.36514
 Alpha virt. eigenvalues --    0.03308   0.03482   0.03751   0.04509   0.04977
 Alpha virt. eigenvalues --    0.05031   0.05563   0.05994   0.06414   0.06803
 Alpha virt. eigenvalues --    0.07506   0.08184   0.09197   0.09574   0.10139

 Mulliken charges:
               1
     1  C    0.557946
     2  C    1.659049
     3  C    0.294320
     4  C    1.994516
     5  O   -1.487657
     6  O   -1.304407
     7  O   -1.350132
     8  O   -1.445568
     9  C    0.089369
    10  C    0.176511
    11  S    0.361287
    12  C   -0.497336
    13  C    0.624433
    14  O   -1.260483
    15  H    0.010604
    16  H    0.187413
    17  H    0.190121
    18  H    0.183709
    19  H   -0.010394
    20  H    0.178998
    21  H    0.172339
    22  H    0.141470
    23  H    0.189323
    24  H    0.020400
    25  H    0.589120
    26  H   -0.264949
 Sum of Mulliken charges =  -0.00000

 Dipole moment (field-independent basis, Debye):
    X=             -1.2335    Y=             -0.5703    Z=             -1.9800  Tot=              2.4015

 Test job not archived.
 1\1\GINC-SE292\SP\RHF\Aug-CC-pVDZ\C8H12O5S1\OHZDE\09-Apr-2025\0\\#t hf
  aug-cc-pvdz iop(5/13=1,5/36=2,99/5=2) pseudo=read geom=check guess=(r
 ead,tcheck) scf=(maxcycle=1)\\title\\0,1\C,0,0.328236,0.031571,-0.6849
 39\C,0,0.204217,1.317206,0.079176\C,0,-0.652414,-0.860385,-0.763571\C,
 0,-1.948867,-0.656596,-0.083147\O,0,-2.776958,-1.679638,-0.321638\O,0,
 -2.238327,0.292913,0.599845\O,0,0.687654,1.475449,1.174116\O,0,-0.4065
 19,2.259253,-0.614997\C,0,-0.613594,3.504239,0.06824\C,0,-4.063263,-1.
 596579,0.301328\S,0,1.927449,-0.221347,-1.42942\C,0,2.620581,-1.553613

 Normal termination of Gaussian 16 at Wed Apr  9 02:10:13 2025.
