 Gaussian 16, Revision C.01,

 ----------------------------------------------------------------------
 #t hf aug-cc-pvdz symm=none int=(grid=ultrafine) guess=(read,tcheck) s
 table=opt
 ----------------------------------------------------------------------
 -----
 title
 -----
 Symbolic Z-matrix:
 Charge =  0 Multiplicity = 2

 SCF Done:  E(UHF) =  -1426.20369263     A.U. after   22 cycles

 1\1\GINC-SE461\Stability\UHF\Aug-CC-pVDZ\C6H11S3\OHZDE\09-Apr-2025\0\\
 #t hf aug-cc-pvdz symm=none int=(grid=ultrafine) guess=(read,tcheck) s
 table=opt\\title\\0,2\C,0,0.395303,1.855468,0.619333\H,0,0.00017,2.861
 36,0.451814\C,0,2.446586,0.473977,-0.168162\H,0,3.309131,0.605312,-0.8
 28322\H,0,0.917218,1.896365,1.58256\H,0,2.816512,0.594008,0.852639\C,0
 ,1.401957,1.543875,-0.489656\H,0,1.945262,2.472784,-0.688187\H,0,0.877
 53,1.294153,-1.414968\C,0,-0.827275,0.949479,0.783674\C,0,-1.506426,-0
 .854884,-1.149339\C,0,-1.413316,-1.664672,0.128996\H,0,-2.315583,-1.21

 Normal termination of Gaussian 16 at Wed Apr  9 00:59:59 2025.
 Gaussian 16:  ES64L-G16RevC.01  3-Jul-2019

 ----------------------------------------------------------------------
 #t hf aug-cc-pvdz iop(5/13=1,5/36=2,99/5=2) pseudo=read geom=check gue
 ss=(read,tcheck) scf=(maxcycle=1)
 ----------------------------------------------------------------------
 -----
 title
 -----
 Structure from the checkpoint file:  "BH10_159_forward_mol2.chk"
 Charge =  0 Multiplicity = 2

                         Standard orientation:
 ---------------------------------------------------------------------
 Center     Atomic      Atomic             Coordinates (Angstroms)
 Number     Number       Type             X           Y           Z
 ---------------------------------------------------------------------
      1          6           0        0.395303    1.855468    0.619333
      2          1           0        0.000171    2.861360    0.451814
      3          6           0        2.446586    0.473977   -0.168162
      4          1           0        3.309131    0.605311   -0.828322
      5          1           0        0.917219    1.896365    1.582560
      6          1           0        2.816512    0.594007    0.852639
      7          6           0        1.401957    1.543875   -0.489656
      8          1           0        1.945263    2.472784   -0.688187
      9          1           0        0.877530    1.294153   -1.414968
     10          6           0       -0.827275    0.949479    0.783674
     11          6           0       -1.506426   -0.854884   -1.149339
     12          6           0       -1.413316   -1.664672    0.128996
     13          1           0       -2.315583   -1.214492   -1.785894
     14          1           0       -0.566582   -0.892910   -1.696079
     15          1           0       -2.396681   -1.832390    0.566339
     16          1           0       -0.922723   -2.624138   -0.041609
     17         16           0       -1.911457    0.856030   -0.690396
     18         16           0       -0.377446   -0.751122    1.312576
     19         16           0        1.964230   -1.251708   -0.429645
     20          1           0       -1.450481    1.369299    1.572081
 ---------------------------------------------------------------------

 SCF Done:  E(UHF) =  -1426.63054373     A.U. after    2 cycles

 The electronic state is 2-A.
 Alpha  occ. eigenvalues --  -93.95493 -93.94877 -93.94467 -11.30405 -11.27913
 Alpha  occ. eigenvalues --  -11.27488 -11.26574 -11.24902 -11.24068  -8.23643
 Alpha  occ. eigenvalues --   -8.23005  -8.22531  -6.21674  -6.21406  -6.21333
 Alpha  occ. eigenvalues --   -6.21191  -6.20818  -6.20677  -6.20450  -6.19948
 Alpha  occ. eigenvalues --   -6.19654  -1.16601  -1.10092  -1.05222  -1.01670
 Alpha  occ. eigenvalues --   -0.98083  -0.89925  -0.82388  -0.81691  -0.76058
 Alpha  occ. eigenvalues --   -0.67055  -0.65347  -0.63480  -0.63334  -0.59803
 Alpha  occ. eigenvalues --   -0.57286  -0.56006  -0.53334  -0.52817  -0.49828
 Alpha  occ. eigenvalues --   -0.48692  -0.47901  -0.46214  -0.43756  -0.42321
 Alpha  occ. eigenvalues --   -0.36239  -0.35550  -0.33394
 Alpha virt. eigenvalues --    0.03164   0.03528   0.03797   0.04467   0.05296
 Alpha virt. eigenvalues --    0.05434   0.05788   0.07134   0.07245   0.08651
 Alpha virt. eigenvalues --    0.09115   0.09971   0.10619   0.10931   0.11849

  Beta  occ. eigenvalues --  -93.95339 -93.94877 -93.93557 -11.30429 -11.27941
  Beta  occ. eigenvalues --  -11.27488 -11.26701 -11.24890 -11.24038  -8.23448
  Beta  occ. eigenvalues --   -8.23004  -8.21478  -6.21287  -6.21141  -6.20817
  Beta  occ. eigenvalues --   -6.20746  -6.20677  -6.20449  -6.19400  -6.19086
  Beta  occ. eigenvalues --   -6.17725  -1.16379  -1.09415  -1.03749  -1.01230
  Beta  occ. eigenvalues --   -0.96071  -0.87366  -0.81739  -0.79797  -0.75640
  Beta  occ. eigenvalues --   -0.66764  -0.65077  -0.63289  -0.62694  -0.59567
  Beta  occ. eigenvalues --   -0.56736  -0.55678  -0.52716  -0.52388  -0.49252
  Beta  occ. eigenvalues --   -0.48615  -0.47743  -0.45290  -0.42580  -0.36438
  Beta  occ. eigenvalues --   -0.35289  -0.33738
  Beta virt. eigenvalues --    0.03114   0.03207   0.03742   0.04019   0.04484
  Beta virt. eigenvalues --    0.05336   0.05522   0.06081   0.07194   0.07272
  Beta virt. eigenvalues --    0.08813   0.09165   0.10030   0.10634   0.11265

 Mulliken charges and spin densities:
               1          2
     1  C   -0.394522   0.012152
     2  H    0.148685   0.000418
     3  C   -0.786336  -0.132599
     4  H    0.231719   0.012638
     5  H    0.142456  -0.000877
     6  H    0.209942   0.002186
     7  C   -0.204080   0.014838
     8  H    0.131536   0.000702
     9  H    0.199543  -0.009513
    10  C   -0.309298  -0.008239
    11  C   -0.601818  -0.002981
    12  C   -0.517240  -0.013513
    13  H    0.180281  -0.000638
    14  H    0.151357  -0.010670
    15  H    0.134703  -0.004563
    16  H    0.207485   0.006229
    17  S    0.379922  -0.000066
    18  S    0.306997   0.078177
    19  S    0.233703   1.061599
    20  H    0.154966  -0.005281
 Sum of Mulliken charges =  -0.00000   1.00000

 Dipole moment (field-independent basis, Debye):
    X=             -0.2897    Y=              0.9838    Z=             -0.1813  Tot=              1.0414
                          Isotropic Fermi Contact Couplings
        Atom                 a.u.       MegaHertz       Gauss      10(-4) cm-1
     1  C(13)              0.00425       4.77310       1.70316       1.59214
     2  H(1)               0.00016       0.71498       0.25512       0.23849
     3  C(13)             -0.02430     -27.31833      -9.74786      -9.11241
     4  H(1)               0.01259      56.27349      20.07978      18.77082
     5  H(1)               0.00009       0.40967       0.14618       0.13665
     6  H(1)               0.00282      12.60853       4.49904       4.20575
     7  C(13)              0.00599       6.73369       2.40275       2.24612
     8  H(1)              -0.00059      -2.65697      -0.94807      -0.88627

 Normal termination of Gaussian 16 at Wed Apr  9 01:00:12 2025.
