 Gaussian 16, Revision C.01,

 ----------------------------------------------------------------------
 #t hf aug-cc-pvdz symm=none int=(grid=ultrafine) guess=(read,tcheck) s
 table=(opt,rrhf)
 ----------------------------------------------------------------------
 -----
 title
 -----
 Symbolic Z-matrix:
 Charge =  0 Multiplicity = 1

 SCF Done:  E(RHF) =  -1025.00774689     A.U. after   16 cycles
 Normal termination of Gaussian 16 at Wed Apr  9 01:47:58 2025.
 Gaussian 16:  ES64L-G16RevC.01  3-Jul-2019

 ----------------------------------------------------------------------
 #t hf aug-cc-pvdz iop(5/13=1,5/36=2,99/5=2) pseudo=read geom=check gue
 ss=(read,tcheck) scf=(maxcycle=1)
 ----------------------------------------------------------------------
 -----
 title
 -----
 Structure from the checkpoint file:  "BH10_345_reverse_mol2.chk"
 Charge =  0 Multiplicity = 1

                         Standard orientation:
 ---------------------------------------------------------------------
 Center     Atomic      Atomic             Coordinates (Angstroms)
 Number     Number       Type             X           Y           Z
 ---------------------------------------------------------------------
      1          7           0       -0.639524    0.925629    0.173344
      2          6           0       -1.998350    0.641576   -0.038168
      3          6           0       -2.236238   -0.684882   -0.114106
      4         16           0       -0.762178   -1.582332    0.096992
      5          6           0        0.135332   -0.147299    0.268000
      6          6           0       -2.979810    1.757142   -0.162538
      7          1           0       -2.921658    2.438719    0.687852
      8          1           0       -3.991179    1.359876   -0.203360
      9          1           0       -2.814459    2.337965   -1.072766
     10          6           0       -3.523643   -1.402910   -0.354770
     11          1           0       -4.367559   -0.715806   -0.327423
     12          1           0       -3.693877   -2.170250    0.402566
     13          1           0       -3.522239   -1.892347   -1.331067
     14          6           0       -0.153876    2.311987    0.268036
     15          1           0       -0.293605    2.679568    1.284931
     16          1           0       -0.725161    2.922825   -0.424956
     17          1           0        0.888571    2.324813   -0.047905
     18          6           0        1.608626   -0.278984    0.486439
     19          6           0        2.116637    0.464962    1.717934
     20          1           0        2.008545    1.542966    1.625900
     21          1           0        3.177264    0.238748    1.823963
     22          1           0        1.600176    0.114839    2.614370
     23          8           0        1.844734   -1.656137    0.625396
     24          6           0        2.380664    0.211051   -0.844587
     25          8           0        2.257760    1.406102   -1.124684
     26          8           0        2.995668   -0.718745   -1.377411
     27          1           0        2.445363   -1.829632   -0.141235
 ---------------------------------------------------------------------

 SCF Done:  E(RHF) =  -1025.70347340     A.U. after    2 cycles

 The electronic state is 1-A.
 Alpha  occ. eigenvalues --  -94.03017 -20.53679 -20.46906 -20.46298 -15.62950
 Alpha  occ. eigenvalues --  -11.38368 -11.33223 -11.32981 -11.31306 -11.31172
 Alpha  occ. eigenvalues --  -11.29781 -11.28725 -11.28355 -11.23799  -8.31182
 Alpha  occ. eigenvalues --   -6.28912  -6.28788  -6.28593  -1.47200  -1.43063
 Alpha  occ. eigenvalues --   -1.38233  -1.36096  -1.18202  -1.13375  -1.05060
 Alpha  occ. eigenvalues --   -1.04135  -1.01002  -0.97062  -0.89451  -0.86586
 Alpha  occ. eigenvalues --   -0.79937  -0.76001  -0.72250  -0.71083  -0.68426
 Alpha  occ. eigenvalues --   -0.66722  -0.64859  -0.63555  -0.62980  -0.62095
 Alpha  occ. eigenvalues --   -0.61455  -0.60645  -0.59497  -0.58961  -0.58356
 Alpha  occ. eigenvalues --   -0.56817  -0.56263  -0.54590  -0.53917  -0.52955
 Alpha  occ. eigenvalues --   -0.52030  -0.45806  -0.45259  -0.40302  -0.38438
 Alpha  occ. eigenvalues --   -0.37155  -0.35530
 Alpha virt. eigenvalues --    0.01327   0.02007   0.02777   0.03306   0.03830
 Alpha virt. eigenvalues --    0.04441   0.05097   0.05421   0.06091   0.07298
 Alpha virt. eigenvalues --    0.07408   0.07660   0.08253   0.09919   0.10325

 Mulliken charges:
               1
     1  N    1.420463
     2  C   -0.279247
     3  C   -0.314762
     4  S    0.695448
     5  C   -1.769660
     6  C   -0.658133
     7  H    0.363910
     8  H    0.052182
     9  H    0.363636
    10  C   -0.582891
    11  H    0.136573
    12  H    0.273495
    13  H    0.336125
    14  C   -0.169092
    15  H    0.198588
    16  H    0.002172
    17  H    0.223121
    18  C    1.131129
    19  C   -0.013092
    20  H    0.169346
    21  H    0.164939
    22  H    0.181886
    23  O   -1.647308
    24  C    2.145383
    25  O   -1.402319
    26  O   -1.384260
    27  H    0.362369
 Sum of Mulliken charges =   0.00000

 Dipole moment (field-independent basis, Debye):
    X=            -11.2175    Y=              1.4116    Z=              4.0200  Tot=             11.9994

 Test job not archived.
 1\1\GINC-SE105\SP\RHF\Aug-CC-pVDZ\C9H13N1O3S1\OHZDE\09-Apr-2025\0\\#t
 hf aug-cc-pvdz iop(5/13=1,5/36=2,99/5=2) pseudo=read geom=check guess=
 (read,tcheck) scf=(maxcycle=1)\\title\\0,1\N,0,-0.639524,0.925629,0.17
 3344\C,0,-1.99835,0.641576,-0.038168\C,0,-2.236238,-0.684882,-0.114106
 \S,0,-0.762178,-1.582332,0.096992\C,0,0.135332,-0.147299,0.268\C,0,-2.
 97981,1.757142,-0.162538\H,0,-2.921658,2.438719,0.687852\H,0,-3.991179
 ,1.359876,-0.20336\H,0,-2.814459,2.337965,-1.072766\C,0,-3.523643,-1.4
 0291,-0.35477\H,0,-4.367559,-0.715806,-0.327423\H,0,-3.693877,-2.17025

 Normal termination of Gaussian 16 at Wed Apr  9 01:48:29 2025.
