 Gaussian 16, Revision C.01,

 ----------------------------------------------------------------------
 #t hf aug-cc-pvdz symm=none int=(grid=ultrafine) guess=(read,tcheck) s
 table=(opt,rrhf)
 ----------------------------------------------------------------------
 -----
 title
 -----
 Symbolic Z-matrix:
 Charge =  0 Multiplicity = 1

 SCF Done:  E(RHF) =  -785.486370655     A.U. after   13 cycles
 Normal termination of Gaussian 16 at Wed Apr  9 01:00:23 2025.
 Gaussian 16:  ES64L-G16RevC.01  3-Jul-2019

 ----------------------------------------------------------------------
 #t hf aug-cc-pvdz iop(5/13=1,5/36=2,99/5=2) pseudo=read geom=check gue
 ss=(read,tcheck) scf=(maxcycle=1)
 ----------------------------------------------------------------------
 -----
 title
 -----
 Structure from the checkpoint file:  "BH10-RE_369_mol2.chk"
 Charge =  0 Multiplicity = 1

                         Standard orientation:
 ---------------------------------------------------------------------
 Center     Atomic      Atomic             Coordinates (Angstroms)
 Number     Number       Type             X           Y           Z
 ---------------------------------------------------------------------
      1          6           0        0.600016   -1.151146    0.209992
      2          6           0       -0.600016   -1.151146    0.209992
      3          6           0        1.876398   -0.436612    0.047299
      4          6           0       -1.876398   -0.436612    0.047299
      5          6           0        1.447911    0.844237   -0.725539
      6          1           0        2.264746    1.570334   -0.718432
      7          1           0        1.241533    0.586130   -1.765942
      8          6           0       -1.447911    0.844237   -0.725539
      9          1           0       -2.264746    1.570334   -0.718432
     10         16           0       -0.000000    1.770465   -0.085694
     11          6           0       -2.897858   -1.207793   -0.791594
     12          1           0       -3.213233   -2.113727   -0.270956
     13          1           0       -3.783319   -0.593115   -0.972546
     14          1           0       -2.475675   -1.499243   -1.754904
     15          6           0       -2.468910   -0.075001    1.412371
     16          1           0       -3.389650    0.499848    1.282018
     17          1           0       -2.704459   -0.977080    1.979124
     18          1           0       -1.763555    0.521033    1.992018
     19          6           0        2.897858   -1.207794   -0.791594
     20          1           0        3.783318   -0.593116   -0.972546
     21          1           0        3.213233   -2.113727   -0.270956
     22          1           0        2.475675   -1.499243   -1.754904
     23          6           0        2.468911   -0.075001    1.412371
     24          1           0        2.704459   -0.977080    1.979124
     25          1           0        3.389650    0.499847    1.282017
     26          1           0        1.763556    0.521033    1.992018
     27          1           0       -1.241533    0.586130   -1.765942
 ---------------------------------------------------------------------

 SCF Done:  E(RHF) =  -785.964825370     A.U. after    2 cycles

 The electronic state is 1-A.
 Alpha  occ. eigenvalues --  -93.93741 -11.27233 -11.27211 -11.26950 -11.26929
 Alpha  occ. eigenvalues --  -11.23304 -11.23294 -11.22719 -11.22706 -11.22009
 Alpha  occ. eigenvalues --  -11.21658  -8.21772  -6.19599  -6.19437  -6.19242
 Alpha  occ. eigenvalues --   -1.15528  -1.11684  -1.04277  -1.00211  -0.94488
 Alpha  occ. eigenvalues --   -0.94399  -0.94298  -0.85103  -0.83790  -0.77476
 Alpha  occ. eigenvalues --   -0.66593  -0.66315  -0.63414  -0.62460  -0.61495
 Alpha  occ. eigenvalues --   -0.60508  -0.58212  -0.55841  -0.55362  -0.54431
 Alpha  occ. eigenvalues --   -0.53501  -0.52624  -0.51251  -0.51234  -0.50788
 Alpha  occ. eigenvalues --   -0.49366  -0.48029  -0.42385  -0.38424  -0.37020
 Alpha  occ. eigenvalues --   -0.33943
 Alpha virt. eigenvalues --    0.03093   0.03499   0.03880   0.04130   0.04773
 Alpha virt. eigenvalues --    0.04958   0.05099   0.06164   0.06516   0.07682
 Alpha virt. eigenvalues --    0.07979   0.08292   0.08389   0.09048   0.10885

 Mulliken charges:
               1
     1  C    0.301204
     2  C    0.301203
     3  C   -2.031171
     4  C   -2.031167
     5  C   -0.136032
     6  H    0.160838
     7  H    0.123815
     8  C   -0.136032
     9  H    0.160838
    10  S    0.637956
    11  C    0.092362
    12  H    0.207815
    13  H    0.215371
    14  H    0.175739
    15  C   -0.073782
    16  H    0.180268
    17  H    0.204410
    18  H    0.260183
    19  C    0.092366
    20  H    0.215370
    21  H    0.207813
    22  H    0.175739
    23  C   -0.073777
    24  H    0.204410
    25  H    0.180265
    26  H    0.260184
    27  H    0.123814
 Sum of Mulliken charges =  -0.00000

 Dipole moment (field-independent basis, Debye):
    X=              0.0000    Y=             -0.2629    Z=             -1.0295  Tot=              1.0626

 Test job not archived.
 1\1\GINC-SE222\SP\RHF\Aug-CC-pVDZ\C10H16S1\OHZDE\09-Apr-2025\0\\#t hf
 aug-cc-pvdz iop(5/13=1,5/36=2,99/5=2) pseudo=read geom=check guess=(re
 ad,tcheck) scf=(maxcycle=1)\\title\\0,1\C,0,0.600016,-1.151146,0.20999
 2\C,0,-0.600016,-1.151146,0.209992\C,0,1.876398,-0.436612,0.047299\C,0
 ,-1.876398,-0.436612,0.047299\C,0,1.447911,0.844237,-0.725539\H,0,2.26
 4746,1.570334,-0.718432\H,0,1.241533,0.58613,-1.765942\C,0,-1.447911,0
 .844237,-0.725539\H,0,-2.264746,1.570334,-0.718432\S,0,0.,1.770465,-0.
 085694\C,0,-2.897858,-1.207793,-0.791594\H,0,-3.213233,-2.113727,-0.27

 Normal termination of Gaussian 16 at Wed Apr  9 01:00:48 2025.
