 Gaussian 16, Revision C.01,

 ----------------------------------------------------------------------
 #t hf aug-cc-pvdz symm=none int=(grid=ultrafine) guess=(read,tcheck) s
 table=(opt,rrhf)
 ----------------------------------------------------------------------
 -----
 title
 -----
 Symbolic Z-matrix:
 Charge =  0 Multiplicity = 1

 SCF Done:  E(RHF) =  -722.655610468     A.U. after   14 cycles
 Normal termination of Gaussian 16 at Wed Apr  9 00:59:07 2025.
 Gaussian 16:  ES64L-G16RevC.01  3-Jul-2019

 ----------------------------------------------------------------------
 #t hf aug-cc-pvdz iop(5/13=1,5/36=2,99/5=2) pseudo=read geom=check gue
 ss=(read,tcheck) scf=(maxcycle=1)
 ----------------------------------------------------------------------
 -----
 title
 -----
 Structure from the checkpoint file:  "BH10_169_forward_mol2.chk"
 Charge =  0 Multiplicity = 1

                         Standard orientation:
 ---------------------------------------------------------------------
 Center     Atomic      Atomic             Coordinates (Angstroms)
 Number     Number       Type             X           Y           Z
 ---------------------------------------------------------------------
      1          6           0       -2.183175    0.812360    0.706271
      2         16           0       -1.870532   -0.562660   -0.436564
      3          6           0       -0.322553   -1.246710    0.236400
      4          6           0        0.962646   -0.671086   -0.364408
      5          6           0        2.184495   -1.425042    0.158479
      6          6           0        1.088224    0.803485   -0.006490
      7          8           0        1.299116    1.170446    1.132832
      8          1           0       -2.258556    0.447569    1.730117
      9          1           0       -1.413781    1.578806    0.647478
     10          1           0       -3.140528    1.243333    0.415257
     11          1           0        2.102608   -2.489773   -0.069253
     12          1           0        2.268661   -1.300652    1.238622
     13          1           0        3.103047   -1.048997   -0.295939
     14          1           0       -0.321515   -1.113147    1.319769
     15          1           0       -0.359481   -2.318272    0.035460
     16          1           0        0.907489   -0.776877   -1.451367
     17          7           0        0.958263    1.677291   -1.038981
     18          1           0        0.959586    2.662756   -0.826635
     19          1           0        0.602389    1.375172   -1.929794
 ---------------------------------------------------------------------

 SCF Done:  E(RHF) =  -723.056624290     A.U. after    2 cycles

 The electronic state is 1-A.
 Alpha  occ. eigenvalues --  -93.94140 -20.50918 -15.53074 -11.35711 -11.27123
 Alpha  occ. eigenvalues --  -11.25994 -11.25716 -11.23427  -8.22246  -6.20078
 Alpha  occ. eigenvalues --   -6.19917  -6.19708  -1.46156  -1.22713  -1.11708
 Alpha  occ. eigenvalues --   -1.05303  -0.95000  -0.89902  -0.83758  -0.80028
 Alpha  occ. eigenvalues --   -0.74467  -0.70923  -0.63499  -0.62604  -0.61200
 Alpha  occ. eigenvalues --   -0.59124  -0.57510  -0.57221  -0.54824  -0.53876
 Alpha  occ. eigenvalues --   -0.50628  -0.49197  -0.44347  -0.43369  -0.42131
 Alpha  occ. eigenvalues --   -0.34833
 Alpha virt. eigenvalues --    0.02949   0.03593   0.04282   0.04671   0.05192
 Alpha virt. eigenvalues --    0.05913   0.06439   0.06964   0.07867   0.08920
 Alpha virt. eigenvalues --    0.09558   0.10584   0.11516   0.12625   0.13471

 Mulliken charges:
               1
     1  C   -0.706416
     2  S    0.512207
     3  C   -0.357124
     4  C   -0.846524
     5  C   -0.161503
     6  C    0.372822
     7  O   -1.349981
     8  H    0.186459
     9  H    0.154590
    10  H    0.146061
    11  H    0.136669
    12  H    0.243885
    13  H    0.151161
    14  H    0.229949
    15  H    0.157431
    16  H    0.097687
    17  N    0.833697
    18  H    0.092511
    19  H    0.106420
 Sum of Mulliken charges =  -0.00000

 Dipole moment (field-independent basis, Debye):
    X=             -0.0488    Y=             -0.0515    Z=             -1.9251  Tot=              1.9265

 Test job not archived.
 1\1\GINC-SE460\SP\RHF\Aug-CC-pVDZ\C5H11N1O1S1\OHZDE\09-Apr-2025\0\\#t
 hf aug-cc-pvdz iop(5/13=1,5/36=2,99/5=2) pseudo=read geom=check guess=
 (read,tcheck) scf=(maxcycle=1)\\title\\0,1\C,0,-2.183175,0.81236,0.706
 271\S,0,-1.870532,-0.56266,-0.436564\C,0,-0.322553,-1.24671,0.2364\C,0
 ,0.962646,-0.671086,-0.364408\C,0,2.184495,-1.425042,0.158479\C,0,1.08
 8224,0.803485,-0.00649\O,0,1.299116,1.170446,1.132832\H,0,-2.258556,0.
 447569,1.730117\H,0,-1.413781,1.578806,0.647478\H,0,-3.140528,1.243333
 ,0.415257\H,0,2.102608,-2.489773,-0.069253\H,0,2.268661,-1.300652,1.23

 Normal termination of Gaussian 16 at Wed Apr  9 00:59:17 2025.
