 Gaussian 16, Revision C.01,

 ----------------------------------------------------------------------
 #t hf aug-cc-pvdz symm=none int=(grid=ultrafine) guess=(read,tcheck) s
 table=(opt,rrhf)
 ----------------------------------------------------------------------
 -----
 title
 -----
 Symbolic Z-matrix:
 Charge =  0 Multiplicity = 1

 SCF Done:  E(RHF) =  -912.169988378     A.U. after   13 cycles
 Normal termination of Gaussian 16 at Wed Apr  9 01:23:27 2025.
 Gaussian 16:  ES64L-G16RevC.01  3-Jul-2019

 ----------------------------------------------------------------------
 #t hf aug-cc-pvdz iop(5/13=1,5/36=2,99/5=2) pseudo=read geom=check gue
 ss=(read,tcheck) scf=(maxcycle=1)
 ----------------------------------------------------------------------
 -----
 title
 -----
 Structure from the checkpoint file:  "BH10_321_forward_mol2.chk"
 Charge =  0 Multiplicity = 1

                         Standard orientation:
 ---------------------------------------------------------------------
 Center     Atomic      Atomic             Coordinates (Angstroms)
 Number     Number       Type             X           Y           Z
 ---------------------------------------------------------------------
      1          6           0        0.017002   -1.340961    0.113846
      2         16           0        1.489084   -0.305596   -0.150637
      3         16           0       -1.504008   -0.318403    0.028260
      4          6           0        0.688534    1.238736    0.372295
      5          6           0       -0.679396    1.279110   -0.280191
      6          1           0        1.320195    2.060715    0.033047
      7          1           0        0.608918    1.276970    1.459111
      8          1           0       -0.591310    1.453121   -1.351840
      9          1           0       -1.309075    2.054062    0.158923
     10          1           0        0.050857   -1.822555    1.088718
     11          1           0        0.002359   -2.099646   -0.665627
 ---------------------------------------------------------------------

 SCF Done:  E(RHF) =  -912.417366818     A.U. after    2 cycles

 The electronic state is 1-A.
 Alpha  occ. eigenvalues --  -93.95171 -93.94835 -11.29666 -11.28065 -11.27873
 Alpha  occ. eigenvalues --   -8.23295  -8.22954  -6.21107  -6.20970  -6.20770
 Alpha  occ. eigenvalues --   -6.20730  -6.20627  -6.20391  -1.15479  -1.01653
 Alpha  occ. eigenvalues --   -1.01093  -0.81752  -0.81425  -0.66583  -0.63791
 Alpha  occ. eigenvalues --   -0.61861  -0.56194  -0.52270  -0.51108  -0.48469
 Alpha  occ. eigenvalues --   -0.43049  -0.36173  -0.35008
 Alpha virt. eigenvalues --    0.03505   0.04189   0.04414   0.05026   0.06475
 Alpha virt. eigenvalues --    0.06848   0.08326   0.08396   0.12032   0.13108
 Alpha virt. eigenvalues --    0.13696   0.14935   0.15128   0.15314   0.15749

 Mulliken charges:
               1
     1  C   -1.085446
     2  S    0.524561
     3  S    0.539938
     4  C   -0.653244
     5  C   -0.663358
     6  H    0.200093
     7  H    0.189658
     8  H    0.207290
     9  H    0.221683
    10  H    0.244869
    11  H    0.273955
 Sum of Mulliken charges =  -0.00000

 Dipole moment (field-independent basis, Debye):
    X=              0.1594    Y=              1.1861    Z=              0.3679  Tot=              1.2520

 Test job not archived.
 1\1\GINC-SE044\SP\RHF\Aug-CC-pVDZ\C3H6S2\OHZDE\09-Apr-2025\0\\#t hf au
 g-cc-pvdz iop(5/13=1,5/36=2,99/5=2) pseudo=read geom=check guess=(read
 ,tcheck) scf=(maxcycle=1)\\title\\0,1\C,0,0.017002,-1.340961,0.113846\
 S,0,1.489084,-0.305596,-0.150637\S,0,-1.504008,-0.318402,0.02826\C,0,0
 .688534,1.238736,0.372295\C,0,-0.679396,1.27911,-0.280191\H,0,1.320196
 ,2.060715,0.033047\H,0,0.608918,1.27697,1.459111\H,0,-0.59131,1.453121
 ,-1.35184\H,0,-1.309074,2.054063,0.158923\H,0,0.050857,-1.822555,1.088
 718\H,0,0.002358,-2.099646,-0.665627\\Version=ES64L-G16RevC.01\State=1

 Normal termination of Gaussian 16 at Wed Apr  9 01:23:31 2025.
