 Gaussian 16, Revision C.01,

 ----------------------------------------------------------------------
 #t hf aug-cc-pvdz symm=none int=(grid=ultrafine) guess=(read,tcheck) s
 table=opt
 ----------------------------------------------------------------------
 -----
 title
 -----
 Symbolic Z-matrix:
 Charge =  0 Multiplicity = 2

 SCF Done:  E(UHF) =  -872.822078043     A.U. after   20 cycles
 Normal termination of Gaussian 16 at Wed Apr  9 00:57:41 2025.
 Gaussian 16:  ES64L-G16RevC.01  3-Jul-2019

 ----------------------------------------------------------------------
 #t hf aug-cc-pvdz iop(5/13=1,5/36=2,99/5=2) pseudo=read geom=check gue
 ss=(read,tcheck) scf=(maxcycle=1)
 ----------------------------------------------------------------------
 -----
 title
 -----
 Structure from the checkpoint file:  "BH10-RE_123_mol1.chk"
 Charge =  0 Multiplicity = 2

                         Standard orientation:
 ---------------------------------------------------------------------
 Center     Atomic      Atomic             Coordinates (Angstroms)
 Number     Number       Type             X           Y           Z
 ---------------------------------------------------------------------
      1          7           0       -0.267027    0.651264   -0.143902
      2         16           0        0.921461   -0.497541    0.051396
      3          8           0        2.131789    0.244328   -0.673659
      4          6           0        2.657335    1.438297   -0.062215
      5          6           0       -1.668592    0.257404   -0.011218
      6          8           0        1.188901   -0.572328    1.471580
      7          8           0        0.685250   -1.682971   -0.729684
      8          1           0        3.502708    1.721115   -0.682831
      9          1           0        2.982854    1.224047    0.954838
     10          1           0        1.897380    2.219424   -0.069616
     11          6           0       -1.930053   -0.825171    1.041905
     12          6           0       -2.106480   -0.233875   -1.407844
     13          6           0       -2.417038    1.542268    0.346488
     14          1           0       -1.464017   -1.773393    0.774822
     15          1           0       -3.006589   -0.986485    1.117028
     16          1           0       -1.557488   -0.518048    2.019395
     17          1           0       -1.581188   -1.147023   -1.682960
     18          1           0       -1.912649    0.528753   -2.162999
     19          1           0       -3.179800   -0.431529   -1.380030
     20          1           0       -2.103378    1.909137    1.325020
     21          1           0       -3.491338    1.351383    0.376992
     22          1           0       -2.219239    2.318670   -0.393274
 ---------------------------------------------------------------------

 SCF Done:  E(UHF) =  -873.372320674     A.U. after    2 cycles

 The electronic state is 2-A.
 Alpha  occ. eigenvalues --  -94.25385 -20.61256 -20.55702 -20.55580 -15.58615
 Alpha  occ. eigenvalues --  -11.31417 -11.30051 -11.24121 -11.24047 -11.23665
 Alpha  occ. eigenvalues --   -8.49884  -6.48000  -6.47912  -6.47718  -1.62273
 Alpha  occ. eigenvalues --   -1.49412  -1.46272  -1.28970  -1.09774  -0.99588
 Alpha  occ. eigenvalues --   -0.96186  -0.96105  -0.89132  -0.79217  -0.74857
 Alpha  occ. eigenvalues --   -0.72334  -0.70849  -0.67446  -0.66676  -0.65277
 Alpha  occ. eigenvalues --   -0.63008  -0.61103  -0.60218  -0.57428  -0.55999
 Alpha  occ. eigenvalues --   -0.55406  -0.54419  -0.53863  -0.52813  -0.52109
 Alpha  occ. eigenvalues --   -0.50745  -0.50077  -0.47964  -0.47115  -0.46341
 Alpha virt. eigenvalues --    0.03280   0.03759   0.04159   0.04212   0.05247
 Alpha virt. eigenvalues --    0.05590   0.05810   0.06592   0.07116   0.08497
 Alpha virt. eigenvalues --    0.09165   0.09846   0.10237   0.12113   0.13172

  Beta  occ. eigenvalues --  -94.25453 -20.61269 -20.55494 -20.55438 -15.55222
  Beta  occ. eigenvalues --  -11.31419 -11.30300 -11.24010 -11.23895 -11.23591
  Beta  occ. eigenvalues --   -8.49974  -6.48081  -6.47962  -6.47907  -1.62014
  Beta  occ. eigenvalues --   -1.49295  -1.45797  -1.20907  -1.07907  -0.98992
  Beta  occ. eigenvalues --   -0.95930  -0.95319  -0.88014  -0.78640  -0.74088
  Beta  occ. eigenvalues --   -0.69974  -0.69790  -0.66339  -0.64469  -0.63251
  Beta  occ. eigenvalues --   -0.62613  -0.60085  -0.57624  -0.56811  -0.55804
  Beta  occ. eigenvalues --   -0.54019  -0.53253  -0.52143  -0.51451  -0.50503
  Beta  occ. eigenvalues --   -0.49770  -0.49443  -0.47409  -0.45092
  Beta virt. eigenvalues --    0.02114   0.03296   0.03766   0.04202   0.04588
  Beta virt. eigenvalues --    0.05268   0.05597   0.05817   0.06614   0.07124
  Beta virt. eigenvalues --    0.08512   0.09166   0.09872   0.10245   0.12143

 Mulliken charges and spin densities:
               1          2
     1  N    0.747755   1.124732
     2  S    4.465881  -0.076955
     3  O   -1.596530  -0.004642
     4  C    0.160520   0.000267
     5  C   -3.963763  -0.225763
     6  O   -1.532917   0.033822
     7  O   -1.555645   0.011728
     8  H    0.001153   0.000214
     9  H    0.205060  -0.000099
    10  H    0.219927  -0.003159
    11  C    0.328193   0.044053
    12  C    0.266163   0.085833
    13  C    0.300280   0.015035
    14  H    0.224145   0.000337
    15  H    0.189264  -0.001544
    16  H    0.266226  -0.000362
    17  H    0.174126  -0.003391
    18  H    0.179795  -0.000372
    19  H    0.267735   0.004824
    20  H    0.211517   0.003130
    21  H    0.230473  -0.002343
    22  H    0.210641  -0.005346
 Sum of Mulliken charges =  -0.00000   1.00000

 Dipole moment (field-independent basis, Debye):
    X=             -1.5892    Y=              3.1775    Z=             -0.2516  Tot=              3.5616
                          Isotropic Fermi Contact Couplings
        Atom                 a.u.       MegaHertz       Gauss      10(-4) cm-1
     1  N(14)              0.31785     102.69731      36.64495      34.25614
     2  S(33)             -0.08284     -28.45495     -10.15343      -9.49155
     3  O(17)             -0.00159       0.96265       0.34350       0.32110
     4  C(13)             -0.00066      -0.73912      -0.26374      -0.24654
     5  C(13)             -0.04446     -49.98328     -17.83528     -16.67263
     6  O(17)              0.02026     -12.28204      -4.38254      -4.09685
     7  O(17)              0.00487      -2.95208      -1.05337      -0.98471
     8  H(1)               0.00008       0.37771       0.13478       0.12599

 1\1\GINC-SE344\SP\UHF\Aug-CC-pVDZ\C5H12N1O3S1(2)\OHZDE\09-Apr-2025\0\\
 #t hf aug-cc-pvdz iop(5/13=1,5/36=2,99/5=2) pseudo=read geom=check gue
 ss=(read,tcheck) scf=(maxcycle=1)\\title\\0,2\N,0,-0.267027,0.651264,-
 0.143902\S,0,0.921461,-0.497541,0.051396\O,0,2.131789,0.244328,-0.6736
 59\C,0,2.657335,1.438297,-0.062215\C,0,-1.668592,0.257404,-0.011218\O,
 0,1.188901,-0.572328,1.47158\O,0,0.68525,-1.682971,-0.729684\H,0,3.502
 708,1.721115,-0.682831\H,0,2.982854,1.224047,0.954838\H,0,1.89738,2.21
 9424,-0.069616\C,0,-1.930053,-0.825171,1.041905\C,0,-2.10648,-0.233875

 Normal termination of Gaussian 16 at Wed Apr  9 00:57:58 2025.
