 Gaussian 16, Revision C.01,

 ----------------------------------------------------------------------
 #t hf aug-cc-pvdz symm=none int=(grid=ultrafine) guess=(read,tcheck) s
 table=(opt,rrhf)
 ----------------------------------------------------------------------
 -----
 title
 -----
 Symbolic Z-matrix:
 Charge =  0 Multiplicity = 1

 SCF Done:  E(RHF) =  -855.971973097     A.U. after   15 cycles
 Normal termination of Gaussian 16 at Wed Apr  9 02:08:27 2025.
 Gaussian 16:  ES64L-G16RevC.01  3-Jul-2019

 ----------------------------------------------------------------------
 #t hf aug-cc-pvdz iop(5/13=1,5/36=2,99/5=2) pseudo=read geom=check gue
 ss=(read,tcheck) scf=(maxcycle=1)
 ----------------------------------------------------------------------
 -----
 title
 -----
 Structure from the checkpoint file:  "BH10_92_reverse_mol2.chk"
 Charge =  0 Multiplicity = 1

                         Standard orientation:
 ---------------------------------------------------------------------
 Center     Atomic      Atomic             Coordinates (Angstroms)
 Number     Number       Type             X           Y           Z
 ---------------------------------------------------------------------
      1          6           0        0.522520   -1.180247   -0.115441
      2          6           0        0.342029   -0.875406    1.346777
      3          6           0        0.492735    1.169434    0.244409
      4          6           0        0.326211    0.437499    1.548550
      5         16           0        1.764240    0.119427   -0.646613
      6          6           0       -2.626651   -0.170793    0.359930
      7          6           0       -0.709891   -0.659029   -0.892810
      8          6           0       -0.710360    0.883716   -0.686846
      9          6           0       -2.104191    1.185152   -0.117970
     10          1           0       -2.434594   -0.321791    1.424266
     11          1           0       -2.744102    1.582158   -0.906873
     12          1           0       -2.076336    1.918747    0.688968
     13          1           0       -3.693045   -0.303705    0.174630
     14          8           0        3.026672   -0.003702    0.140232
     15          8           0       -1.937982   -1.159835   -0.402326
     16          1           0        0.205024   -1.640839    2.096983
     17          1           0        0.183964    0.935823    2.497286
     18          1           0       -0.639902   -0.942632   -1.943705
     19          1           0        0.837619   -2.186577   -0.375433
     20          1           0       -0.559850    1.400747   -1.634239
     21          1           0        0.789439    2.213582    0.301086
 ---------------------------------------------------------------------

 SCF Done:  E(RHF) =  -856.501921046     A.U. after    2 cycles

 The electronic state is 1-A.
 Alpha  occ. eigenvalues --  -94.06591 -20.55456 -20.49728 -11.31006 -11.29158
 Alpha  occ. eigenvalues --  -11.28626 -11.28089 -11.26648 -11.25633 -11.25426
 Alpha  occ. eigenvalues --  -11.25212  -8.33393  -6.31238  -6.31041  -6.30891
 Alpha  occ. eigenvalues --   -1.47838  -1.43100  -1.20186  -1.08067  -1.03885
 Alpha  occ. eigenvalues --   -0.99505  -0.96651  -0.83699  -0.82299  -0.81483
 Alpha  occ. eigenvalues --   -0.74306  -0.73526  -0.69969  -0.68437  -0.63303
 Alpha  occ. eigenvalues --   -0.61945  -0.60124  -0.59002  -0.58399  -0.56343
 Alpha  occ. eigenvalues --   -0.55027  -0.53458  -0.52003  -0.50529  -0.48663
 Alpha  occ. eigenvalues --   -0.48215  -0.43446  -0.39819  -0.39291  -0.34886
 Alpha virt. eigenvalues --    0.02644   0.02981   0.03309   0.03786   0.04785
 Alpha virt. eigenvalues --    0.05108   0.05523   0.06118   0.07739   0.08448
 Alpha virt. eigenvalues --    0.08928   0.09301   0.11785   0.12224   0.12778

 Mulliken charges:
               1
     1  C   -0.828784
     2  C    0.727229
     3  C   -0.630069
     4  C    0.550441
     5  S    2.011981
     6  C    0.433949
     7  C    1.529213
     8  C   -0.277850
     9  C   -0.217219
    10  H    0.182492
    11  H    0.112462
    12  H    0.155687
    13  H   -0.018165
    14  O   -1.549266
    15  O   -1.632422
    16  H   -0.213918
    17  H   -0.220251
    18  H    0.030466
    19  H   -0.055692
    20  H    0.051687
    21  H   -0.141972
 Sum of Mulliken charges =  -0.00000

 Dipole moment (field-independent basis, Debye):
    X=             -4.4659    Y=              1.5777    Z=             -0.0069  Tot=              4.7363

 Test job not archived.
 1\1\GINC-SE070\SP\RHF\Aug-CC-pVDZ\C8H10O2S1\OHZDE\09-Apr-2025\0\\#t hf
  aug-cc-pvdz iop(5/13=1,5/36=2,99/5=2) pseudo=read geom=check guess=(r
 ead,tcheck) scf=(maxcycle=1)\\title\\0,1\C,0,0.52252,-1.180247,-0.1154
 41\C,0,0.342029,-0.875406,1.346777\C,0,0.492735,1.169434,0.244409\C,0,
 0.326211,0.437499,1.54855\S,0,1.76424,0.119427,-0.646613\C,0,-2.626651
 ,-0.170793,0.35993\C,0,-0.709891,-0.659029,-0.89281\C,0,-0.71036,0.883
 716,-0.686846\C,0,-2.104191,1.185152,-0.11797\H,0,-2.434594,-0.321791,
 1.424266\H,0,-2.744102,1.582158,-0.906873\H,0,-2.076336,1.918747,0.688

 Normal termination of Gaussian 16 at Wed Apr  9 02:08:43 2025.
