 Gaussian 16, Revision C.01,

 ----------------------------------------------------------------------
 #t hf aug-cc-pvdz symm=none int=(grid=ultrafine) guess=(read,tcheck) s
 table=opt
 ----------------------------------------------------------------------
 -----
 title
 -----
 Symbolic Z-matrix:
 Charge =  0 Multiplicity = 2

 SCF Done:  E(UHF) =  -550.947678049     A.U. after   19 cycles
 Normal termination of Gaussian 16 at Wed Apr  9 00:59:08 2025.
 Gaussian 16:  ES64L-G16RevC.01  3-Jul-2019

 ----------------------------------------------------------------------
 #t hf aug-cc-pvdz iop(5/13=1,5/36=2,99/5=2) pseudo=read geom=check gue
 ss=(read,tcheck) scf=(maxcycle=1)
 ----------------------------------------------------------------------
 -----
 title
 -----
 Structure from the checkpoint file:  "BH10_175_forward_mol3.chk"
 Charge =  0 Multiplicity = 2

                         Standard orientation:
 ---------------------------------------------------------------------
 Center     Atomic      Atomic             Coordinates (Angstroms)
 Number     Number       Type             X           Y           Z
 ---------------------------------------------------------------------
      1         16           0        0.115430   -0.144779   -0.402711
      2          6           0       -1.545496    0.299314    0.199779
      3          1           0       -1.527512    0.309213    1.288057
      4          1           0       -1.827820    1.271562   -0.203271
      5          1           0       -2.222837   -0.471212   -0.163993
      6          6           0        0.992373    1.219507    0.219766
      7          8           0        0.544831   -1.391318    0.312431
      8          1           0        0.721205    2.208081   -0.128743
      9          1           0        1.970177    1.016434    0.634603
 ---------------------------------------------------------------------

 SCF Done:  E(UHF) =  -551.167994683     A.U. after    2 cycles

 The electronic state is 2-A.
 Alpha  occ. eigenvalues --  -94.07659 -20.49681 -11.29246 -11.28179  -8.34522
 Alpha  occ. eigenvalues --   -6.32367  -6.32213  -6.32067  -1.43253  -1.10438
 Alpha  occ. eigenvalues --   -0.99339  -0.83694  -0.66254  -0.65021  -0.63486
 Alpha  occ. eigenvalues --   -0.58842  -0.57909  -0.53401  -0.44396  -0.42686
 Alpha  occ. eigenvalues --   -0.35051
 Alpha virt. eigenvalues --    0.02940   0.04107   0.04789   0.05720   0.06901
 Alpha virt. eigenvalues --    0.08520   0.11659   0.11776   0.13023   0.14092
 Alpha virt. eigenvalues --    0.15296   0.15553   0.16442   0.17517   0.18005

  Beta  occ. eigenvalues --  -94.07709 -20.49730 -11.27914 -11.26819  -8.34576
  Beta  occ. eigenvalues --   -6.32484  -6.32401  -6.32040  -1.43212  -1.08241
  Beta  occ. eigenvalues --   -0.95324  -0.80622  -0.65040  -0.64121  -0.62690
  Beta  occ. eigenvalues --   -0.57757  -0.57158  -0.52468  -0.42390  -0.37124
  Beta virt. eigenvalues --    0.02663   0.03577   0.04523   0.05453   0.06556
  Beta virt. eigenvalues --    0.06946   0.08621   0.11749   0.12664   0.13325
  Beta virt. eigenvalues --    0.15008   0.15712   0.16326   0.16641   0.17986

 Mulliken charges and spin densities:
               1          2
     1  S    1.721584  -0.143941
     2  C   -0.682906   0.080407
     3  H    0.239421  -0.008462
     4  H    0.194482  -0.008338
     5  H    0.214797  -0.002583
     6  C   -0.388084   1.271857
     7  O   -1.486714  -0.005038
     8  H    0.093210  -0.097479
     9  H    0.094209  -0.086424
 Sum of Mulliken charges =  -0.00000   1.00000

 Dipole moment (field-independent basis, Debye):
    X=             -1.6619    Y=              4.1220    Z=             -0.4565  Tot=              4.4678
                          Isotropic Fermi Contact Couplings
        Atom                 a.u.       MegaHertz       Gauss      10(-4) cm-1
     1  S(33)              0.01455       4.99771       1.78331       1.66706
     2  C(13)              0.05748      64.62289      23.05906      21.55588
     3  H(1)              -0.00144      -6.42817      -2.29373      -2.14421
     4  H(1)              -0.00143      -6.40657      -2.28602      -2.13700
     5  H(1)              -0.00054      -2.43256      -0.86800      -0.81142
     6  C(13)              0.21689     243.82915      87.00430      81.33265
     7  O(17)             -0.00586       3.55464       1.26838       1.18570
     8  H(1)              -0.02130     -95.19902     -33.96938     -31.75497

 Normal termination of Gaussian 16 at Wed Apr  9 00:59:11 2025.
