 Gaussian 16, Revision C.01,

 ----------------------------------------------------------------------
 #t hf aug-cc-pvdz symm=none int=(grid=ultrafine) guess=(read,tcheck) s
 table=opt
 ----------------------------------------------------------------------
 -----
 title
 -----
 Symbolic Z-matrix:
 Charge =  0 Multiplicity = 2

 SCF Done:  E(UHF) =  -1028.92530245     A.U. after   20 cycles
 Normal termination of Gaussian 16 at Wed Apr  9 01:16:38 2025.
 Gaussian 16:  ES64L-G16RevC.01  3-Jul-2019

 ----------------------------------------------------------------------
 #t hf aug-cc-pvdz iop(5/13=1,5/36=2,99/5=2) pseudo=read geom=check gue
 ss=(read,tcheck) scf=(maxcycle=1)
 ----------------------------------------------------------------------
 -----
 title
 -----
 Structure from the checkpoint file:  "BH10_204_forward_mol1.chk"
 Charge =  0 Multiplicity = 2

                         Standard orientation:
 ---------------------------------------------------------------------
 Center     Atomic      Atomic             Coordinates (Angstroms)
 Number     Number       Type             X           Y           Z
 ---------------------------------------------------------------------
      1          7           0       -0.567708    0.423515   -0.476262
      2         16           0       -0.357362   -1.199621   -0.692778
      3          8           0        0.105650   -1.785441    0.753468
      4          6           0        1.488244   -1.662821    1.143176
      5          6           0        1.798075   -0.289752    1.722751
      6          1           0        2.118603   -1.904571    0.287325
      7          1           0        1.614730   -2.432479    1.902344
      8          6           0        1.710881    0.861851    0.745054
      9          1           0        2.818090   -0.333530    2.126472
     10          1           0        1.133973   -0.114083    2.572148
     11          1           0        0.588273    0.770013    0.144312
     12          6           0        2.730513    0.921075   -0.368441
     13          1           0        1.595770    1.822492    1.251232
     14          6           0       -1.740021    0.969792    0.257336
     15          6           0       -2.069747    0.249677    1.565585
     16          6           0       -1.393872    2.433503    0.537169
     17          6           0       -2.937994    0.921561   -0.701985
     18          1           0       -3.784045    1.435387   -0.240136
     19          1           0       -3.225430   -0.104024   -0.922778
     20          1           0       -2.691505    1.424819   -1.637870
     21          1           0       -2.337670   -0.792283    1.394753
     22          1           0       -2.916393    0.746040    2.044109
     23          1           0       -1.225956    0.278938    2.256545
     24          1           0       -2.269838    2.944831    0.938993
     25          1           0       -0.590090    2.520977    1.269444
     26          1           0       -1.086862    2.937976   -0.380049
     27          8           0        0.766232   -1.356198   -1.586809
     28          8           0       -1.623258   -1.834031   -0.951621
     29          6           0        2.464806    2.057884   -1.348669
     30          1           0        2.748266   -0.026704   -0.909687
     31          1           0        3.721406    1.043836    0.090442
     32          1           0        3.236877    2.099926   -2.118384
     33          1           0        1.502952    1.915279   -1.844144
     34          1           0        2.446306    3.025224   -0.838950
 ---------------------------------------------------------------------

 SCF Done:  E(UHF) =  -1029.64646117     A.U. after    2 cycles

 The electronic state is 2-A.
 Alpha  occ. eigenvalues --  -94.24356 -20.59835 -20.54523 -20.54127 -15.56008
 Alpha  occ. eigenvalues --  -11.31315 -11.29428 -11.27106 -11.25789 -11.23802
 Alpha  occ. eigenvalues --  -11.23757 -11.23033 -11.22627 -11.22518  -8.48756
 Alpha  occ. eigenvalues --   -6.46897  -6.46759  -6.46621  -1.60561  -1.47840
 Alpha  occ. eigenvalues --   -1.45091  -1.26731  -1.12331  -1.09217  -1.04027
 Alpha  occ. eigenvalues --   -0.96311  -0.95644  -0.94768  -0.89824  -0.85579
 Alpha  occ. eigenvalues --   -0.82585  -0.78223  -0.75899  -0.70869  -0.70280
 Alpha  occ. eigenvalues --   -0.68142  -0.66763  -0.65585  -0.63482  -0.62362
 Alpha  occ. eigenvalues --   -0.62051  -0.60655  -0.59692  -0.57592  -0.57266
 Alpha  occ. eigenvalues --   -0.55870  -0.55414  -0.54567  -0.53448  -0.52473
 Alpha  occ. eigenvalues --   -0.52330  -0.51851  -0.50800  -0.50069  -0.49267
 Alpha  occ. eigenvalues --   -0.48762  -0.48151  -0.47746  -0.46709  -0.45453
 Alpha  occ. eigenvalues --   -0.40403
 Alpha virt. eigenvalues --    0.02442   0.02907   0.03186   0.03848   0.04312
 Alpha virt. eigenvalues --    0.04528   0.05195   0.05718   0.06409   0.07331
 Alpha virt. eigenvalues --    0.07531   0.08116   0.08285   0.08826   0.09591

  Beta  occ. eigenvalues --  -94.24398 -20.59855 -20.54354 -20.54149 -15.53394
  Beta  occ. eigenvalues --  -11.31279 -11.29564 -11.25914 -11.25570 -11.23911
  Beta  occ. eigenvalues --  -11.23727 -11.23025 -11.22610 -11.22396  -8.48813
  Beta  occ. eigenvalues --   -6.46934  -6.46797  -6.46732  -1.60414  -1.47779
  Beta  occ. eigenvalues --   -1.44923  -1.21159  -1.10557  -1.08073  -1.03788
  Beta  occ. eigenvalues --   -0.95546  -0.95016  -0.94072  -0.88501  -0.85194
  Beta  occ. eigenvalues --   -0.80531  -0.77331  -0.73041  -0.69928  -0.68907
  Beta  occ. eigenvalues --   -0.65886  -0.65464  -0.65058  -0.62806  -0.62078
  Beta  occ. eigenvalues --   -0.61485  -0.59494  -0.59239  -0.56971  -0.56072
  Beta  occ. eigenvalues --   -0.55444  -0.54880  -0.53390  -0.52663  -0.51820
  Beta  occ. eigenvalues --   -0.51450  -0.50651  -0.50126  -0.49799  -0.48925
  Beta  occ. eigenvalues --   -0.48122  -0.47606  -0.46777  -0.45851  -0.43319
  Beta virt. eigenvalues --    0.01424   0.02462   0.03027   0.03207   0.04102
  Beta virt. eigenvalues --    0.04317   0.04583   0.05212   0.05720   0.06429
  Beta virt. eigenvalues --    0.07337   0.07537   0.08118   0.08289   0.08857

 Mulliken charges and spin densities:
               1          2
     1  N    0.786248   0.766042
     2  S    4.358420  -0.047580
     3  O   -1.806531  -0.002628
     4  C    0.567654   0.012019
     5  C   -0.173487  -0.114677
     6  H    0.260327  -0.001778
     7  H   -0.064711  -0.000630
     8  C   -1.046218   0.866451
     9  H    0.167613   0.020884
    10  H    0.174339  -0.003772
    11  H    0.254571  -0.329618
    12  C   -0.332224  -0.124090
    13  H    0.089863  -0.060493
    14  C   -3.336181  -0.086902
    15  C    0.224526   0.007652
    16  C    0.311267   0.004000
    17  C    0.268701   0.054992
    18  H    0.237544   0.003233
    19  H    0.248940  -0.001074
    20  H    0.226378  -0.001174
    21  H    0.164545  -0.000200
    22  H    0.226491  -0.001099
    23  H    0.170831  -0.002466
    24  H    0.125529  -0.001795
    25  H    0.239265  -0.006074
    26  H    0.221938  -0.000297
    27  O   -1.564346  -0.005146
    28  O   -1.601064   0.022025
    29  C   -0.259589   0.005976
    30  H    0.230477   0.006396
    31  H    0.161064   0.022695
    32  H    0.080783  -0.000669
    33  H    0.193324   0.000436
    34  H    0.193714  -0.000639
 Sum of Mulliken charges =  -0.00000   1.00000

 Dipole moment (field-independent basis, Debye):
    X=              2.0724    Y=              3.1386    Z=              4.3098  Tot=              5.7201
                          Isotropic Fermi Contact Couplings
        Atom                 a.u.       MegaHertz       Gauss      10(-4) cm-1
     1  N(14)              0.37902     122.46167      43.69737      40.84881
     2  S(33)             -0.06078     -20.87730      -7.44954      -6.96392
     3  O(17)             -0.00501       3.03904       1.08440       1.01371
     4  C(13)              0.00819       9.20426       3.28431       3.07021
     5  C(13)             -0.02294     -25.78957      -9.20236      -8.60248
     6  H(1)              -0.00029      -1.27865      -0.45625      -0.42651
     7  H(1)              -0.00051      -2.27883      -0.81314      -0.76014
     8  C(13)              0.17836     200.51587      71.54905      66.88489

 1\1\GINC-SE344\SP\UHF\Aug-CC-pVDZ\C9H20N1O3S1(2)\OHZDE\09-Apr-2025\0\\
 #t hf aug-cc-pvdz iop(5/13=1,5/36=2,99/5=2) pseudo=read geom=check gue
 ss=(read,tcheck) scf=(maxcycle=1)\\title\\0,2\N,0,-0.567708,0.423515,-
 0.476262\S,0,-0.357362,-1.199621,-0.692778\O,0,0.10565,-1.785441,0.753
 468\C,0,1.488244,-1.662821,1.143176\C,0,1.798075,-0.289752,1.722751\H,
 0,2.118603,-1.904571,0.287325\H,0,1.614731,-2.432479,1.902344\C,0,1.71
 0881,0.861851,0.745054\H,0,2.81809,-0.333529,2.126472\H,0,1.133973,-0.
 114083,2.572148\H,0,0.588273,0.770013,0.144312\C,0,2.730513,0.921076,-

 Normal termination of Gaussian 16 at Wed Apr  9 01:17:34 2025.
