 Gaussian 16, Revision C.01,

 ----------------------------------------------------------------------
 #t hf aug-cc-pvdz symm=none int=(grid=ultrafine) guess=(read,tcheck) s
 table=(opt,rrhf)
 ----------------------------------------------------------------------
 -----
 title
 -----
 Symbolic Z-matrix:
 Charge =  0 Multiplicity = 1

 SCF Done:  E(RHF) =  -650.225382215     A.U. after   16 cycles
 Normal termination of Gaussian 16 at Wed Apr  9 00:59:47 2025.
 Gaussian 16:  ES64L-G16RevC.01  3-Jul-2019

 ----------------------------------------------------------------------
 #t hf aug-cc-pvdz iop(5/13=1,5/36=2,99/5=2) pseudo=read geom=check gue
 ss=(read,tcheck) scf=(maxcycle=1)
 ----------------------------------------------------------------------
 -----
 title
 -----
 Structure from the checkpoint file:  "BH10_109_forward_mol2.chk"
 Charge =  0 Multiplicity = 1

                         Standard orientation:
 ---------------------------------------------------------------------
 Center     Atomic      Atomic             Coordinates (Angstroms)
 Number     Number       Type             X           Y           Z
 ---------------------------------------------------------------------
      1          6           0        2.528616    0.008368    0.000061
      2          6           0        3.089589   -0.616341   -1.265909
      3          6           0        1.012332    0.014220    0.000018
      4          6           0        3.089506   -0.616179    1.266150
      5          1           0        2.710059   -0.092247   -2.143495
      6          1           0        2.804114   -1.666476   -1.339432
      7          1           0        4.178251   -0.550253   -1.256446
      8          6           0        0.303515    1.210673   -0.000041
      9          6           0        0.312899   -1.192665    0.000044
     10          1           0        2.804004   -1.666297    1.339798
     11          1           0        2.709933   -0.091957    2.143641
     12          1           0        4.178170   -0.550113    1.256743
     13          6           0       -1.069468   -1.211024    0.000016
     14          6           0       -1.746706   -0.003336   -0.000045
     15          6           0       -1.082654    1.208663   -0.000075
     16          1           0        0.842474    2.147015   -0.000062
     17          1           0       -1.649142    2.128919   -0.000125
     18          1           0        0.847885   -2.134195    0.000088
     19          1           0       -1.625885   -2.137211    0.000040
     20          7           0       -3.219010   -0.012843   -0.000076
     21          8           0       -3.775874   -1.093837    0.000041
     22          8           0       -3.790718    1.059704   -0.000219
     23          9           0        2.960019    1.351279   -0.000012
 ---------------------------------------------------------------------

 SCF Done:  E(RHF) =  -650.871921821     A.U. after    2 cycles

 The electronic state is 1-A.
 Alpha  occ. eigenvalues --  -26.45563 -20.58796 -20.58776 -15.79178 -11.35049
 Alpha  occ. eigenvalues --  -11.31170 -11.28384 -11.28232 -11.28084 -11.27220
 Alpha  occ. eigenvalues --  -11.26615 -11.25176 -11.25168  -1.67762  -1.57869
 Alpha  occ. eigenvalues --   -1.51173  -1.21268  -1.13555  -1.07865  -1.05702
 Alpha  occ. eigenvalues --   -0.98313  -0.97557  -0.88248  -0.86799  -0.81659
 Alpha  occ. eigenvalues --   -0.80350  -0.75230  -0.75050  -0.73561  -0.69786
 Alpha  occ. eigenvalues --   -0.68120  -0.66682  -0.65211  -0.63844  -0.62133
 Alpha  occ. eigenvalues --   -0.59862  -0.59205  -0.57056  -0.55969  -0.54515
 Alpha  occ. eigenvalues --   -0.53993  -0.51350  -0.50843  -0.49846  -0.48679
 Alpha  occ. eigenvalues --   -0.45201  -0.38246  -0.38023
 Alpha virt. eigenvalues --    0.02584   0.02590   0.03299   0.03435   0.03617
 Alpha virt. eigenvalues --    0.05486   0.05835   0.06118   0.06250   0.07128
 Alpha virt. eigenvalues --    0.08429   0.08496   0.09554   0.11443   0.11827

 Mulliken charges:
               1
     1  C    0.117143
     2  C   -0.328860
     3  C    0.722034
     4  C   -0.328868
     5  H    0.192277
     6  H    0.235264
     7  H    0.154141
     8  C    0.403041
     9  C    0.757312
    10  H    0.235262
    11  H    0.192281
    12  H    0.154141
    13  C   -0.271146
    14  C   -0.280531
    15  C    0.153264
    16  H   -0.333589
    17  H   -0.211733
    18  H   -0.369171
    19  H   -0.223726
    20  N    3.108940
    21  O   -1.514765
    22  O   -1.516842
    23  F   -1.045869
 Sum of Mulliken charges =   0.00000

 Dipole moment (field-independent basis, Debye):
    X=              4.8286    Y=             -1.6710    Z=              0.0002  Tot=              5.1095

 Test job not archived.
 1\1\GINC-SE164\SP\RHF\Aug-CC-pVDZ\C9H10F1N1O2\OHZDE\09-Apr-2025\0\\#t
 hf aug-cc-pvdz iop(5/13=1,5/36=2,99/5=2) pseudo=read geom=check guess=
 (read,tcheck) scf=(maxcycle=1)\\title\\0,1\C,0,2.528616,0.008368,0.000
 061\C,0,3.089589,-0.616341,-1.265909\C,0,1.012332,0.01422,0.000018\C,0
 ,3.089506,-0.616179,1.26615\H,0,2.710059,-0.092247,-2.143495\H,0,2.804
 114,-1.666476,-1.339432\H,0,4.178251,-0.550253,-1.256446\C,0,0.303515,
 1.210673,-0.000041\C,0,0.312899,-1.192665,0.000044\H,0,2.804004,-1.666
 297,1.339798\H,0,2.709933,-0.091957,2.143641\H,0,4.17817,-0.550113,1.2

 Normal termination of Gaussian 16 at Wed Apr  9 01:00:05 2025.
