 Gaussian 16, Revision C.01,

 ----------------------------------------------------------------------
 #t hf aug-cc-pvdz symm=none int=(grid=ultrafine) guess=(read,tcheck) s
 table=(opt,rrhf)
 ----------------------------------------------------------------------
 -----
 title
 -----
 Symbolic Z-matrix:
 Charge =  0 Multiplicity = 1

 SCF Done:  E(RHF) =  -1332.30593317     A.U. after   14 cycles
 Normal termination of Gaussian 16 at Wed Apr  9 00:57:29 2025.
 Gaussian 16:  ES64L-G16RevC.01  3-Jul-2019

 ----------------------------------------------------------------------
 #t hf aug-cc-pvdz iop(5/13=1,5/36=2,99/5=2) pseudo=read geom=check gue
 ss=(read,tcheck) scf=(maxcycle=1)
 ----------------------------------------------------------------------
 -----
 title
 -----
 Structure from the checkpoint file:  "BH10-RE_123_mol3.chk"
 Charge =  0 Multiplicity = 1

                         Standard orientation:
 ---------------------------------------------------------------------
 Center     Atomic      Atomic             Coordinates (Angstroms)
 Number     Number       Type             X           Y           Z
 ---------------------------------------------------------------------
      1          7           0       -0.275339    0.300524   -0.295080
      2         16           0        1.048835   -0.425341    0.514729
      3          8           0        2.241216    0.345947   -0.206469
      4          6           0        2.460231    0.096947   -1.608843
      5          6           0       -1.642729   -0.358722   -0.204475
      6         17           0       -0.293724    2.001405    0.125286
      7          8           0        1.130730   -0.055583    1.897535
      8          8           0        1.054364   -1.808576    0.108751
      9          1           0        3.364640    0.647649   -1.850466
     10          1           0        1.615266    0.473940   -2.184553
     11          1           0        2.601490   -0.969154   -1.780991
     12          6           0       -1.592421   -1.673894   -0.988430
     13          6           0       -2.633813    0.563650   -0.916352
     14          6           0       -2.063932   -0.585355    1.244746
     15          1           0       -1.210198   -1.502440   -1.995805
     16          1           0       -2.611542   -2.055687   -1.068718
     17          1           0       -0.976802   -2.426766   -0.507870
     18          1           0       -2.269505    0.836726   -1.907781
     19          1           0       -2.834722    1.472598   -0.353514
     20          1           0       -3.574908    0.025357   -1.033019
     21          1           0       -1.420656   -1.312682    1.741518
     22          1           0       -3.086085   -0.967281    1.270170
     23          1           0       -2.032140    0.345576    1.812656
 ---------------------------------------------------------------------

 SCF Done:  E(RHF) =  -1332.93238645     A.U. after    2 cycles

 The electronic state is 1-A.
 Alpha  occ. eigenvalues -- -105.60957 -94.26190 -20.61678 -20.56077 -20.55625
 Alpha  occ. eigenvalues --  -15.60348 -11.31696 -11.31042 -11.24127 -11.23578
 Alpha  occ. eigenvalues --  -11.23309 -10.65480  -8.50591  -7.82450  -7.81992
 Alpha  occ. eigenvalues --   -7.81940  -6.48711  -6.48591  -6.48471  -1.62668
 Alpha  occ. eigenvalues --   -1.49885  -1.46633  -1.28229  -1.11020  -1.04209
 Alpha  occ. eigenvalues --   -0.99399  -0.96101  -0.95249  -0.88533  -0.79521
 Alpha  occ. eigenvalues --   -0.75164  -0.71773  -0.70868  -0.67914  -0.67127
 Alpha  occ. eigenvalues --   -0.65202  -0.63191  -0.62070  -0.59985  -0.57622
 Alpha  occ. eigenvalues --   -0.56893  -0.55611  -0.54925  -0.54061  -0.53259
 Alpha  occ. eigenvalues --   -0.52593  -0.50769  -0.50609  -0.49805  -0.49415
 Alpha  occ. eigenvalues --   -0.47807  -0.46307  -0.43581
 Alpha virt. eigenvalues --    0.03302   0.03631   0.03977   0.04161   0.05161
 Alpha virt. eigenvalues --    0.05456   0.06007   0.06613   0.07267   0.08410
 Alpha virt. eigenvalues --    0.09113   0.09192   0.09574   0.10456   0.12316

 Mulliken charges:
               1
     1  N    0.710028
     2  S    4.483519
     3  O   -1.649432
     4  C    0.146239
     5  C   -3.637613
     6  Cl  -0.102118
     7  O   -1.555949
     8  O   -1.583756
     9  H   -0.013656
    10  H    0.219611
    11  H    0.207023
    12  C    0.285510
    13  C    0.327843
    14  C    0.230792
    15  H    0.208709
    16  H    0.203903
    17  H    0.243131
    18  H    0.234556
    19  H    0.229880
    20  H    0.173212
    21  H    0.152166
    22  H    0.267106
    23  H    0.219295
 Sum of Mulliken charges =  -0.00000

 Dipole moment (field-independent basis, Debye):
    X=             -1.8363    Y=              0.5936    Z=             -3.4582  Tot=              3.9603

 Test job not archived.
 1\1\GINC-SE459\SP\RHF\Aug-CC-pVDZ\C5H12Cl1N1O3S1\OHZDE\09-Apr-2025\0\\
 #t hf aug-cc-pvdz iop(5/13=1,5/36=2,99/5=2) pseudo=read geom=check gue
 ss=(read,tcheck) scf=(maxcycle=1)\\title\\0,1\N,0,-0.275339,0.300524,-
 0.29508\S,0,1.048835,-0.425341,0.514729\O,0,2.241216,0.345947,-0.20646
 9\C,0,2.460231,0.096947,-1.608843\C,0,-1.642729,-0.358722,-0.204475\Cl
 ,0,-0.293724,2.001405,0.125286\O,0,1.13073,-0.055583,1.897535\O,0,1.05
 4364,-1.808576,0.108751\H,0,3.36464,0.647649,-1.850466\H,0,1.615266,0.
 47394,-2.184553\H,0,2.60149,-0.969154,-1.780991\C,0,-1.592421,-1.67389

 Normal termination of Gaussian 16 at Wed Apr  9 00:57:47 2025.
