 Gaussian 16, Revision C.01,

 ----------------------------------------------------------------------
 #t hf aug-cc-pvdz symm=none int=(grid=ultrafine) guess=(read,tcheck) s
 table=(opt,rrhf)
 ----------------------------------------------------------------------
 -----
 title
 -----
 Symbolic Z-matrix:
 Charge =  0 Multiplicity = 1

 SCF Done:  E(RHF) =  -770.002403057     A.U. after   15 cycles
 Normal termination of Gaussian 16 at Wed Apr  9 00:58:37 2025.
 Gaussian 16:  ES64L-G16RevC.01  3-Jul-2019

 ----------------------------------------------------------------------
 #t hf aug-cc-pvdz iop(5/13=1,5/36=2,99/5=2) pseudo=read geom=check gue
 ss=(read,tcheck) scf=(maxcycle=1)
 ----------------------------------------------------------------------
 -----
 title
 -----
 Structure from the checkpoint file:  "BH10_137_forward_mol2.chk"
 Charge =  0 Multiplicity = 1

                         Standard orientation:
 ---------------------------------------------------------------------
 Center     Atomic      Atomic             Coordinates (Angstroms)
 Number     Number       Type             X           Y           Z
 ---------------------------------------------------------------------
      1         17           0       -2.255519   -1.052391   -0.198672
      2          6           0       -1.251120    0.478745    0.020711
      3          6           0       -1.859217    1.533672   -0.890036
      4          6           0        0.182643    0.172496   -0.407945
      5          6           0       -1.363163    0.885663    1.481295
      6          1           0       -2.393811    1.140267    1.729555
      7          1           0       -0.736607    1.764161    1.659743
      8          1           0       -1.039233    0.089353    2.149467
      9          1           0       -1.804403    1.226982   -1.934985
     10          1           0       -1.308724    2.471355   -0.775125
     11          1           0       -2.904083    1.712735   -0.635586
     12          1           0        0.731474    1.119861   -0.378771
     13          1           0        0.164325   -0.143992   -1.455064
     14          6           0        0.931960   -0.863394    0.419448
     15          1           0        1.027631   -0.529092    1.454825
     16          6           0        2.334402   -1.144084   -0.135554
     17          1           0        0.371326   -1.800202    0.431806
     18          1           0        2.257775   -1.503848   -1.166471
     19          1           0        2.800649   -1.948518    0.439288
     20          6           0        3.211129    0.023077   -0.104855
     21          6           0        3.917612    0.988939   -0.067060
     22          1           0        4.552022    1.840911   -0.037292
 ---------------------------------------------------------------------

 SCF Done:  E(RHF) =  -770.416162801     A.U. after    2 cycles

 The electronic state is 1-A.
 Alpha  occ. eigenvalues -- -105.54053 -11.31222 -11.26299 -11.24418 -11.24085
 Alpha  occ. eigenvalues --  -11.24061 -11.23825 -11.23783 -11.23243 -10.58901
 Alpha  occ. eigenvalues --   -7.75822  -7.75494  -7.75487  -1.15382  -1.09343
 Alpha  occ. eigenvalues --   -1.02141  -0.99369  -0.95722  -0.95226  -0.84968
 Alpha  occ. eigenvalues --   -0.75528  -0.72726  -0.67444  -0.65350  -0.63887
 Alpha  occ. eigenvalues --   -0.62357  -0.60061  -0.58515  -0.56840  -0.54999
 Alpha  occ. eigenvalues --   -0.52841  -0.51601  -0.49708  -0.49058  -0.48041
 Alpha  occ. eigenvalues --   -0.43483  -0.43363  -0.39863  -0.39743
 Alpha virt. eigenvalues --    0.03058   0.03465   0.03667   0.03971   0.05516
 Alpha virt. eigenvalues --    0.05601   0.05823   0.06551   0.07269   0.08448
 Alpha virt. eigenvalues --    0.08970   0.09330   0.10427   0.11182   0.11658

 Mulliken charges:
               1
     1  Cl  -0.192726
     2  C   -1.636930
     3  C    0.179629
     4  C    0.142507
     5  C    0.073120
     6  H    0.148034
     7  H    0.245419
     8  H    0.192514
     9  H    0.204836
    10  H    0.246924
    11  H    0.172434
    12  H    0.207899
    13  H    0.121488
    14  C   -0.286682
    15  H    0.101132
    16  C   -0.779156
    17  H    0.141907
    18  H    0.243651
    19  H    0.226520
    20  C    0.435322
    21  C    0.276855
    22  H   -0.464700
 Sum of Mulliken charges =  -0.00000

 Dipole moment (field-independent basis, Debye):
    X=              0.9153    Y=              1.5483    Z=              0.3571  Tot=              1.8337

 Test job not archived.
 1\1\GINC-SE054\SP\RHF\Aug-CC-pVDZ\C8H13Cl1\OHZDE\09-Apr-2025\0\\#t hf
 aug-cc-pvdz iop(5/13=1,5/36=2,99/5=2) pseudo=read geom=check guess=(re
 ad,tcheck) scf=(maxcycle=1)\\title\\0,1\Cl,0,-2.255519,-1.052391,-0.19
 8672\C,0,-1.25112,0.478745,0.020711\C,0,-1.859217,1.533672,-0.890036\C
 ,0,0.182643,0.172496,-0.407945\C,0,-1.363163,0.885663,1.481295\H,0,-2.
 393811,1.140267,1.729555\H,0,-0.736607,1.764161,1.659743\H,0,-1.039233
 ,0.089353,2.149467\H,0,-1.804403,1.226982,-1.934985\H,0,-1.308724,2.47
 1355,-0.775125\H,0,-2.904083,1.712736,-0.635586\H,0,0.731474,1.119861,

 Normal termination of Gaussian 16 at Wed Apr  9 00:58:50 2025.
