 Gaussian 16, Revision C.01,

 ----------------------------------------------------------------------
 #t hf aug-cc-pvdz symm=none int=(grid=ultrafine) guess=(read,tcheck) s
 table=opt
 ----------------------------------------------------------------------
 -----
 title
 -----
 Symbolic Z-matrix:
 Charge =  0 Multiplicity = 2

 SCF Done:  E(UHF) =  -1247.47446228     A.U. after   20 cycles
 Normal termination of Gaussian 16 at Wed Apr  9 01:13:11 2025.
 Gaussian 16:  ES64L-G16RevC.01  3-Jul-2019

 ----------------------------------------------------------------------
 #t hf aug-cc-pvdz iop(5/13=1,5/36=2,99/5=2) pseudo=read geom=check gue
 ss=(read,tcheck) scf=(maxcycle=1)
 ----------------------------------------------------------------------
 -----
 title
 -----
 Structure from the checkpoint file:  "BH10_182_forward_mol1.chk"
 Charge =  0 Multiplicity = 2

                         Standard orientation:
 ---------------------------------------------------------------------
 Center     Atomic      Atomic             Coordinates (Angstroms)
 Number     Number       Type             X           Y           Z
 ---------------------------------------------------------------------
      1          7           0       -0.319081   -0.375176   -0.487895
      2         16           0        0.973748   -1.414794   -0.562597
      3          8           0        1.567574   -1.420615    0.945578
      4          6           0        2.435103   -0.339880    1.362612
      5          6           0        1.644671    0.887453    1.792896
      6          1           0        2.979721   -0.759034    2.206009
      7          1           0        3.138282   -0.125310    0.558042
      8          6           0        0.914578    1.614512    0.684024
      9          1           0        2.355370    1.581601    2.259347
     10          1           0        0.944752    0.590612    2.578241
     11          6           0        1.740349    2.307911   -0.373681
     12          1           0        0.102114    2.239560    1.060861
     13          6           0       -1.388857   -0.797332    0.395217
     14          1           0       -1.666860   -1.828439    0.163968
     15          6           0       -2.600692    0.074502    0.164781
     16          9           0       -3.067234   -0.011339   -1.081504
     17          9           0       -3.588061   -0.288177    1.000892
     18          9           0       -2.330329    1.372509    0.406224
     19          8           0        1.951396   -0.802854   -1.424530
     20          8           0        0.475713   -2.745914   -0.770825
     21          6           0        0.888524    2.889049   -1.496481
     22          1           0        2.308874    3.108015    0.120231
     23          1           0        2.473231    1.615342   -0.793018
     24          1           0        0.354892    2.096341   -2.023882
     25          1           0        1.507724    3.417399   -2.222691
     26          1           0        0.148722    3.593627   -1.108289
     27          1           0        0.247308    0.758961    0.051953
     28          1           0       -1.129427   -0.744915    1.457543
 ---------------------------------------------------------------------

 SCF Done:  E(UHF) =  -1248.36957802     A.U. after    2 cycles

 The electronic state is 2-A.
 Alpha  occ. eigenvalues --  -94.26388 -26.51574 -26.51533 -26.51320 -20.61776
 Alpha  occ. eigenvalues --  -20.56476 -20.56221 -15.59058 -11.52904 -11.32762
 Alpha  occ. eigenvalues --  -11.32410 -11.28009 -11.26947 -11.24640 -11.23083
 Alpha  occ. eigenvalues --   -8.50802  -6.48947  -6.48798  -6.48664  -1.72710
 Alpha  occ. eigenvalues --   -1.62721  -1.62394  -1.62283  -1.49764  -1.47239
 Alpha  occ. eigenvalues --   -1.29979  -1.13362  -1.07696  -1.04940  -0.97224
 Alpha  occ. eigenvalues --   -0.93462  -0.90310  -0.86123  -0.83213  -0.82595
 Alpha  occ. eigenvalues --   -0.81977  -0.79123  -0.78484  -0.75333  -0.72537
 Alpha  occ. eigenvalues --   -0.70490  -0.69671  -0.69256  -0.67960  -0.66105
 Alpha  occ. eigenvalues --   -0.65311  -0.64400  -0.63739  -0.63301  -0.62824
 Alpha  occ. eigenvalues --   -0.61127  -0.60329  -0.58559  -0.57070  -0.56367
 Alpha  occ. eigenvalues --   -0.54603  -0.53301  -0.53023  -0.51903  -0.50856
 Alpha  occ. eigenvalues --   -0.50285  -0.49731  -0.48923  -0.48319  -0.42701
 Alpha virt. eigenvalues --    0.02332   0.03160   0.03350   0.04208   0.05108
 Alpha virt. eigenvalues --    0.05625   0.06095   0.06504   0.07650   0.08267
 Alpha virt. eigenvalues --    0.08852   0.09029   0.09813   0.10478   0.11306

  Beta  occ. eigenvalues --  -94.26432 -26.51580 -26.51536 -26.51321 -20.61797
  Beta  occ. eigenvalues --  -20.56312 -20.56255 -15.56344 -11.52898 -11.32729
  Beta  occ. eigenvalues --  -11.32578 -11.27065 -11.26563 -11.24742 -11.23067
  Beta  occ. eigenvalues --   -8.50861  -6.48983  -6.48838  -6.48786  -1.72714
  Beta  occ. eigenvalues --   -1.62626  -1.62393  -1.62256  -1.49727  -1.47084
  Beta  occ. eigenvalues --   -1.23952  -1.11646  -1.07020  -1.04594  -0.95958
  Beta  occ. eigenvalues --   -0.93018  -0.88779  -0.85224  -0.82481  -0.82294
  Beta  occ. eigenvalues --   -0.81077  -0.78240  -0.75954  -0.73877  -0.70668
  Beta  occ. eigenvalues --   -0.70363  -0.69472  -0.67623  -0.66930  -0.65175
  Beta  occ. eigenvalues --   -0.64993  -0.64300  -0.62998  -0.62824  -0.62538
  Beta  occ. eigenvalues --   -0.60004  -0.59917  -0.57489  -0.56760  -0.55177
  Beta  occ. eigenvalues --   -0.53408  -0.52186  -0.51458  -0.50683  -0.50227
  Beta  occ. eigenvalues --   -0.49408  -0.49068  -0.48162  -0.46376
  Beta virt. eigenvalues --   -0.00196   0.02405   0.03171   0.03424   0.04214
  Beta virt. eigenvalues --    0.05114   0.05638   0.06099   0.06511   0.07685
  Beta virt. eigenvalues --    0.08298   0.08856   0.09049   0.09817   0.10502

 Mulliken charges and spin densities:
               1          2
     1  N    0.258837   0.771438
     2  S    4.057406  -0.061058
     3  O   -1.784894  -0.000794
     4  C    0.599790   0.009331
     5  C   -0.248179  -0.106788
     6  H   -0.032694  -0.000774
     7  H    0.251530  -0.002053
     8  C   -0.972496   0.786498
     9  H    0.192011   0.022138
    10  H    0.144828  -0.002773
    11  C   -0.307606  -0.112668
    12  H    0.112375  -0.050985
    13  C   -0.680668  -0.090228
    14  H    0.077490   0.028284
    15  C    2.926861   0.008019
    16  F   -0.807331   0.000759
    17  F   -0.788787  -0.000079
    18  F   -0.889249  -0.000460
    19  O   -1.518786  -0.005903
    20  O   -1.519573   0.022883
    21  C   -0.235015   0.004918
    22  H    0.155144   0.023801
    23  H    0.224598   0.006624
    24  H    0.189862   0.003275
    25  H    0.100559  -0.001099
    26  H    0.175720  -0.001247
    27  H    0.186423  -0.262137
    28  H    0.131846   0.011077
 Sum of Mulliken charges =  -0.00000   1.00000

 Dipole moment (field-independent basis, Debye):
    X=              1.8551    Y=              3.1811    Z=              4.4095  Tot=              5.7450
                          Isotropic Fermi Contact Couplings
        Atom                 a.u.       MegaHertz       Gauss      10(-4) cm-1
     1  N(14)              0.38201     123.43052      44.04308      41.17199
     2  S(33)             -0.05940     -20.40347      -7.28047      -6.80587
     3  O(17)             -0.00507       3.07188       1.09612       1.02467
     4  C(13)              0.00753       8.46968       3.02219       2.82518
     5  C(13)             -0.02153     -24.20614      -8.63735      -8.07430
     6  H(1)              -0.00050      -2.22073      -0.79241      -0.74076
     7  H(1)              -0.00028      -1.23389      -0.44028      -0.41158
     8  C(13)              0.15846     178.13847      63.56424      59.42060

 Normal termination of Gaussian 16 at Wed Apr  9 01:13:59 2025.
