 Gaussian 16, Revision C.01,

 ----------------------------------------------------------------------
 #t hf aug-cc-pvdz symm=none int=(grid=ultrafine) guess=(read,tcheck) s
 table=(opt,rrhf)
 ----------------------------------------------------------------------
 -----
 title
 -----
 Symbolic Z-matrix:
 Charge =  0 Multiplicity = 1

 SCF Done:  E(RHF) =  -679.002145294     A.U. after   14 cycles
 Normal termination of Gaussian 16 at Wed Apr  9 01:25:24 2025.
 Gaussian 16:  ES64L-G16RevC.01  3-Jul-2019

 ----------------------------------------------------------------------
 #t hf aug-cc-pvdz iop(5/13=1,5/36=2,99/5=2) pseudo=read geom=check gue
 ss=(read,tcheck) scf=(maxcycle=1)
 ----------------------------------------------------------------------
 -----
 title
 -----
 Structure from the checkpoint file:  "BH10_283_reverse_mol2.chk"
 Charge =  0 Multiplicity = 1

                         Standard orientation:
 ---------------------------------------------------------------------
 Center     Atomic      Atomic             Coordinates (Angstroms)
 Number     Number       Type             X           Y           Z
 ---------------------------------------------------------------------
      1          6           0       -1.423375    0.176396   -1.235980
      2          6           0       -0.607186   -0.363417    1.172000
      3          6           0       -2.770900    0.660153   -0.665494
      4          1           0       -2.731945    1.754266   -0.626435
      5          1           0       -3.582184    0.409750   -1.358598
      6          1           0        0.160111   -0.204320    1.934458
      7          1           0       -1.231404    0.721039   -2.166082
      8          6           0       -1.949988    0.154924    1.725615
      9          1           0       -1.790510    1.186292    2.059114
     10          1           0       -2.226187   -0.412352    2.621550
     11          5           0       -0.275578    0.325582   -0.189059
     12          6           0        0.858447    2.347761    0.077894
     13          6           0        1.119960    0.997687   -0.535100
     14          6           0        0.166461    3.315266   -0.512536
     15          1           0       -0.221773    3.209130   -1.519883
     16          1           0       -0.020690    4.255413   -0.009088
     17          6           0        2.263197    0.282439    0.106291
     18          8           0        2.706517    0.487201    1.206798
     19          8           0        2.723417   -0.698098   -0.693271
     20          6           0        3.777221   -1.498329   -0.151690
     21          1           0        3.445883   -1.999938    0.757750
     22          1           0        4.019985   -2.225055   -0.922468
     23          1           0        4.644907   -0.881150    0.080166
     24          6           0       -0.595783   -1.879485    0.820837
     25          1           0        0.438499   -2.165868    0.597624
     26          1           0       -0.883186   -2.457473    1.705582
     27          6           0       -1.370605   -1.341078   -1.578345
     28          1           0       -0.422362   -1.539746   -2.091745
     29          1           0       -2.159653   -1.576262   -2.300549
     30          6           0       -3.121122    0.134973    0.734182
     31          1           0       -3.523428   -0.875045    0.660359
     32          1           0       -3.936046    0.740833    1.141264
     33          6           0       -1.481325   -2.281818   -0.369026
     34          1           0       -1.206715   -3.292504   -0.685210
     35          1           0       -2.520459   -2.349149   -0.050346
     36          1           0        1.226591    2.472015    1.090902
     37          1           0        1.268969    1.056571   -1.613180
 ---------------------------------------------------------------------

 SCF Done:  E(RHF) =  -679.712939282     A.U. after    2 cycles

 The electronic state is 1-A.
 Alpha  occ. eigenvalues --  -20.58765 -20.52771 -11.38264 -11.29403 -11.25537
 Alpha  occ. eigenvalues --  -11.24040 -11.23076 -11.23025 -11.22894 -11.22316
 Alpha  occ. eigenvalues --  -11.22278 -11.22142 -11.21849 -11.20221 -11.19800
 Alpha  occ. eigenvalues --   -7.57871  -1.54434  -1.44753  -1.12538  -1.09851
 Alpha  occ. eigenvalues --   -1.04318  -1.02924  -1.00950  -0.94973  -0.92767
 Alpha  occ. eigenvalues --   -0.91421  -0.80191  -0.79654  -0.79142  -0.76713
 Alpha  occ. eigenvalues --   -0.75148  -0.71558  -0.68753  -0.68026  -0.67269
 Alpha  occ. eigenvalues --   -0.65095  -0.62895  -0.61149  -0.60408  -0.59784
 Alpha  occ. eigenvalues --   -0.59131  -0.58589  -0.57379  -0.56926  -0.55240
 Alpha  occ. eigenvalues --   -0.53866  -0.52705  -0.51330  -0.50896  -0.49133
 Alpha  occ. eigenvalues --   -0.48426  -0.48284  -0.47968  -0.46497  -0.45267
 Alpha  occ. eigenvalues --   -0.44354  -0.42807  -0.41519  -0.39376  -0.36675
 Alpha virt. eigenvalues --    0.02588   0.02893   0.03093   0.03499   0.04569
 Alpha virt. eigenvalues --    0.04817   0.04928   0.05202   0.05351   0.07074
 Alpha virt. eigenvalues --    0.07120   0.07544   0.07834   0.08186   0.08460

 Mulliken charges:
               1
     1  C   -0.308473
     2  C   -0.421237
     3  C   -0.260213
     4  H    0.163154
     5  H    0.091998
     6  H   -0.158165
     7  H   -0.205686
     8  C   -0.371933
     9  H    0.125172
    10  H    0.086714
    11  B    1.652551
    12  C    0.585208
    13  C   -0.593638
    14  C    0.070512
    15  H   -0.148288
    16  H   -0.182617
    17  C    2.794168
    18  O   -1.494000
    19  O   -1.622298
    20  C    0.167191
    21  H    0.180724
    22  H    0.001405
    23  H    0.152847
    24  C   -0.197341
    25  H    0.097904
    26  H    0.067897
    27  C   -0.318013
    28  H    0.205147
    29  H    0.034513
    30  C   -0.283654
    31  H    0.203691
    32  H    0.060805
    33  C   -0.222255
    34  H    0.057883
    35  H    0.217807
    36  H   -0.228610
    37  H   -0.000874
 Sum of Mulliken charges =   0.00000

 Dipole moment (field-independent basis, Debye):
    X=             -0.6269    Y=             -0.8543    Z=             -1.4642  Tot=              1.8074

 Test job not archived.
 1\1\GINC-SE227\SP\RHF\Aug-CC-pVDZ\C13H21B1O2\OHZDE\09-Apr-2025\0\\#t h
 f aug-cc-pvdz iop(5/13=1,5/36=2,99/5=2) pseudo=read geom=check guess=(
 read,tcheck) scf=(maxcycle=1)\\title\\0,1\C,0,-1.423375,0.176396,-1.23
 598\C,0,-0.607186,-0.363417,1.172\C,0,-2.7709,0.660153,-0.665494\H,0,-
 2.731945,1.754266,-0.626435\H,0,-3.582184,0.40975,-1.358598\H,0,0.1601
 11,-0.20432,1.934458\H,0,-1.231404,0.721039,-2.166082\C,0,-1.949988,0.
 154924,1.725615\H,0,-1.79051,1.186292,2.059114\H,0,-2.226187,-0.412352
 ,2.62155\B,0,-0.275578,0.325582,-0.189059\C,0,0.858447,2.347761,0.0778

 Normal termination of Gaussian 16 at Wed Apr  9 01:26:29 2025.
