 Gaussian 16, Revision C.01,

 ----------------------------------------------------------------------
 #t hf aug-cc-pvdz symm=none int=(grid=ultrafine) guess=(read,tcheck) s
 table=(opt,rrhf)
 ----------------------------------------------------------------------
 -----
 title
 -----
 Symbolic Z-matrix:
 Charge =  0 Multiplicity = 1

 SCF Done:  E(RHF) =  -678.977170926     A.U. after   15 cycles
 Normal termination of Gaussian 16 at Wed Apr  9 01:21:30 2025.
 Gaussian 16:  ES64L-G16RevC.01  3-Jul-2019

 ----------------------------------------------------------------------
 #t hf aug-cc-pvdz iop(5/13=1,5/36=2,99/5=2) pseudo=read geom=check gue
 ss=(read,tcheck) scf=(maxcycle=1)
 ----------------------------------------------------------------------
 -----
 title
 -----
 Structure from the checkpoint file:  "BH10_285_forward_mol1.chk"
 Charge =  0 Multiplicity = 1

                         Standard orientation:
 ---------------------------------------------------------------------
 Center     Atomic      Atomic             Coordinates (Angstroms)
 Number     Number       Type             X           Y           Z
 ---------------------------------------------------------------------
      1          6           0       -0.660181    0.075909    1.200444
      2          1           0        0.063964    0.401587    1.954411
      3          5           0       -0.123083    0.241195   -0.274226
      4          6           0       -1.944047    0.903890    1.383682
      5          1           0       -1.664588    1.962581    1.368792
      6          1           0       -2.370367    0.721053    2.376597
      7          6           0       -0.855888   -1.449134    1.395598
      8          1           0        0.137972   -1.909181    1.421986
      9          6           0        0.279684    2.284530   -0.812443
     10          1           0        0.546136    1.817213   -1.750663
     11          1           0       -0.593877    2.921056   -0.824003
     12          6           0        1.198542    2.420273    0.184960
     13          6           0        2.351497    1.602187    0.362716
     14          1           0        1.005259    3.159984    0.960243
     15          1           0       -1.303599   -1.643322    2.376700
     16          1           0        3.186252    1.919642    0.968514
     17          6           0        2.301485    0.305263   -0.050734
     18          8           0        1.229945   -0.254274   -0.559970
     19          8           0        3.359522   -0.488075    0.086219
     20          6           0        3.174352   -1.892836   -0.101846
     21          1           0        2.470061   -2.291311    0.629230
     22          1           0        2.812126   -2.104529   -1.106996
     23          1           0        4.156987   -2.332117    0.047798
     24          6           0       -1.689067   -2.150568    0.310480
     25          1           0       -1.540791   -3.231509    0.396368
     26          1           0       -2.749833   -1.989456    0.500098
     27          6           0       -1.213128   -0.186125   -1.329697
     28          1           0       -0.879016   -0.032360   -2.361269
     29          6           0       -1.351896   -1.717768   -1.124345
     30          1           0       -0.404928   -2.180345   -1.421019
     31          1           0       -2.113034   -2.110941   -1.807554
     32          6           0       -2.527111    0.588245   -1.125605
     33          1           0       -3.315075    0.154806   -1.752088
     34          1           0       -2.379170    1.605820   -1.498986
     35          6           0       -3.033232    0.662888    0.326037
     36          1           0       -3.775344    1.463944    0.397021
     37          1           0       -3.575507   -0.250329    0.570476
 ---------------------------------------------------------------------

 SCF Done:  E(RHF) =  -679.687842557     A.U. after    2 cycles

 The electronic state is 1-A.
 Alpha  occ. eigenvalues --  -20.59195 -20.56360 -11.38787 -11.30111 -11.28362
 Alpha  occ. eigenvalues --  -11.22107 -11.21786 -11.21640 -11.21409 -11.21390
 Alpha  occ. eigenvalues --  -11.21370 -11.21238 -11.21144 -11.19096 -11.18848
 Alpha  occ. eigenvalues --   -7.60283  -1.55829  -1.47435  -1.11228  -1.10604
 Alpha  occ. eigenvalues --   -1.03314  -1.02265  -1.01782  -0.94619  -0.92588
 Alpha  occ. eigenvalues --   -0.90571  -0.84457  -0.81392  -0.78699  -0.78137
 Alpha  occ. eigenvalues --   -0.74517  -0.72897  -0.68960  -0.68037  -0.66370
 Alpha  occ. eigenvalues --   -0.65936  -0.64164  -0.61564  -0.59577  -0.59558
 Alpha  occ. eigenvalues --   -0.58877  -0.57714  -0.57363  -0.56138  -0.54718
 Alpha  occ. eigenvalues --   -0.54228  -0.53020  -0.52597  -0.50047  -0.49931
 Alpha  occ. eigenvalues --   -0.49753  -0.47838  -0.47303  -0.46633  -0.45703
 Alpha  occ. eigenvalues --   -0.44149  -0.41854  -0.40576  -0.37988  -0.30117
 Alpha virt. eigenvalues --    0.02705   0.02977   0.03276   0.03439   0.04498
 Alpha virt. eigenvalues --    0.04801   0.05017   0.05127   0.05614   0.06740
 Alpha virt. eigenvalues --    0.07114   0.07699   0.07863   0.08199   0.08397

 Mulliken charges:
               1
     1  C   -0.354288
     2  H   -0.064246
     3  B    2.576139
     4  C   -0.297088
     5  H    0.174111
     6  H    0.072709
     7  C   -0.269852
     8  H    0.065770
     9  C   -0.172594
    10  H    0.071293
    11  H   -0.163649
    12  C    0.427108
    13  C    0.437402
    14  H   -0.213907
    15  H    0.104064
    16  H   -0.280145
    17  C    2.179048
    18  O   -2.838596
    19  O   -1.740920
    20  C    0.201321
    21  H    0.178262
    22  H    0.220487
    23  H   -0.056418
    24  C   -0.222612
    25  H    0.048017
    26  H    0.197720
    27  C   -0.414134
    28  H    0.056110
    29  C   -0.296950
    30  H    0.204819
    31  H    0.037966
    32  C   -0.140613
    33  H    0.104999
    34  H    0.173124
    35  C   -0.268016
    36  H    0.051137
    37  H    0.212422
 Sum of Mulliken charges =  -0.00000

 Dipole moment (field-independent basis, Debye):
    X=              0.6038    Y=             -0.6176    Z=              0.4047  Tot=              0.9538

 Test job not archived.
 1\1\GINC-SE126\SP\RHF\Aug-CC-pVDZ\C13H21B1O2\OHZDE\09-Apr-2025\0\\#t h
 f aug-cc-pvdz iop(5/13=1,5/36=2,99/5=2) pseudo=read geom=check guess=(
 read,tcheck) scf=(maxcycle=1)\\title\\0,1\C,0,-0.660181,0.075909,1.200
 444\H,0,0.063964,0.401587,1.954411\B,0,-0.123083,0.241195,-0.274226\C,
 0,-1.944047,0.90389,1.383682\H,0,-1.664588,1.962581,1.368792\H,0,-2.37
 0367,0.721053,2.376597\C,0,-0.855888,-1.449134,1.395598\H,0,0.137972,-
 1.909181,1.421986\C,0,0.279684,2.28453,-0.812443\H,0,0.546136,1.817213
 ,-1.750663\H,0,-0.593877,2.921056,-0.824003\C,0,1.198542,2.420273,0.18

 Normal termination of Gaussian 16 at Wed Apr  9 01:22:38 2025.
