 Gaussian 16, Revision C.01,

 ----------------------------------------------------------------------
 #t hf aug-cc-pvdz symm=none int=(grid=ultrafine) guess=(read,tcheck) s
 table=(opt,rrhf)
 ----------------------------------------------------------------------
 -----
 title
 -----
 Symbolic Z-matrix:
 Charge =  0 Multiplicity = 1

 SCF Done:  E(RHF) =  -857.120208537     A.U. after   14 cycles
 Normal termination of Gaussian 16 at Wed Apr  9 01:58:23 2025.
 Gaussian 16:  ES64L-G16RevC.01  3-Jul-2019

 ----------------------------------------------------------------------
 #t hf aug-cc-pvdz iop(5/13=1,5/36=2,99/5=2) pseudo=read geom=check gue
 ss=(read,tcheck) scf=(maxcycle=1)
 ----------------------------------------------------------------------
 -----
 title
 -----
 Structure from the checkpoint file:  "BH10_414_forward_mol2.chk"
 Charge =  0 Multiplicity = 1

                         Standard orientation:
 ---------------------------------------------------------------------
 Center     Atomic      Atomic             Coordinates (Angstroms)
 Number     Number       Type             X           Y           Z
 ---------------------------------------------------------------------
      1         16           0       -1.470938   -0.065274    0.045488
      2          6           0       -0.352048   -1.000131   -1.046312
      3          6           0        0.517046   -2.003734   -0.301876
      4          6           0        1.709145   -1.547968    0.495292
      5          6           0        1.568002    1.674601   -0.460294
      6          6           0        0.514745    1.842789    0.594243
      7          6           0       -0.903065    1.644915    0.062962
      8          6           0        2.502392   -0.487882    0.375161
      9          6           0        2.412060    0.653396   -0.558757
     10          8           0       -1.333764   -0.588640    1.403103
     11          8           0       -2.780993   -0.048542   -0.601086
     12          1           0       -1.047330   -1.520428   -1.705381
     13          1           0        0.211309   -0.282261   -1.636798
     14          1           0        0.881172   -2.721047   -1.047367
     15          1           0       -0.128223   -2.577998    0.365042
     16          1           0        0.575255    2.859828    0.990976
     17          1           0        0.683323    1.164075    1.432315
     18          1           0       -1.040254    2.025173   -0.950383
     19          1           0       -1.647317    2.116713    0.706959
     20          1           0        1.995439   -2.268441    1.256218
     21          1           0        3.369857   -0.457390    1.031925
     22          1           0        1.631202    2.468735   -1.200371
     23          1           0        3.158968    0.678965   -1.349587
 ---------------------------------------------------------------------

 SCF Done:  E(RHF) =  -857.660271784     A.U. after    2 cycles

 The electronic state is 1-A.
 Alpha  occ. eigenvalues --  -94.17500 -20.52394 -20.52217 -11.28569 -11.28251
 Alpha  occ. eigenvalues --  -11.26113 -11.26073 -11.25773 -11.25642 -11.25570
 Alpha  occ. eigenvalues --  -11.24955  -8.42934  -6.41029  -6.40815  -6.40761
 Alpha  occ. eigenvalues --   -1.53543  -1.41799  -1.14312  -1.10316  -1.08330
 Alpha  occ. eigenvalues --   -1.00981  -0.96873  -0.89318  -0.83686  -0.79049
 Alpha  occ. eigenvalues --   -0.72168  -0.70939  -0.68963  -0.67239  -0.66262
 Alpha  occ. eigenvalues --   -0.65563  -0.62658  -0.61799  -0.59366  -0.58513
 Alpha  occ. eigenvalues --   -0.58032  -0.54436  -0.53459  -0.52524  -0.49449
 Alpha  occ. eigenvalues --   -0.47487  -0.47316  -0.44632  -0.42406  -0.39683
 Alpha  occ. eigenvalues --   -0.36606
 Alpha virt. eigenvalues --    0.02556   0.02833   0.03185   0.03888   0.04851
 Alpha virt. eigenvalues --    0.05390   0.05617   0.06384   0.06722   0.08289
 Alpha virt. eigenvalues --    0.08547   0.09309   0.10530   0.11187   0.12087

 Mulliken charges:
               1
     1  S    3.918119
     2  C   -0.759441
     3  C   -0.594902
     4  C    0.337328
     5  C    0.584304
     6  C   -0.493056
     7  C   -0.909685
     8  C    0.302870
     9  C    0.215149
    10  O   -1.699014
    11  O   -1.691340
    12  H    0.182359
    13  H    0.250599
    14  H    0.234338
    15  H    0.216989
    16  H    0.176289
    17  H    0.215393
    18  H    0.188110
    19  H    0.205584
    20  H   -0.253198
    21  H   -0.205678
    22  H   -0.221629
    23  H   -0.199486
 Sum of Mulliken charges =  -0.00000

 Dipole moment (field-independent basis, Debye):
    X=              4.4293    Y=              1.3699    Z=             -2.0224  Tot=              5.0582

 Test job not archived.
 1\1\GINC-SE132\SP\RHF\Aug-CC-pVDZ\C8H12O2S1\OHZDE\09-Apr-2025\0\\#t hf
  aug-cc-pvdz iop(5/13=1,5/36=2,99/5=2) pseudo=read geom=check guess=(r
 ead,tcheck) scf=(maxcycle=1)\\title\\0,1\S,0,-1.470938,-0.065274,0.045
 488\C,0,-0.352048,-1.000131,-1.046312\C,0,0.517045,-2.003734,-0.301876
 \C,0,1.709145,-1.547968,0.495292\C,0,1.568002,1.674601,-0.460294\C,0,0
 .514745,1.842789,0.594243\C,0,-0.903065,1.644915,0.062962\C,0,2.502392
 ,-0.487883,0.375161\C,0,2.41206,0.653395,-0.558757\O,0,-1.333764,-0.58
 864,1.403103\O,0,-2.780993,-0.048541,-0.601086\H,0,-1.04733,-1.520428,

 Normal termination of Gaussian 16 at Wed Apr  9 01:58:42 2025.
