 Gaussian 16, Revision C.01,

 ----------------------------------------------------------------------
 #t hf aug-cc-pvdz symm=none int=(grid=ultrafine) guess=(read,tcheck) s
 table=(opt,rrhf)
 ----------------------------------------------------------------------
 -----
 title
 -----
 Symbolic Z-matrix:
 Charge =  0 Multiplicity = 1

 SCF Done:  E(RHF) =  -1125.21537607     A.U. after   15 cycles
 Normal termination of Gaussian 16 at Wed Apr  9 02:13:27 2025.
 Gaussian 16:  ES64L-G16RevC.01  3-Jul-2019

 ----------------------------------------------------------------------
 #t hf aug-cc-pvdz iop(5/13=1,5/36=2,99/5=2) pseudo=read geom=check gue
 ss=(read,tcheck) scf=(maxcycle=1)
 ----------------------------------------------------------------------
 -----
 title
 -----
 Structure from the checkpoint file:  "BH10_301_forward_mol1.chk"
 Charge =  0 Multiplicity = 1

                         Standard orientation:
 ---------------------------------------------------------------------
 Center     Atomic      Atomic             Coordinates (Angstroms)
 Number     Number       Type             X           Y           Z
 ---------------------------------------------------------------------
      1          6           0        1.673718    1.826226    0.076522
      2          6           0        0.938761    0.854742    1.033278
      3          6           0       -1.379889    1.449921   -0.924901
      4          1           0        2.730940    1.549870    0.051134
      5          6           0       -0.038307    1.590318    1.980383
      6          1           0       -0.667972    0.859506    2.499493
      7          1           0        0.558677    2.075856    2.760302
      8          1           0       -2.215128    1.463933   -1.630129
      9          1           0        1.701608    0.438729    1.687642
     10          6           0       -0.919443    2.665765    1.354004
     11          1           0       -1.475798    3.162477    2.155396
     12          1           0       -0.284381    3.442895    0.920670
     13          6           0       -1.921968    2.199002    0.305800
     14          1           0       -2.683026    1.587496    0.795313
     15          1           0       -2.450251    3.086145   -0.060891
     16          6           0       -0.261320    2.242496   -1.641470
     17          1           0       -0.414928    2.143317   -2.720839
     18          6           0        1.193003    1.854923   -1.373540
     19          1           0        1.377900    0.873047   -1.815002
     20          1           0        1.830949    2.546524   -1.933652
     21          1           0       -0.402705    3.307141   -1.424478
     22          1           0        1.655670    2.838138    0.492797
     23          6           0       -1.066830   -0.055568   -0.678523
     24          1           0       -0.839730   -0.473660   -1.672031
     25         14           0       -2.680925   -0.985033   -0.248910
     26          6           0       -3.236176   -0.861105    1.553565
     27          1           0       -2.402580   -0.810420    2.255099
     28          1           0       -3.859100    0.018576    1.725257
     29          1           0       -3.836227   -1.737458    1.814907
     30          6           0       -2.542998   -2.829672   -0.645763
     31          1           0       -3.550181   -3.255785   -0.655736
     32          1           0       -2.108502   -3.014036   -1.632118
     33          1           0       -1.971503   -3.396593    0.092247
     34          6           0       -4.084692   -0.338337   -1.324876
     35          1           0       -3.835659   -0.392371   -2.388146
     36          1           0       -4.982314   -0.942197   -1.165474
     37          1           0       -4.341215    0.697721   -1.095398
     38          5           0        0.205918   -0.355897    0.264425
     39          6           0        1.643333   -1.397009   -0.571471
     40          1           0        1.629088   -1.462605   -1.650811
     41          6           0        0.636693   -2.078745    0.118838
     42          1           0       -0.092224   -2.582630   -0.500403
     43          6           0        0.254590   -1.765441    1.423968
     44          1           0        0.991039   -1.491769    2.163692
     45          1           0       -0.664011   -2.203803    1.788720
     46          6           0        2.962165   -1.099541    0.003351
     47          8           0        3.292147   -1.208529    1.159300
     48          8           0        3.812323   -0.697194   -0.960753
     49          6           0        5.131246   -0.368366   -0.523291
     50          1           0        5.674842   -0.080957   -1.419382
     51          1           0        5.100711    0.458565    0.187161
     52          1           0        5.602290   -1.227584   -0.046346
 ---------------------------------------------------------------------

 SCF Done:  E(RHF) =  -1126.12832211     A.U. after    2 cycles

 The electronic state is 1-A.
 Alpha  occ. eigenvalues --  -69.50525 -20.58605 -20.52438 -11.38604 -11.30020
 Alpha  occ. eigenvalues --  -11.29248 -11.25252 -11.24571 -11.22385 -11.21381
 Alpha  occ. eigenvalues --  -11.21369 -11.21347 -11.21233 -11.21184 -11.21088
 Alpha  occ. eigenvalues --  -11.21075 -11.20470 -11.20289 -11.19669 -11.19143
 Alpha  occ. eigenvalues --   -7.60011  -6.17530  -3.92875  -3.92863  -3.92837
 Alpha  occ. eigenvalues --   -1.54311  -1.44554  -1.16373  -1.11174  -1.04409
 Alpha  occ. eigenvalues --   -1.03797  -1.01643  -0.98346  -0.94921  -0.94665
 Alpha  occ. eigenvalues --   -0.92898  -0.92353  -0.90933  -0.87799  -0.83556
 Alpha  occ. eigenvalues --   -0.79573  -0.78587  -0.76571  -0.72034  -0.70874
 Alpha  occ. eigenvalues --   -0.69122  -0.67994  -0.67020  -0.66584  -0.64570
 Alpha  occ. eigenvalues --   -0.62765  -0.62659  -0.60631  -0.60186  -0.59401
 Alpha  occ. eigenvalues --   -0.58208  -0.57881  -0.57561  -0.57133  -0.56604
 Alpha  occ. eigenvalues --   -0.55987  -0.55633  -0.54846  -0.54683  -0.54051
 Alpha  occ. eigenvalues --   -0.53524  -0.53464  -0.52710  -0.51309  -0.49265
 Alpha  occ. eigenvalues --   -0.48921  -0.47521  -0.46673  -0.45459  -0.45365
 Alpha  occ. eigenvalues --   -0.44899  -0.43992  -0.43701  -0.43376  -0.42265
 Alpha  occ. eigenvalues --   -0.41593  -0.40788  -0.38953  -0.34444
 Alpha virt. eigenvalues --    0.02258   0.02408   0.02651   0.03433   0.03993
 Alpha virt. eigenvalues --    0.04278   0.04461   0.04591   0.04751   0.06205
 Alpha virt. eigenvalues --    0.06486   0.06596   0.07161   0.07379   0.07414

 Mulliken charges:
               1
     1  C   -0.379790
     2  C   -0.070181
     3  C   -0.136308
     4  H   -0.183338
     5  C   -0.540573
     6  H    0.096916
     7  H    0.021754
     8  H    0.080063
     9  H   -0.084509
    10  C   -0.211208
    11  H    0.035176
    12  H    0.265060
    13  C   -0.221847
    14  H   -0.051197
    15  H    0.134925
    16  C   -0.665583
    17  H    0.071760
    18  C   -0.139988
    19  H    0.335897
    20  H   -0.043399
    21  H    0.141629
    22  H    0.123729
    23  C   -0.806378
    24  H   -0.042339
    25  Si   1.929029
    26  C   -0.341675
    27  H    0.041017
    28  H   -0.002911
    29  H   -0.156951
    30  C   -0.357045
    31  H   -0.315550
    32  H    0.003196
    33  H    0.043886
    34  C   -0.347913
    35  H   -0.036001
    36  H   -0.254059
    37  H    0.035829
    38  B    2.603236
    39  C   -0.071464
    40  H   -0.293415
    41  C    0.061431
    42  H   -0.188081
    43  C   -0.068332
    44  H   -0.030695
    45  H   -0.125874
    46  C    3.056835
    47  O   -1.628496
    48  O   -1.717685
    49  C    0.055792
    50  H    0.007046
    51  H    0.221184
    52  H    0.147395
 Sum of Mulliken charges =  -0.00000

 Dipole moment (field-independent basis, Debye):
    X=             -0.3438    Y=             -0.5779    Z=             -1.3862  Tot=              1.5407

 Test job not archived.
 1\1\GINC-SE412\SP\RHF\Aug-CC-pVDZ\C17H31B1O2Si1\OHZDE\09-Apr-2025\0\\#
 t hf aug-cc-pvdz iop(5/13=1,5/36=2,99/5=2) pseudo=read geom=check gues
 s=(read,tcheck) scf=(maxcycle=1)\\title\\0,1\C,0,1.673718,1.826226,0.0
 76522\C,0,0.938761,0.854742,1.033278\C,0,-1.379889,1.449921,-0.924901\
 H,0,2.73094,1.54987,0.051134\C,0,-0.038307,1.590318,1.980383\H,0,-0.66
 7972,0.859506,2.499493\H,0,0.558677,2.075856,2.760302\H,0,-2.215128,1.
 463933,-1.630129\H,0,1.701608,0.438729,1.687642\C,0,-0.919443,2.665765
 ,1.354004\H,0,-1.475798,3.162477,2.155396\H,0,-0.284381,3.442895,0.920

 Normal termination of Gaussian 16 at Wed Apr  9 02:16:21 2025.
