 Gaussian 16, Revision C.01,

 ----------------------------------------------------------------------
 #t hf aug-cc-pvdz symm=none int=(grid=ultrafine) guess=(read,tcheck) s
 table=opt
 ----------------------------------------------------------------------
 -----
 title
 -----
 Symbolic Z-matrix:
 Charge =  0 Multiplicity = 2

 SCF Done:  E(UHF) =  -709.194759039     A.U. after   19 cycles

 1\1\GINC-SE129\Stability\UHF\Aug-CC-pVDZ\C8H15S1\OHZDE\09-Apr-2025\0\\
 #t hf aug-cc-pvdz symm=none int=(grid=ultrafine) guess=(read,tcheck) s
 table=opt\\title\\0,2\C,0,0.041261,-0.194698,0.578741\C,0,-0.133108,1.
 272496,0.978692\C,0,-1.059886,1.884148,-0.080339\H,0,0.811322,1.806531
 ,1.089211\H,0,-0.618008,1.288399,1.96079\C,0,-1.896109,0.704195,-0.625
 885\H,0,-0.473406,2.331289,-0.88364\H,0,-1.681344,2.674406,0.343293\C,
 0,-1.407952,-0.553383,0.118568\H,0,-1.735045,0.584453,-1.69835\H,0,-2.
 967509,0.846401,-0.476927\C,0,-1.564762,-1.822846,-0.629641\S,0,1.1202

 Normal termination of Gaussian 16 at Wed Apr  9 00:59:01 2025.
 Gaussian 16:  ES64L-G16RevC.01  3-Jul-2019

 ----------------------------------------------------------------------
 #t hf aug-cc-pvdz iop(5/13=1,5/36=2,99/5=2) pseudo=read geom=check gue
 ss=(read,tcheck) scf=(maxcycle=1)
 ----------------------------------------------------------------------
 -----
 title
 -----
 Structure from the checkpoint file:  "BH10-RE_27_mol1.chk"
 Charge =  0 Multiplicity = 2

                         Standard orientation:
 ---------------------------------------------------------------------
 Center     Atomic      Atomic             Coordinates (Angstroms)
 Number     Number       Type             X           Y           Z
 ---------------------------------------------------------------------
      1          6           0        0.041261   -0.194698    0.578741
      2          6           0       -0.133108    1.272496    0.978692
      3          6           0       -1.059886    1.884148   -0.080339
      4          1           0        0.811322    1.806531    1.089211
      5          1           0       -0.618008    1.288399    1.960790
      6          6           0       -1.896109    0.704195   -0.625885
      7          1           0       -0.473405    2.331289   -0.883640
      8          1           0       -1.681343    2.674406    0.343293
      9          6           0       -1.407952   -0.553383    0.118568
     10          1           0       -1.735045    0.584453   -1.698350
     11          1           0       -2.967509    0.846402   -0.476927
     12          6           0       -1.564762   -1.822846   -0.629641
     13         16           0        1.120252   -0.381627   -0.912289
     14          6           0        0.534313   -1.081715    1.710406
     15          1           0        1.533227   -0.791628    2.041902
     16          1           0        0.573600   -2.126102    1.398825
     17          1           0       -0.135387   -0.998631    2.571822
     18          6           0        2.644614    0.445526   -0.391838
     19          1           0        2.511795    1.521218   -0.282377
     20          1           0        3.370162    0.267608   -1.185001
     21          1           0        3.038919    0.023928    0.532336
     22          1           0       -1.553914   -2.776240   -0.117458
     23          1           0       -1.584217   -1.829007   -1.711858
     24          1           0       -1.964458   -0.638937    1.061827
 ---------------------------------------------------------------------

 SCF Done:  E(UHF) =  -709.594582776     A.U. after    2 cycles

 The electronic state is 2-A.
 Alpha  occ. eigenvalues --  -93.92751 -11.26811 -11.25644 -11.23579 -11.23491
 Alpha  occ. eigenvalues --  -11.22806 -11.22640 -11.22200 -11.22139  -8.20861
 Alpha  occ. eigenvalues --   -6.18682  -6.18515  -6.18320  -1.15971  -1.05570
 Alpha  occ. eigenvalues --   -1.01976  -1.00177  -0.91492  -0.89091  -0.85868
 Alpha  occ. eigenvalues --   -0.77920  -0.72200  -0.65797  -0.64636  -0.61565
 Alpha  occ. eigenvalues --   -0.60982  -0.59528  -0.58819  -0.56542  -0.55290
 Alpha  occ. eigenvalues --   -0.53344  -0.50980  -0.49011  -0.48338  -0.48166
 Alpha  occ. eigenvalues --   -0.46596  -0.45860  -0.41582  -0.35332  -0.33482
 Alpha virt. eigenvalues --    0.03306   0.03396   0.03624   0.04181   0.05478
 Alpha virt. eigenvalues --    0.05618   0.05826   0.06003   0.06305   0.08587
 Alpha virt. eigenvalues --    0.08764   0.08949   0.09325   0.09596   0.10440

  Beta  occ. eigenvalues --  -93.92749 -11.26527 -11.25642 -11.23926 -11.22817
  Beta  occ. eigenvalues --  -11.22656 -11.22202 -11.22087 -11.21082  -8.20857
  Beta  occ. eigenvalues --   -6.18689  -6.18518  -6.18310  -1.15463  -1.05362
  Beta  occ. eigenvalues --   -1.00344  -0.99265  -0.90704  -0.87585  -0.83067
  Beta  occ. eigenvalues --   -0.77181  -0.71444  -0.65455  -0.64328  -0.60912
  Beta  occ. eigenvalues --   -0.60725  -0.58996  -0.58476  -0.56436  -0.54751
  Beta  occ. eigenvalues --   -0.53038  -0.50149  -0.48855  -0.48133  -0.47790
  Beta  occ. eigenvalues --   -0.45915  -0.44867  -0.41344  -0.33877
  Beta virt. eigenvalues --    0.03310   0.03417   0.03642   0.04174   0.05480
  Beta virt. eigenvalues --    0.05577   0.05747   0.05998   0.06228   0.08592
  Beta virt. eigenvalues --    0.08636   0.08937   0.09313   0.09454   0.10289

 Mulliken charges and spin densities:
               1          2
     1  C   -0.928353   0.018378
     2  C    0.011482   0.009836
     3  C   -0.143189  -0.005597
     4  H    0.031853   0.001251
     5  H    0.177996   0.000846
     6  C   -0.226022   0.028285
     7  H    0.148036  -0.000425
     8  H    0.110720  -0.000297
     9  C    0.388894  -0.269857
    10  H    0.118866  -0.005851
    11  H    0.098058  -0.000204
    12  C    0.128271   1.405480
    13  S    0.178519   0.005110
    14  C   -0.201272  -0.007951
    15  H    0.115908   0.001505
    16  H    0.211874   0.003084
    17  H    0.218927   0.001140
    18  C   -0.757701   0.000208
    19  H    0.165213   0.000495
    20  H    0.088163   0.000257
    21  H    0.157601  -0.000411
    22  H   -0.133069  -0.098266
    23  H   -0.107283  -0.100321
    24  H    0.146505   0.013307
 Sum of Mulliken charges =  -0.00000   1.00000

 Dipole moment (field-independent basis, Debye):
    X=              0.2467    Y=              0.8775    Z=              1.5303  Tot=              1.7812
                          Isotropic Fermi Contact Couplings
        Atom                 a.u.       MegaHertz       Gauss      10(-4) cm-1
     1  C(13)              0.05766      64.82530      23.13128      21.62339
     2  C(13)             -0.00324      -3.64773      -1.30160      -1.21675
     3  C(13)             -0.00164      -1.84804      -0.65943      -0.61644
     4  H(1)               0.00072       3.22662       1.15134       1.07628
     5  H(1)               0.00001       0.02476       0.00883       0.00826
     6  C(13)              0.00970      10.90277       3.89038       3.63677
     7  H(1)               0.00003       0.15525       0.05540       0.05179
     8  H(1)              -0.00001      -0.03725      -0.01329      -0.01243

 Normal termination of Gaussian 16 at Wed Apr  9 00:59:19 2025.
