 Gaussian 16, Revision C.01,

 ----------------------------------------------------------------------
 #t hf aug-cc-pvdz symm=none int=(grid=ultrafine) guess=(read,tcheck) s
 table=(opt,rrhf)
 ----------------------------------------------------------------------
 -----
 title
 -----
 Symbolic Z-matrix:
 Charge =  0 Multiplicity = 1

 SCF Done:  E(RHF) =  -727.020915621     A.U. after   15 cycles
 Normal termination of Gaussian 16 at Wed Apr  9 01:22:19 2025.
 Gaussian 16:  ES64L-G16RevC.01  3-Jul-2019

 ----------------------------------------------------------------------
 #t hf aug-cc-pvdz iop(5/13=1,5/36=2,99/5=2) pseudo=read geom=check gue
 ss=(read,tcheck) scf=(maxcycle=1)
 ----------------------------------------------------------------------
 -----
 title
 -----
 Structure from the checkpoint file:  "BH10_312_reverse_mol2.chk"
 Charge =  0 Multiplicity = 1

                         Standard orientation:
 ---------------------------------------------------------------------
 Center     Atomic      Atomic             Coordinates (Angstroms)
 Number     Number       Type             X           Y           Z
 ---------------------------------------------------------------------
      1          6           0       -2.353986   -1.255084   -0.000088
      2          6           0       -3.701673   -0.925444   -0.000035
      3          6           0       -4.089333    0.405805    0.000079
      4          6           0       -3.119335    1.402386    0.000139
      5          6           0       -1.775814    1.070685    0.000087
      6          6           0       -1.369494   -0.266343   -0.000027
      7          1           0       -2.054622   -2.297295   -0.000178
      8          1           0       -4.448693   -1.710027   -0.000083
      9          1           0       -5.140136    0.668739    0.000120
     10          1           0       -3.414914    2.444763    0.000226
     11          1           0       -1.035030    1.860310    0.000131
     12          6           0        0.043302   -0.676000   -0.000085
     13          6           0        1.116289    0.114501    0.000008
     14          1           0        1.001463    1.197822    0.000147
     15         15           0        2.811427   -0.555931   -0.000085
     16          6           0        3.517015    0.420719    1.404966
     17          1           0        3.313816    1.490610    1.310150
     18          1           0        3.094741    0.063661    2.345012
     19          1           0        4.597887    0.271477    1.443221
     20          6           0        3.516995    0.421063   -1.404907
     21          1           0        3.094706    0.064237   -2.345035
     22          1           0        3.313801    1.490931   -1.309825
     23          1           0        4.597866    0.271828   -1.443217
     24          1           0        0.203910   -1.751814   -0.000217
 ---------------------------------------------------------------------

 SCF Done:  E(RHF) =  -727.474063658     A.U. after    2 cycles

 The electronic state is 1-A.
 Alpha  occ. eigenvalues --  -84.26113 -11.25274 -11.25100 -11.24569 -11.24520
 Alpha  occ. eigenvalues --  -11.24455 -11.24426 -11.24401 -11.23520 -11.22917
 Alpha  occ. eigenvalues --  -11.22916  -6.73164  -4.25980  -4.25563  -4.25053
 Alpha  occ. eigenvalues --   -1.16743  -1.08367  -1.02584  -1.02228  -0.98326
 Alpha  occ. eigenvalues --   -0.93573  -0.86257  -0.83999  -0.78649  -0.72681
 Alpha  occ. eigenvalues --   -0.71815  -0.65579  -0.64916  -0.61765  -0.60362
 Alpha  occ. eigenvalues --   -0.59431  -0.58482  -0.56027  -0.55521  -0.55093
 Alpha  occ. eigenvalues --   -0.52710  -0.52428  -0.50332  -0.46402  -0.45312
 Alpha  occ. eigenvalues --   -0.41438  -0.35145  -0.31762  -0.31354
 Alpha virt. eigenvalues --    0.03176   0.03286   0.03873   0.04265   0.04367
 Alpha virt. eigenvalues --    0.04755   0.05938   0.06800   0.06927   0.07343
 Alpha virt. eigenvalues --    0.07879   0.07968   0.08641   0.09904   0.10211

 Mulliken charges:
               1
     1  C   -0.047505
     2  C    0.123320
     3  C   -0.035217
     4  C   -0.093463
     5  C    0.431895
     6  C    1.553932
     7  H   -0.319344
     8  H   -0.237922
     9  H   -0.227587
    10  H   -0.286993
    11  H   -0.251330
    12  C   -0.898744
    13  C    0.945620
    14  H   -0.370131
    15  P    0.897710
    16  C   -0.791747
    17  H    0.111655
    18  H    0.087513
    19  H    0.099801
    20  C   -0.791748
    21  H    0.087516
    22  H    0.111657
    23  H    0.099799
    24  H   -0.198686
 Sum of Mulliken charges =  -0.00000

 Dipole moment (field-independent basis, Debye):
    X=             -0.5112    Y=              0.9992    Z=              0.0001  Tot=              1.1224

 Test job not archived.
 1\1\GINC-SE036\SP\RHF\Aug-CC-pVDZ\C10H13P1\OHZDE\09-Apr-2025\0\\#t hf
 aug-cc-pvdz iop(5/13=1,5/36=2,99/5=2) pseudo=read geom=check guess=(re
 ad,tcheck) scf=(maxcycle=1)\\title\\0,1\C,0,-2.353986,-1.255084,-0.000
 088\C,0,-3.701673,-0.925444,-0.000035\C,0,-4.089333,0.405805,0.000079\
 C,0,-3.119335,1.402386,0.000139\C,0,-1.775814,1.070685,0.000087\C,0,-1
 .369494,-0.266343,-0.000027\H,0,-2.054622,-2.297295,-0.000178\H,0,-4.4
 48693,-1.710027,-0.000083\H,0,-5.140136,0.668739,0.00012\H,0,-3.414914
 ,2.444763,0.000226\H,0,-1.03503,1.86031,0.000131\C,0,0.043302,-0.676,-

 Normal termination of Gaussian 16 at Wed Apr  9 01:22:37 2025.
