 Gaussian 16, Revision C.01,

 ----------------------------------------------------------------------
 #t hf aug-cc-pvdz symm=none int=(grid=ultrafine) guess=(read,tcheck) s
 table=(opt,rrhf)
 ----------------------------------------------------------------------
 -----
 title
 -----
 Symbolic Z-matrix:
 Charge =  0 Multiplicity = 1

 SCF Done:  E(RHF) =  -782.662735839     A.U. after   13 cycles
 Normal termination of Gaussian 16 at Wed Apr  9 01:24:57 2025.
 Gaussian 16:  ES64L-G16RevC.01  3-Jul-2019

 ----------------------------------------------------------------------
 #t hf aug-cc-pvdz iop(5/13=1,5/36=2,99/5=2) pseudo=read geom=check gue
 ss=(read,tcheck) scf=(maxcycle=1)
 ----------------------------------------------------------------------
 -----
 title
 -----
 Structure from the checkpoint file:  "BH10_296_forward_mol2.chk"
 Charge =  0 Multiplicity = 1

                         Standard orientation:
 ---------------------------------------------------------------------
 Center     Atomic      Atomic             Coordinates (Angstroms)
 Number     Number       Type             X           Y           Z
 ---------------------------------------------------------------------
      1          6           0       -2.846573   -0.378033   -1.046103
      2          6           0       -1.689592    0.602844   -1.395594
      3          6           0       -0.447243   -0.689659    1.153509
      4          1           0       -3.311834   -0.708297   -1.978334
      5          6           0       -1.652218    1.833503   -0.461037
      6          1           0       -0.737010    2.406695   -0.646071
      7          1           0       -2.477284    2.495013   -0.748157
      8          1           0        0.163173   -1.174540    1.921928
      9          1           0       -1.895884    0.995284   -2.395199
     10          1           0        0.150691   -0.478964   -2.497344
     11          6           0       -1.782586    1.561863    1.034348
     12          1           0       -1.831691    2.525491    1.551356
     13          1           0       -2.744740    1.081091    1.230740
     14          6           0       -0.671646    0.739411    1.679014
     15          1           0        0.267132    1.298157    1.618958
     16          1           0       -0.899561    0.662995    2.747723
     17          6           0       -1.765778   -1.503198    1.087369
     18          1           0       -1.558221   -2.519485    1.436220
     19          6           0       -2.448339   -1.647363   -0.278891
     20          1           0       -1.800431   -2.250581   -0.925807
     21          1           0       -3.348317   -2.253671   -0.135539
     22          1           0       -2.476483   -1.087190    1.809106
     23          1           0       -3.629232    0.157954   -0.499743
     24          6           0        0.345176   -0.758860   -0.167207
     25          1           0        0.590660   -1.811232   -0.384904
     26         14           0        2.125498   -0.065482   -0.115067
     27          6           0        2.219639    1.765311   -0.543677
     28          1           0        1.682665    2.392609    0.170091
     29          1           0        3.262023    2.095720   -0.553645
     30          1           0        1.806330    1.962684   -1.536660
     31          6           0        3.148534   -1.010136   -1.375323
     32          1           0        4.176199   -0.638039   -1.398819
     33          1           0        3.187907   -2.076062   -1.136722
     34          1           0        2.734617   -0.909404   -2.380841
     35          6           0        2.859120   -0.340073    1.593335
     36          1           0        2.834873   -1.397803    1.867620
     37          1           0        3.903881   -0.017994    1.610805
     38          1           0        2.328300    0.216714    2.368036
     39          5           0       -0.349141   -0.220810   -1.436462
 ---------------------------------------------------------------------

 SCF Done:  E(RHF) =  -783.236703726     A.U. after    2 cycles

 The electronic state is 1-A.
 Alpha  occ. eigenvalues --  -69.50678 -11.22706 -11.22371 -11.22336 -11.22047
 Alpha  occ. eigenvalues --  -11.21950 -11.21878 -11.21758 -11.20544 -11.20437
 Alpha  occ. eigenvalues --  -11.20197 -11.19620 -11.18429  -7.56811  -6.17678
 Alpha  occ. eigenvalues --   -3.93021  -3.93010  -3.93004  -1.11948  -1.04742
 Alpha  occ. eigenvalues --   -1.04291  -0.98825  -0.95330  -0.92602  -0.92367
 Alpha  occ. eigenvalues --   -0.91479  -0.87932  -0.80148  -0.79391  -0.72049
 Alpha  occ. eigenvalues --   -0.67093  -0.65227  -0.63383  -0.62887  -0.60954
 Alpha  occ. eigenvalues --   -0.59044  -0.58138  -0.57921  -0.57150  -0.56471
 Alpha  occ. eigenvalues --   -0.55894  -0.55255  -0.54602  -0.53936  -0.53357
 Alpha  occ. eigenvalues --   -0.52809  -0.49967  -0.49477  -0.48378  -0.47189
 Alpha  occ. eigenvalues --   -0.45558  -0.45256  -0.44023  -0.43805  -0.42616
 Alpha  occ. eigenvalues --   -0.41813  -0.40666  -0.38936
 Alpha virt. eigenvalues --    0.02572   0.02644   0.02792   0.03404   0.04387
 Alpha virt. eigenvalues --    0.04776   0.04814   0.04956   0.05022   0.07122
 Alpha virt. eigenvalues --    0.07190   0.07351   0.07686   0.07739   0.08290

 Mulliken charges:
               1
     1  C   -0.438640
     2  C    0.365096
     3  C   -0.020060
     4  H    0.023477
     5  C   -0.379084
     6  H    0.148201
     7  H    0.070370
     8  H    0.067383
     9  H   -0.031058
    10  H    0.396213
    11  C   -0.243450
    12  H    0.009003
    13  H    0.277984
    14  C   -0.350171
    15  H    0.094128
    16  H    0.115191
    17  C   -0.496559
    18  H    0.072286
    19  C   -0.067043
    20  H    0.270193
    21  H   -0.005007
    22  H    0.153031
    23  H    0.149301
    24  C   -0.338139
    25  H    0.054157
    26  Si   2.413445
    27  C   -0.401321
    28  H   -0.010400
    29  H   -0.135257
    30  H    0.018132
    31  C   -0.607321
    32  H   -0.122969
    33  H   -0.012390
    34  H    0.014118
    35  C   -0.442293
    36  H   -0.028698
    37  H   -0.200475
    38  H    0.040457
    39  B   -0.421833
 Sum of Mulliken charges =   0.00000

 Dipole moment (field-independent basis, Debye):
    X=             -0.0762    Y=             -0.1388    Z=              0.5417  Tot=              0.5644

 Test job not archived.
 1\1\GINC-SE328\SP\RHF\Aug-CC-pVDZ\C12H25B1Si1\OHZDE\09-Apr-2025\0\\#t
 hf aug-cc-pvdz iop(5/13=1,5/36=2,99/5=2) pseudo=read geom=check guess=
 (read,tcheck) scf=(maxcycle=1)\\title\\0,1\C,0,-2.846573,-0.378033,-1.
 046103\C,0,-1.689592,0.602844,-1.395594\C,0,-0.447243,-0.689659,1.1535
 09\H,0,-3.311834,-0.708297,-1.978334\C,0,-1.652218,1.833503,-0.461037\
 H,0,-0.73701,2.406695,-0.646071\H,0,-2.477284,2.495013,-0.748157\H,0,0
 .163173,-1.17454,1.921928\H,0,-1.895884,0.995284,-2.395199\H,0,0.15069
 1,-0.478964,-2.497344\C,0,-1.782586,1.561863,1.034348\H,0,-1.831691,2.

 Normal termination of Gaussian 16 at Wed Apr  9 01:26:04 2025.
