 Gaussian 16, Revision C.01,

 ----------------------------------------------------------------------
 #t hf aug-cc-pvdz symm=none int=(grid=ultrafine) guess=(read,tcheck) s
 table=(opt,rrhf)
 ----------------------------------------------------------------------
 -----
 title
 -----
 Symbolic Z-matrix:
 Charge =  0 Multiplicity = 1

 SCF Done:  E(RHF) =  -743.126047851     A.U. after   16 cycles
 Normal termination of Gaussian 16 at Wed Apr  9 01:58:51 2025.
 Gaussian 16:  ES64L-G16RevC.01  3-Jul-2019

 ----------------------------------------------------------------------
 #t hf aug-cc-pvdz iop(5/13=1,5/36=2,99/5=2) pseudo=read geom=check gue
 ss=(read,tcheck) scf=(maxcycle=1)
 ----------------------------------------------------------------------
 -----
 title
 -----
 Structure from the checkpoint file:  "BH10_418_forward_mol1.chk"
 Charge =  0 Multiplicity = 1

                         Standard orientation:
 ---------------------------------------------------------------------
 Center     Atomic      Atomic             Coordinates (Angstroms)
 Number     Number       Type             X           Y           Z
 ---------------------------------------------------------------------
      1          6           0        0.662918    0.838661    1.741357
      2          6           0       -0.015770    2.081044    0.520303
      3          6           0       -0.077619    1.346659   -0.690552
      4          6           0       -1.048269    0.235060   -0.624014
      5          6           0       -0.432022   -0.882012    0.476665
      6          6           0        0.856064   -0.353805    0.989448
      7          6           0        1.130020    0.961253   -1.284425
      8          9           0       -1.221970   -0.417288   -1.793398
      9          9           0       -1.367941   -1.028622    1.442501
     10          6           0        1.830781   -0.313296   -0.002447
     11          6           0        3.002660   -0.784094   -0.355721
     12          9           0       -0.327299   -2.059432   -0.170060
     13          1           0        1.938126    1.684847   -1.275170
     14          9           0       -2.271157    0.598014   -0.176386
     15          1           0        3.495590   -0.474828   -1.268967
     16          1           0        3.507461   -1.513779    0.265917
     17          1           0        1.089098    0.331734   -2.165947
     18          1           0        1.569423    1.323001    2.087856
     19          1           0       -0.123977    0.802809    2.486663
     20          1           0        0.727470    2.871109    0.551331
     21          1           0       -0.960467    2.364237    0.970728
 ---------------------------------------------------------------------

 SCF Done:  E(RHF) =  -743.840129236     A.U. after    2 cycles

 The electronic state is 1-A.
 Alpha  occ. eigenvalues --  -26.48709 -26.48698 -26.48630 -26.48426 -11.43877
 Alpha  occ. eigenvalues --  -11.43774 -11.29118 -11.27861 -11.27668 -11.27611
 Alpha  occ. eigenvalues --  -11.26689 -11.26367 -11.26228  -1.67004  -1.64655
 Alpha  occ. eigenvalues --   -1.59645  -1.58068  -1.19277  -1.09939  -1.05300
 Alpha  occ. eigenvalues --   -1.00520  -0.95868  -0.90252  -0.87357  -0.82546
 Alpha  occ. eigenvalues --   -0.79789  -0.77814  -0.76889  -0.74187  -0.73326
 Alpha  occ. eigenvalues --   -0.69112  -0.67796  -0.66312  -0.65822  -0.64620
 Alpha  occ. eigenvalues --   -0.64038  -0.63025  -0.61508  -0.60731  -0.60228
 Alpha  occ. eigenvalues --   -0.59718  -0.59185  -0.56484  -0.55812  -0.52903
 Alpha  occ. eigenvalues --   -0.47051  -0.41731  -0.40454  -0.33047
 Alpha virt. eigenvalues --    0.02126   0.02715   0.03452   0.04028   0.04670
 Alpha virt. eigenvalues --    0.05610   0.06072   0.06462   0.07200   0.08726
 Alpha virt. eigenvalues --    0.10027   0.10573   0.10888   0.11521   0.12285

 Mulliken charges:
               1
     1  C   -0.113673
     2  C   -0.064305
     3  C   -0.247979
     4  C    2.246072
     5  C    2.396619
     6  C   -1.269667
     7  C   -0.045851
     8  F   -0.977647
     9  F   -0.963057
    10  C    0.952389
    11  C    0.209802
    12  F   -0.998882
    13  H   -0.012099
    14  F   -0.990695
    15  H   -0.171001
    16  H   -0.100761
    17  H    0.023295
    18  H    0.024290
    19  H    0.057438
    20  H    0.016957
    21  H    0.028755
 Sum of Mulliken charges =  -0.00000

 Dipole moment (field-independent basis, Debye):
    X=              3.5821    Y=              2.7295    Z=              0.6263  Tot=              4.5469

 Test job not archived.
 1\1\GINC-SE184\SP\RHF\Aug-CC-pVDZ\C9H8F4\OHZDE\09-Apr-2025\0\\#t hf au
 g-cc-pvdz iop(5/13=1,5/36=2,99/5=2) pseudo=read geom=check guess=(read
 ,tcheck) scf=(maxcycle=1)\\title\\0,1\C,0,0.662918,0.838661,1.741357\C
 ,0,-0.01577,2.081044,0.520303\C,0,-0.077619,1.346659,-0.690552\C,0,-1.
 048269,0.23506,-0.624014\C,0,-0.432022,-0.882012,0.476665\C,0,0.856064
 ,-0.353805,0.989448\C,0,1.13002,0.961253,-1.284425\F,0,-1.22197,-0.417
 288,-1.793398\F,0,-1.367941,-1.028622,1.442501\C,0,1.830781,-0.313296,
 -0.002447\C,0,3.00266,-0.784094,-0.355721\F,0,-0.327299,-2.059432,-0.1

 Normal termination of Gaussian 16 at Wed Apr  9 01:59:57 2025.
