 Gaussian 16, Revision C.01,

 ----------------------------------------------------------------------
 #t hf aug-cc-pvdz symm=none int=(grid=ultrafine) guess=(read,tcheck) s
 table=(opt,rrhf)
 ----------------------------------------------------------------------
 -----
 title
 -----
 Symbolic Z-matrix:
 Charge = -1 Multiplicity = 1

 SCF Done:  E(RHF) =  -1782.80676287     A.U. after   14 cycles
 Normal termination of Gaussian 16 at Wed Apr  9 01:59:38 2025.
 Gaussian 16:  ES64L-G16RevC.01  3-Jul-2019

 ----------------------------------------------------------------------
 #t hf aug-cc-pvdz iop(5/13=1,5/36=2,99/5=2) pseudo=read geom=check gue
 ss=(read,tcheck) scf=(maxcycle=1)
 ----------------------------------------------------------------------
 -----
 title
 -----
 Structure from the checkpoint file:  "BH10_328_forward_mol1.chk"
 Charge = -1 Multiplicity = 1

                         Standard orientation:
 ---------------------------------------------------------------------
 Center     Atomic      Atomic             Coordinates (Angstroms)
 Number     Number       Type             X           Y           Z
 ---------------------------------------------------------------------
      1          8           0       -0.449628   -1.501434   -1.351727
      2          6           0       -2.245193   -1.329613   -1.281172
      3          1           0       -2.297164   -0.278925   -1.489639
      4          1           0       -2.450135   -2.013999   -2.083825
      5          1           0       -2.384092   -1.689119   -0.278821
      6         15           0        0.311731   -0.642631   -0.346310
      7          8           0        0.031924    0.847407   -0.362180
      8          8           0        0.115780   -1.182519    1.146909
      9          8           0        1.861784   -0.934361   -0.627455
     10          6           0        2.848307   -0.289981    0.173890
     11          6           0        3.643723    0.763154   -0.604131
     12          8           0        4.944338    0.753955   -0.003451
     13          6           0        5.092729   -0.347809    0.902278
     14          6           0        3.922220   -1.271202    0.602370
     15          1           0        4.150363   -1.927269   -0.242239
     16          1           0        3.620437   -1.884263    1.451574
     17          1           0        2.374521    0.165089    1.048428
     18         16           0       -4.818304   -0.973992   -1.056276
     19          6           0       -4.951467   -0.648410    0.739142
     20          6           0       -4.420036    0.730481    1.188127
     21          1           0       -4.425258   -1.412701    1.313286
     22          1           0       -6.006022   -0.689980    1.019434
     23          7           0       -5.084232    1.789892    0.457870
     24          6           0       -2.901813    0.715481    1.107041
     25          1           0       -4.637487    0.824908    2.259900
     26          8           0       -2.243096   -0.088368    1.756616
     27          8           0       -2.364339    1.604758    0.305827
     28          1           0       -1.390661    1.406617    0.144014
     29          1           0       -0.695890   -0.781954    1.544716
     30          1           0       -5.181274    1.470854   -0.506345
     31          1           0       -4.515298    2.627090    0.440044
     32          6           0        3.106731    2.188907   -0.561216
     33          1           0        3.713395    0.443337   -1.649902
     34          8           0        2.020155    2.402064   -1.422325
     35          1           0        3.912231    2.851855   -0.884095
     36          1           0        2.863128    2.447915    0.479405
     37          1           0        1.238320    1.921943   -1.085330
     38          6           0        6.463710   -0.960958    0.721009
     39          1           0        5.003498    0.042701    1.925295
     40          1           0        6.611465   -1.784561    1.424654
     41          1           0        7.240856   -0.214326    0.893841
     42          1           0        6.572792   -1.343418   -0.296157
 ---------------------------------------------------------------------

 SCF Done:  E(RHF) =  -1783.97174049     A.U. after    2 cycles

 The electronic state is 1-A.
 Alpha  occ. eigenvalues --  -93.72742 -84.33908 -20.47994 -20.47562 -20.46464
 Alpha  occ. eigenvalues --  -20.45928 -20.43027 -20.42913 -20.42638 -20.40807
 Alpha  occ. eigenvalues --  -15.36562 -11.28510 -11.21905 -11.21789 -11.21523
 Alpha  occ. eigenvalues --  -11.19874 -11.18736 -11.16353 -11.16113 -11.15909
 Alpha  occ. eigenvalues --  -11.12718  -8.00830  -6.78689  -5.98703  -5.98432
 Alpha  occ. eigenvalues --   -5.98395  -4.32797  -4.32555  -4.32294  -1.44222
 Alpha  occ. eigenvalues --   -1.43566  -1.38641  -1.36156  -1.34335  -1.33716
 Alpha  occ. eigenvalues --   -1.31198  -1.27893  -1.07904  -1.00333  -0.97529
 Alpha  occ. eigenvalues --   -0.90984  -0.88628  -0.85734  -0.81655  -0.80459
 Alpha  occ. eigenvalues --   -0.74333  -0.73685  -0.71928  -0.70440  -0.65180
 Alpha  occ. eigenvalues --   -0.64139  -0.63125  -0.61068  -0.60385  -0.59199
 Alpha  occ. eigenvalues --   -0.58308  -0.57912  -0.57151  -0.55188  -0.54417
 Alpha  occ. eigenvalues --   -0.53095  -0.51918  -0.51163  -0.50944  -0.50124
 Alpha  occ. eigenvalues --   -0.49356  -0.48853  -0.48167  -0.47698  -0.46939
 Alpha  occ. eigenvalues --   -0.46046  -0.45788  -0.44753  -0.44154  -0.43275
 Alpha  occ. eigenvalues --   -0.42736  -0.42038  -0.40691  -0.39914  -0.39239
 Alpha  occ. eigenvalues --   -0.37821  -0.37380  -0.36228  -0.35974  -0.35076
 Alpha  occ. eigenvalues --   -0.34648  -0.33736  -0.31868  -0.31799  -0.29674
 Alpha  occ. eigenvalues --   -0.17347  -0.16950
 Alpha virt. eigenvalues --    0.08819   0.09719   0.09853   0.11502   0.12007
 Alpha virt. eigenvalues --    0.12104   0.12673   0.13010   0.13189   0.13528
 Alpha virt. eigenvalues --    0.13946   0.13980   0.14907   0.15106   0.16147

 Mulliken charges:
               1
     1  O   -1.839258
     2  C   -0.092088
     3  H    0.342165
     4  H   -0.044498
     5  H    0.259421
     6  P    4.875500
     7  O   -2.094746
     8  O   -1.656270
     9  O   -1.934159
    10  C    0.830650
    11  C    0.805030
    12  O   -1.634047
    13  C    0.586712
    14  C   -0.491371
    15  H    0.120215
    16  H    0.189620
    17  H    0.026981
    18  S   -0.386290
    19  C   -0.187479
    20  C   -2.150394
    21  H    0.106152
    22  H    0.116734
    23  N    0.782340
    24  C    2.887007
    25  H    0.238329
    26  O   -1.677403
    27  O   -1.820677
    28  H    0.765347
    29  H    0.740541
    30  H    0.369791
    31  H    0.207595
    32  C    0.825394
    33  H    0.089803
    34  O   -1.314528
    35  H    0.081823
    36  H    0.199639
    37  H    0.633242
    38  C   -0.409272
    39  H    0.068123
    40  H    0.215297
    41  H    0.163532
    42  H    0.205497
 Sum of Mulliken charges =  -1.00000

 Dipole moment (field-independent basis, Debye):
    X=             12.2361    Y=             -0.4732    Z=              4.5485  Tot=             13.0627

 Test job not archived.
 1\1\GINC-SE461\SP\RHF\Aug-CC-pVDZ\C10H21N1O8P1S1(1-)\OHZDE\09-Apr-2025
 \0\\#t hf aug-cc-pvdz iop(5/13=1,5/36=2,99/5=2) pseudo=read geom=check
  guess=(read,tcheck) scf=(maxcycle=1)\\title\\-1,1\O,0,-0.449628,-1.50
 1434,-1.351727\C,0,-2.245193,-1.329613,-1.281172\H,0,-2.297164,-0.2789
 25,-1.489639\H,0,-2.450135,-2.013999,-2.083825\H,0,-2.384092,-1.689119
 ,-0.278821\P,0,0.311731,-0.642631,-0.34631\O,0,0.031924,0.847407,-0.36
 218\O,0,0.11578,-1.182519,1.146909\O,0,1.861784,-0.934361,-0.627455\C,
 0,2.848307,-0.289981,0.17389\C,0,3.643723,0.763154,-0.604131\O,0,4.944

 Normal termination of Gaussian 16 at Wed Apr  9 02:01:06 2025.
