 Gaussian 16, Revision C.01,

 ----------------------------------------------------------------------
 #t hf aug-cc-pvdz symm=none int=(grid=ultrafine) guess=(read,tcheck) s
 table=(opt,rrhf)
 ----------------------------------------------------------------------
 -----
 title
 -----
 Symbolic Z-matrix:
 Charge =  1 Multiplicity = 1

 SCF Done:  E(RHF) =  -1297.14580247     A.U. after   17 cycles
 Normal termination of Gaussian 16 at Wed Apr  9 02:12:02 2025.
 Gaussian 16:  ES64L-G16RevC.01  3-Jul-2019

 ----------------------------------------------------------------------
 #t hf aug-cc-pvdz iop(5/13=1,5/36=2,99/5=2) pseudo=read geom=check gue
 ss=(read,tcheck) scf=(maxcycle=1)
 ----------------------------------------------------------------------
 -----
 title
 -----
 Structure from the checkpoint file:  "BH10_330_forward_mol1.chk"
 Charge =  1 Multiplicity = 1

                         Standard orientation:
 ---------------------------------------------------------------------
 Center     Atomic      Atomic             Coordinates (Angstroms)
 Number     Number       Type             X           Y           Z
 ---------------------------------------------------------------------
      1          6           0       -0.864787   -1.593375   -0.791594
      2          6           0       -1.700986   -0.618360   -0.241376
      3          6           0       -2.984266   -0.980126    0.155651
      4          6           0       -3.424949   -2.289443    0.012996
      5          6           0       -2.558264   -3.240348   -0.541251
      6          6           0       -1.279911   -2.906120   -0.952449
      7          1           0       -3.648982   -0.235784    0.577976
      8          1           0       -2.901252   -4.261491   -0.660106
      9          1           0       -0.632856   -3.652448   -1.396668
     10          6           0       -1.056218    0.692352   -0.168020
     11          6           0       -1.579946    1.890731    0.313195
     12          6           0        0.243945    0.648671   -0.657811
     13          6           0       -0.767356    3.018428    0.296055
     14          1           0       -2.592902    1.932505    0.683395
     15          6           0        1.070127    1.773366   -0.650406
     16          6           0        0.554879    2.962108   -0.177207
     17          1           0        1.134722    3.872848   -0.152409
     18         16           0        0.715584   -0.939873   -1.242796
     19          8           0        2.331575    1.582772   -1.099474
     20          8           0       -1.151691    4.232611    0.725582
     21          6           0       -4.813588   -2.688751    0.425662
     22          1           0       -5.324394   -1.878089    0.944569
     23          1           0       -5.413047   -2.958984   -0.446771
     24          1           0       -4.792439   -3.556167    1.088022
     25          6           0        3.168692    2.724699   -1.260829
     26          1           0        3.374155    3.196950   -0.297507
     27          1           0        2.708594    3.446112   -1.938754
     28          1           0        4.094712    2.357166   -1.694447
     29          6           0       -2.475226    4.404788    1.210686
     30          1           0       -2.653390    3.784061    2.092638
     31          1           0       -2.556402    5.453107    1.483883
     32          1           0       -3.209355    4.172612    0.435087
     33          6           0        2.199466   -1.552156    0.523830
     34          1           0        2.378615   -2.479415    0.007056
     35          1           0        2.782117   -0.697070    0.219320
     36          6           0        1.245407   -1.467176    1.670321
     37          1           0        1.780881   -1.510838    2.618775
     38          1           0        0.708066   -0.518211    1.656881
     39          1           0        0.524207   -2.282649    1.652091
     40          7           0        4.037933   -2.120721    1.614405
     41          1           0        4.258255   -1.380742    2.274408
     42          1           0        3.852062   -2.958967    2.157208
     43          6           0        5.142347   -2.333727    0.671287
     44          1           0        6.078813   -2.600421    1.165592
     45          1           0        5.302347   -1.423542    0.092622
     46          1           0        4.877323   -3.133957   -0.020264
 ---------------------------------------------------------------------

 SCF Done:  E(RHF) =  -1298.13044786     A.U. after    2 cycles

 The electronic state is 1-A.
 Alpha  occ. eigenvalues --  -94.11138 -20.69071 -20.66920 -15.64722 -11.47979
 Alpha  occ. eigenvalues --  -11.42975 -11.42039 -11.39661 -11.38558 -11.38549
 Alpha  occ. eigenvalues --  -11.38030 -11.37513 -11.37279 -11.37205 -11.36559
 Alpha  occ. eigenvalues --  -11.36083 -11.35479 -11.34838 -11.34692 -11.33844
 Alpha  occ. eigenvalues --  -11.33815 -11.32272  -8.39168  -6.36917  -6.36845
 Alpha  occ. eigenvalues --   -6.36650  -1.61852  -1.60141  -1.33263  -1.32832
 Alpha  occ. eigenvalues --   -1.26262  -1.22481  -1.18836  -1.16644  -1.14764
 Alpha  occ. eigenvalues --   -1.11087  -1.10527  -1.05914  -1.04863  -1.04280
 Alpha  occ. eigenvalues --   -1.02973  -0.99987  -0.97383  -0.92975  -0.91447
 Alpha  occ. eigenvalues --   -0.90353  -0.85527  -0.83859  -0.82355  -0.80560
 Alpha  occ. eigenvalues --   -0.79133  -0.78481  -0.77830  -0.77210  -0.76906
 Alpha  occ. eigenvalues --   -0.75406  -0.75070  -0.75051  -0.74190  -0.72609
 Alpha  occ. eigenvalues --   -0.72134  -0.71036  -0.70910  -0.68510  -0.68086
 Alpha  occ. eigenvalues --   -0.67404  -0.67107  -0.66605  -0.66372  -0.65113
 Alpha  occ. eigenvalues --   -0.64368  -0.63206  -0.62892  -0.61699  -0.61220
 Alpha  occ. eigenvalues --   -0.60815  -0.60285  -0.59135  -0.58100  -0.56810
 Alpha  occ. eigenvalues --   -0.53888  -0.48406  -0.44716  -0.41743  -0.40832
 Alpha virt. eigenvalues --   -0.06954  -0.05675  -0.05293  -0.04792  -0.04105
 Alpha virt. eigenvalues --   -0.03667  -0.03361  -0.03250  -0.02968  -0.02492
 Alpha virt. eigenvalues --   -0.02466  -0.01981  -0.01593  -0.01267  -0.01096

 Mulliken charges:
               1
     1  C   -0.423580
     2  C   -1.198379
     3  C    0.814885
     4  C    0.298995
     5  C    0.773074
     6  C   -0.015353
     7  H   -0.208095
     8  H   -0.344000
     9  H   -0.311927
    10  C    0.722650
    11  C    0.719347
    12  C   -0.260964
    13  C    1.454929
    14  H   -0.319818
    15  C    1.540082
    16  C    0.285858
    17  H   -0.477777
    18  S    0.043070
    19  O   -2.096032
    20  O   -2.025967
    21  C   -0.522412
    22  H    0.025098
    23  H    0.295422
    24  H    0.231987
    25  C    0.188018
    26  H    0.192112
    27  H    0.204398
    28  H   -0.039458
    29  C    0.169426
    30  H    0.193814
    31  H   -0.065601
    32  H    0.209580
    33  C    0.467391
    34  H   -0.021589
    35  H    0.061573
    36  C   -0.482986
    37  H    0.093851
    38  H    0.253011
    39  H    0.246868
    40  N    0.050696
    41  H    0.180743
    42  H    0.182153
    43  C   -0.322707
    44  H    0.078564
    45  H    0.076455
    46  H    0.082593
 Sum of Mulliken charges =   1.00000

 Dipole moment (field-independent basis, Debye):
    X=              5.7814    Y=             -3.8947    Z=              3.5980  Tot=              7.8446

 Test job not archived.
 1\1\GINC-SE252\SP\RHF\Aug-CC-pVDZ\C18H24N1O2S1(1+)\OHZDE\09-Apr-2025\0
 \\#t hf aug-cc-pvdz iop(5/13=1,5/36=2,99/5=2) pseudo=read geom=check g
 uess=(read,tcheck) scf=(maxcycle=1)\\title\\1,1\C,0,-0.864787,-1.59337
 5,-0.791594\C,0,-1.700986,-0.61836,-0.241376\C,0,-2.984266,-0.980127,0
 .155651\C,0,-3.424948,-2.289444,0.012996\C,0,-2.558263,-3.240349,-0.54
 1251\C,0,-1.27991,-2.90612,-0.952449\H,0,-3.648982,-0.235785,0.577976\
 H,0,-2.901251,-4.261492,-0.660106\H,0,-0.632855,-3.652448,-1.396668\C,
 0,-1.056218,0.692352,-0.16802\C,0,-1.579946,1.890731,0.313195\C,0,0.24

 Normal termination of Gaussian 16 at Wed Apr  9 02:14:01 2025.
