 Gaussian 16, Revision C.01,

 ----------------------------------------------------------------------
 #t hf aug-cc-pvdz symm=none int=(grid=ultrafine) guess=(read,tcheck) s
 table=(opt,rrhf)
 ----------------------------------------------------------------------
 -----
 title
 -----
 Symbolic Z-matrix:
 Charge =  0 Multiplicity = 1

 SCF Done:  E(RHF) =  -679.010147894     A.U. after   15 cycles
 Normal termination of Gaussian 16 at Wed Apr  9 01:22:28 2025.
 Gaussian 16:  ES64L-G16RevC.01  3-Jul-2019

 ----------------------------------------------------------------------
 #t hf aug-cc-pvdz iop(5/13=1,5/36=2,99/5=2) pseudo=read geom=check gue
 ss=(read,tcheck) scf=(maxcycle=1)
 ----------------------------------------------------------------------
 -----
 title
 -----
 Structure from the checkpoint file:  "BH10_285_reverse_mol2.chk"
 Charge =  0 Multiplicity = 1

                         Standard orientation:
 ---------------------------------------------------------------------
 Center     Atomic      Atomic             Coordinates (Angstroms)
 Number     Number       Type             X           Y           Z
 ---------------------------------------------------------------------
      1          6           0       -0.805876    0.213597    1.198498
      2          1           0       -0.179997    0.657042    1.985749
      3          5           0       -0.231574    0.513426   -0.273739
      4          6           0       -2.187233    0.894902    1.294687
      5          1           0       -2.032905    1.979605    1.283937
      6          1           0       -2.651516    0.672996    2.263323
      7          6           0       -0.851542   -1.303278    1.460698
      8          1           0        0.180089   -1.662547    1.547605
      9          6           0        0.180178    2.047907   -0.604795
     10          6           0        1.446354    2.474837    0.048738
     11          6           0        2.452712    1.632107    0.318625
     12          1           0       -1.319004   -1.507262    2.432028
     13          6           0        2.293619    0.231535   -0.001256
     14          8           0        1.231744   -0.299638   -0.355187
     15          8           0        3.381338   -0.500086    0.106845
     16          6           0        3.253031   -1.904811   -0.174815
     17          1           0        2.524514   -2.355274    0.497370
     18          1           0        2.935358   -2.051409   -1.205932
     19          1           0        4.242797   -2.319710   -0.010934
     20          6           0       -1.567898   -2.132260    0.382561
     21          1           0       -1.314060   -3.188695    0.520915
     22          1           0       -2.645186   -2.075529    0.539828
     23          6           0       -1.192090   -0.210768   -1.327064
     24          1           0       -0.831842   -0.071488   -2.355637
     25          6           0       -1.238152   -1.726625   -1.063320
     26          1           0       -0.257180   -2.137638   -1.324578
     27          1           0       -1.956478   -2.210055   -1.737202
     28          6           0       -2.566194    0.483721   -1.235027
     29          1           0       -3.282023    0.005705   -1.914739
     30          1           0       -2.450814    1.510978   -1.600247
     31          6           0       -3.177494    0.529027    0.175570
     32          1           0       -4.000253    1.251399    0.182152
     33          1           0       -3.639102   -0.432417    0.400492
     34          1           0        0.323642    2.173009   -1.689618
     35          1           0       -0.615589    2.748555   -0.343612
     36          1           0        1.589945    3.523194    0.300651
     37          1           0        3.396312    1.940857    0.745273
 ---------------------------------------------------------------------

 SCF Done:  E(RHF) =  -679.720933088     A.U. after    2 cycles

 The electronic state is 1-A.
 Alpha  occ. eigenvalues --  -20.62488 -20.58004 -11.42796 -11.31803 -11.29098
 Alpha  occ. eigenvalues --  -11.25191 -11.19954 -11.19886 -11.19774 -11.19761
 Alpha  occ. eigenvalues --  -11.19742 -11.19683 -11.19440 -11.16758 -11.16463
 Alpha  occ. eigenvalues --   -7.53557  -1.59336  -1.49792  -1.12031  -1.09229
 Alpha  occ. eigenvalues --   -1.02558  -1.01593  -0.99953  -0.95598  -0.90467
 Alpha  occ. eigenvalues --   -0.88779  -0.85641  -0.82314  -0.77268  -0.76156
 Alpha  occ. eigenvalues --   -0.75274  -0.71621  -0.70774  -0.69135  -0.67379
 Alpha  occ. eigenvalues --   -0.64383  -0.62162  -0.61513  -0.60000  -0.58245
 Alpha  occ. eigenvalues --   -0.57368  -0.56531  -0.56227  -0.55808  -0.55233
 Alpha  occ. eigenvalues --   -0.54282  -0.53803  -0.51900  -0.49903  -0.48310
 Alpha  occ. eigenvalues --   -0.47809  -0.45845  -0.45456  -0.44884  -0.44201
 Alpha  occ. eigenvalues --   -0.43910  -0.39935  -0.39607  -0.37444  -0.34681
 Alpha virt. eigenvalues --    0.02414   0.02676   0.03236   0.03898   0.04381
 Alpha virt. eigenvalues --    0.04680   0.05051   0.05173   0.05694   0.06485
 Alpha virt. eigenvalues --    0.06741   0.07287   0.07738   0.07922   0.08529

 Mulliken charges:
               1
     1  C   -0.434260
     2  H   -0.083532
     3  B    2.701395
     4  C   -0.280733
     5  H    0.182475
     6  H    0.058334
     7  C   -0.312600
     8  H    0.079236
     9  C   -0.811692
    10  C    0.211369
    11  C    0.607437
    12  H    0.070605
    13  C    2.054762
    14  O   -2.274284
    15  O   -1.682743
    16  C    0.128634
    17  H    0.238523
    18  H    0.227690
    19  H   -0.051827
    20  C   -0.298284
    21  H    0.035780
    22  H    0.201286
    23  C   -0.386821
    24  H   -0.009916
    25  C   -0.310718
    26  H    0.197671
    27  H    0.043295
    28  C   -0.251342
    29  H    0.063730
    30  H    0.256161
    31  C   -0.193835
    32  H    0.035974
    33  H    0.233843
    34  H    0.236756
    35  H    0.097230
    36  H   -0.250553
    37  H   -0.329047
 Sum of Mulliken charges =   0.00000

 Dipole moment (field-independent basis, Debye):
    X=              4.3548    Y=              0.4109    Z=              0.0109  Tot=              4.3742

 Test job not archived.
 1\1\GINC-SE026\SP\RHF\Aug-CC-pVDZ\C13H21B1O2\OHZDE\09-Apr-2025\0\\#t h
 f aug-cc-pvdz iop(5/13=1,5/36=2,99/5=2) pseudo=read geom=check guess=(
 read,tcheck) scf=(maxcycle=1)\\title\\0,1\C,0,-0.805876,0.213597,1.198
 498\H,0,-0.179997,0.657042,1.985749\B,0,-0.231574,0.513426,-0.273739\C
 ,0,-2.187233,0.894902,1.294687\H,0,-2.032905,1.979605,1.283937\H,0,-2.
 651516,0.672996,2.263323\C,0,-0.851542,-1.303278,1.460698\H,0,0.180089
 ,-1.662547,1.547605\C,0,0.180178,2.047907,-0.604795\C,0,1.446354,2.474
 837,0.048738\C,0,2.452712,1.632107,0.318625\H,0,-1.319004,-1.507262,2.

 Normal termination of Gaussian 16 at Wed Apr  9 01:23:34 2025.
