 Gaussian 16, Revision C.01,

 ----------------------------------------------------------------------
 #t hf aug-cc-pvdz symm=none int=(grid=ultrafine) guess=(read,tcheck) s
 table=opt
 ----------------------------------------------------------------------
 -----
 title
 -----
 Symbolic Z-matrix:
 Charge =  0 Multiplicity = 2

 SCF Done:  E(UHF) =  -816.090018122     A.U. after   17 cycles
 Normal termination of Gaussian 16 at Wed Apr  9 01:09:30 2025.
 Gaussian 16:  ES64L-G16RevC.01  3-Jul-2019

 ----------------------------------------------------------------------
 #t hf aug-cc-pvdz iop(5/13=1,5/36=2,99/5=2) pseudo=read geom=check gue
 ss=(read,tcheck) scf=(maxcycle=1)
 ----------------------------------------------------------------------
 -----
 title
 -----
 Structure from the checkpoint file:  "BH10_220_reverse_mol2.chk"
 Charge =  0 Multiplicity = 2

                         Standard orientation:
 ---------------------------------------------------------------------
 Center     Atomic      Atomic             Coordinates (Angstroms)
 Number     Number       Type             X           Y           Z
 ---------------------------------------------------------------------
      1         15           0       -0.000886   -0.046919   -0.471136
      2          8           0        0.033532   -0.338291   -1.924860
      3          7           0        1.166566   -0.997000    0.323744
      4          7           0       -1.524313   -0.298801    0.159390
      5          7           0        0.369494    1.485116    0.083625
      6          6           0        1.749228    1.947536   -0.032524
      7          1           0        1.961689    2.337896   -1.034691
      8          1           0        1.918306    2.746107    0.693788
      9          1           0        2.442027    1.137812    0.183380
     10          6           0       -0.594482    2.556145   -0.150947
     11          1           0       -0.448488    3.338628    0.597972
     12          1           0       -0.470551    3.000173   -1.145614
     13          1           0       -1.610032    2.176653   -0.066633
     14          6           0        1.757761   -2.129251   -0.383555
     15          1           0        1.538886   -2.041950   -1.444480
     16          1           0        2.841071   -2.123329   -0.238584
     17          1           0        1.357903   -3.075770   -0.007294
     18          6           0        1.413212   -0.903348    1.682369
     19          1           0        1.104776   -0.011701    2.203670
     20          1           0        2.165556   -1.556615    2.097827
     21          6           0       -1.825418   -0.117617    1.569698
     22          1           0       -2.873783    0.175422    1.677715
     23          1           0       -1.660532   -1.034987    2.146894
     24          1           0       -1.206653    0.671677    1.992008
     25          6           0       -2.410164   -1.230125   -0.525842
     26          1           0       -2.367840   -2.232661   -0.081407
     27          1           0       -3.439868   -0.868352   -0.456355
     28          1           0       -2.130475   -1.294120   -1.574791
 ---------------------------------------------------------------------

 SCF Done:  E(UHF) =  -816.640089608     A.U. after    2 cycles

 The electronic state is 2-A.
 Alpha  occ. eigenvalues --  -84.39239 -20.47219 -15.50934 -15.50146 -15.49582
 Alpha  occ. eigenvalues --  -11.26553 -11.26408 -11.26310 -11.25913 -11.25685
 Alpha  occ. eigenvalues --  -11.25602  -6.84535  -4.38663  -4.37967  -4.37742
 Alpha  occ. eigenvalues --   -1.38421  -1.25341  -1.22311  -1.20957  -0.97667
 Alpha  occ. eigenvalues --   -0.97524  -0.96733  -0.95365  -0.87468  -0.87039
 Alpha  occ. eigenvalues --   -0.75827  -0.70451  -0.70166  -0.67033  -0.65937
 Alpha  occ. eigenvalues --   -0.64908  -0.64104  -0.62623  -0.62365  -0.59254
 Alpha  occ. eigenvalues --   -0.56401  -0.56047  -0.55416  -0.54195  -0.53797
 Alpha  occ. eigenvalues --   -0.53728  -0.53615  -0.52322  -0.49817  -0.45833
 Alpha  occ. eigenvalues --   -0.43587  -0.41088  -0.40225  -0.30825
 Alpha virt. eigenvalues --    0.03549   0.03902   0.04086   0.04452   0.04639
 Alpha virt. eigenvalues --    0.04750   0.04955   0.05343   0.06026   0.07726
 Alpha virt. eigenvalues --    0.08011   0.08450   0.08918   0.09040   0.09478

  Beta  occ. eigenvalues --  -84.39246 -20.47213 -15.50428 -15.50147 -15.49557
  Beta  occ. eigenvalues --  -11.26550 -11.26407 -11.26318 -11.25748 -11.25603
  Beta  occ. eigenvalues --  -11.23702  -6.84544  -4.38668  -4.37990  -4.37737
  Beta  occ. eigenvalues --   -1.38337  -1.24708  -1.21120  -1.20799  -0.97525
  Beta  occ. eigenvalues --   -0.97127  -0.96103  -0.93576  -0.87411  -0.84126
  Beta  occ. eigenvalues --   -0.75133  -0.69813  -0.69644  -0.66646  -0.65136
  Beta  occ. eigenvalues --   -0.64485  -0.63539  -0.62383  -0.60843  -0.59056
  Beta  occ. eigenvalues --   -0.56313  -0.55964  -0.54990  -0.54069  -0.53687
  Beta  occ. eigenvalues --   -0.53619  -0.53484  -0.52176  -0.46256  -0.44079
  Beta  occ. eigenvalues --   -0.43445  -0.40212  -0.40075
  Beta virt. eigenvalues --    0.03581   0.03953   0.04064   0.04391   0.04600
  Beta virt. eigenvalues --    0.04648   0.04960   0.05333   0.06036   0.07648
  Beta virt. eigenvalues --    0.08021   0.08457   0.08680   0.09023   0.09488

 Mulliken charges and spin densities:
               1          2
     1  P    2.296867  -0.044652
     2  O   -2.027003   0.007418
     3  N    0.435654   0.024459
     4  N    0.132619   0.001360
     5  N   -0.394635   0.011055
     6  C   -0.388618  -0.006861
     7  H    0.218692  -0.000853
     8  H    0.159637   0.000123
     9  H    0.057950  -0.011033
    10  C   -0.339680   0.001058
    11  H    0.142764   0.000385
    12  H    0.198030  -0.000155
    13  H    0.087383  -0.000163
    14  C   -0.161464  -0.033465
    15  H    0.089982   0.002175
    16  H    0.146035   0.006907
    17  H    0.210373   0.004189
    18  C   -0.614155   1.250047
    19  H   -0.071534  -0.127146
    20  H   -0.142223  -0.088481
    21  C   -0.458259   0.009141
    22  H    0.014316   0.004134
    23  H    0.137650  -0.008253
    24  H    0.114355   0.005798
    25  C   -0.304910  -0.006838
    26  H    0.234015   0.001105
    27  H    0.161356  -0.000406
    28  H    0.064805  -0.001049
 Sum of Mulliken charges =   0.00000   1.00000

 Dipole moment (field-independent basis, Debye):
    X=             -0.1654    Y=              0.7748    Z=              3.1837  Tot=              3.2808
                          Isotropic Fermi Contact Couplings
        Atom                 a.u.       MegaHertz       Gauss      10(-4) cm-1
     1  P(31)             -0.01050     -19.02458      -6.78844      -6.34592
     2  O(17)              0.00071      -0.43235      -0.15427      -0.14422
     3  N(14)              0.03352      10.83057       3.86462       3.61269
     4  N(14)              0.00388       1.25353       0.44729       0.41813
     5  N(14)             -0.00174      -0.56306      -0.20091      -0.18782
     6  C(13)             -0.00177      -1.99459      -0.71172      -0.66532
     7  H(1)               0.00006       0.28596       0.10204       0.09539
     8  H(1)               0.00010       0.45419       0.16206       0.15150

 1\1\GINC-SE164\SP\UHF\Aug-CC-pVDZ\C6H17N3O1P1(2)\OHZDE\09-Apr-2025\0\\
 #t hf aug-cc-pvdz iop(5/13=1,5/36=2,99/5=2) pseudo=read geom=check gue
 ss=(read,tcheck) scf=(maxcycle=1)\\title\\0,2\P,0,-0.000886,-0.046919,
 -0.471136\O,0,0.033531,-0.338291,-1.92486\N,0,1.166564,-0.997003,0.323
 744\N,0,-1.524314,-0.298798,0.15939\N,0,0.369497,1.485115,0.083625\C,0
 ,1.749232,1.947532,-0.032524\H,0,1.961694,2.337892,-1.034691\H,0,1.918
 312,2.746103,0.693788\H,0,2.44203,1.137807,0.18338\C,0,-0.594476,2.556
 146,-0.150947\H,0,-0.448481,3.338629,0.597972\H,0,-0.470544,3.000174,-

 Normal termination of Gaussian 16 at Wed Apr  9 01:09:59 2025.
