 Gaussian 16, Revision C.01,

 ----------------------------------------------------------------------
 #t hf aug-cc-pvdz symm=none int=(grid=ultrafine) guess=(read,tcheck) s
 table=(opt,rrhf)
 ----------------------------------------------------------------------
 -----
 title
 -----
 Symbolic Z-matrix:
 Charge = -1 Multiplicity = 1

 SCF Done:  E(RHF) =  -1234.82052579     A.U. after   15 cycles
 Normal termination of Gaussian 16 at Wed Apr  9 01:31:24 2025.
 Gaussian 16:  ES64L-G16RevC.01  3-Jul-2019

 ----------------------------------------------------------------------
 #t hf aug-cc-pvdz iop(5/13=1,5/36=2,99/5=2) pseudo=read geom=check gue
 ss=(read,tcheck) scf=(maxcycle=1)
 ----------------------------------------------------------------------
 -----
 title
 -----
 Structure from the checkpoint file:  "BH10_322_reverse_mol1.chk"
 Charge = -1 Multiplicity = 1

                         Standard orientation:
 ---------------------------------------------------------------------
 Center     Atomic      Atomic             Coordinates (Angstroms)
 Number     Number       Type             X           Y           Z
 ---------------------------------------------------------------------
      1          6           0        2.188345    0.188457    0.898730
      2          8           0        1.992218   -0.454821    1.893569
      3          8           0        2.288680    1.525558    0.897043
      4          6           0        2.289595   -0.390133   -0.482416
      5          6           0        2.224088    0.477722   -1.699327
      6          1           0        2.182709   -0.142349   -2.593553
      7          1           0        1.338986    1.109616   -1.642368
      8          1           0        3.103727    1.113860   -1.744262
      9         17           0        4.706514   -0.335642   -0.178092
     10          1           0        2.509823   -1.435894   -0.524842
     11          8           0        0.430266   -1.048322   -0.582451
     12          6           0       -0.590866   -0.358509   -0.312340
     13          8           0       -0.579422    0.832420    0.057735
     14          6           0       -1.919826   -1.086038   -0.488676
     15          6           0       -3.069970   -0.608966    0.409898
     16          1           0       -1.748712   -2.141834   -0.284025
     17          1           0       -2.200120   -1.005148   -1.545202
     18          7           0       -4.036668   -1.688298    0.551603
     19          6           0       -3.724884    0.701256   -0.072383
     20          1           0       -2.653982   -0.396263    1.400516
     21          8           0       -4.915993    0.773630   -0.271523
     22          8           0       -2.924027    1.735517   -0.219627
     23          1           0       -1.955593    1.465136   -0.056016
     24          1           0        2.169615    1.807037    1.812269
     25          1           0       -4.871798   -1.321468    0.996043
     26          1           0       -4.341391   -1.983287   -0.371112
 ---------------------------------------------------------------------

 SCF Done:  E(RHF) =  -1235.67156677     A.U. after    2 cycles

 The electronic state is 1-A.
 Alpha  occ. eigenvalues -- -105.33796 -20.48750 -20.46242 -20.42546 -20.42120
 Alpha  occ. eigenvalues --  -20.42066 -20.41241 -15.40325 -11.29505 -11.27664
 Alpha  occ. eigenvalues --  -11.26957 -11.25294 -11.19017 -11.15569 -11.13586
 Alpha  occ. eigenvalues --  -10.38518  -7.55332  -7.55204  -7.55195  -1.44238
 Alpha  occ. eigenvalues --   -1.42618  -1.39402  -1.34388  -1.33674  -1.30240
 Alpha  occ. eigenvalues --   -1.11005  -0.98066  -0.94339  -0.82662  -0.82127
 Alpha  occ. eigenvalues --   -0.79082  -0.72619  -0.70924  -0.66061  -0.65130
 Alpha  occ. eigenvalues --   -0.60943  -0.60110  -0.58646  -0.57347  -0.56307
 Alpha  occ. eigenvalues --   -0.54351  -0.53521  -0.51888  -0.51265  -0.50443
 Alpha  occ. eigenvalues --   -0.49095  -0.47972  -0.47479  -0.46643  -0.45006
 Alpha  occ. eigenvalues --   -0.44100  -0.42083  -0.37272  -0.36754  -0.35407
 Alpha  occ. eigenvalues --   -0.34210  -0.33757  -0.32654  -0.32495  -0.31852
 Alpha  occ. eigenvalues --   -0.26023  -0.25919  -0.25616
 Alpha virt. eigenvalues --    0.10964   0.11717   0.12358   0.12939   0.13235
 Alpha virt. eigenvalues --    0.13704   0.14616   0.15153   0.15648   0.16140
 Alpha virt. eigenvalues --    0.16837   0.18562   0.19256   0.20163   0.20379

 Mulliken charges:
               1
     1  C    2.905601
     2  O   -1.467044
     3  O   -1.335059
     4  C    0.006790
     5  C   -0.273480
     6  H    0.203094
     7  H    0.196974
     8  H    0.231895
     9  Cl  -0.786045
    10  H   -0.259927
    11  O   -1.353530
    12  C    2.351677
    13  O   -1.771238
    14  C   -0.584116
    15  C   -1.815432
    16  H    0.212737
    17  H    0.281291
    18  N    0.715071
    19  C    2.574156
    20  H    0.158124
    21  O   -1.372101
    22  O   -1.446375
    23  H    0.891735
    24  H    0.323689
    25  H    0.180857
    26  H    0.230654
 Sum of Mulliken charges =  -1.00000

 Dipole moment (field-independent basis, Debye):
    X=             -5.8684    Y=             -0.0185    Z=             -1.1884  Tot=              5.9875

 Test job not archived.
 1\1\GINC-SE461\SP\RHF\Aug-CC-pVDZ\C7H11Cl1N1O6(1-)\OHZDE\09-Apr-2025\0
 \\#t hf aug-cc-pvdz iop(5/13=1,5/36=2,99/5=2) pseudo=read geom=check g
 uess=(read,tcheck) scf=(maxcycle=1)\\title\\-1,1\C,0,2.188345,0.188457
 ,0.89873\O,0,1.992218,-0.454821,1.893569\O,0,2.28868,1.525558,0.897043
 \C,0,2.289595,-0.390133,-0.482416\C,0,2.224088,0.477722,-1.699327\H,0,
 2.182709,-0.142349,-2.593553\H,0,1.338986,1.109616,-1.642368\H,0,3.103
 727,1.11386,-1.744262\Cl,0,4.706514,-0.335642,-0.178092\H,0,2.509823,-
 1.435894,-0.524842\O,0,0.430266,-1.048322,-0.582451\C,0,-0.590866,-0.3

 Normal termination of Gaussian 16 at Wed Apr  9 01:31:50 2025.
