 Gaussian 16, Revision C.01,

 ----------------------------------------------------------------------
 #t hf aug-cc-pvdz symm=none int=(grid=ultrafine) guess=(read,tcheck) s
 table=(opt,rrhf)
 ----------------------------------------------------------------------
 -----
 title
 -----
 Symbolic Z-matrix:
 Charge =  0 Multiplicity = 1

 SCF Done:  E(RHF) =  -958.518389148     A.U. after   16 cycles
 Normal termination of Gaussian 16 at Wed Apr  9 01:00:47 2025.
 Gaussian 16:  ES64L-G16RevC.01  3-Jul-2019

 ----------------------------------------------------------------------
 #t hf aug-cc-pvdz iop(5/13=1,5/36=2,99/5=2) pseudo=read geom=check gue
 ss=(read,tcheck) scf=(maxcycle=1)
 ----------------------------------------------------------------------
 -----
 title
 -----
 Structure from the checkpoint file:  "BH10_135_forward_mol2.chk"
 Charge =  0 Multiplicity = 1

                         Standard orientation:
 ---------------------------------------------------------------------
 Center     Atomic      Atomic             Coordinates (Angstroms)
 Number     Number       Type             X           Y           Z
 ---------------------------------------------------------------------
      1         17           0        2.081345    2.181418   -0.073890
      2          6           0        1.574669    0.460567   -0.485420
      3          6           0        0.110869    0.277855   -0.206298
      4          6           0        2.454567   -0.487724    0.255854
      5          6           0       -0.752489   -0.062640   -1.232911
      6          6           0       -0.410558    0.408798    1.083319
      7          6           0        3.326066   -1.289305   -0.340117
      8          6           0       -2.107783   -0.282725   -1.001269
      9          6           0       -2.608023   -0.153527    0.287065
     10          6           0       -1.748507    0.196684    1.330576
     11          1           0        0.239895    0.699984    1.899427
     12          1           0       -2.750430   -0.546933   -1.828746
     13          8           0       -3.907666   -0.341704    0.629412
     14          1           0       -2.161427    0.301208    2.325677
     15          1           0       -0.370784   -0.163228   -2.242858
     16          6           0       -4.825300   -0.687139   -0.387675
     17          1           0       -5.792299   -0.785377    0.100071
     18          1           0       -4.558723   -1.638706   -0.857733
     19          1           0       -4.883383    0.093065   -1.152698
     20          6           0        4.205546   -2.271491    0.363264
     21          1           0        5.260276   -2.057250    0.169214
     22          1           0        4.017277   -3.289086    0.009644
     23          1           0        4.044932   -2.249286    1.442100
     24          1           0        3.422308   -1.241089   -1.423195
     25          1           0        2.338851   -0.508409    1.335805
     26          1           0        1.757631    0.378518   -1.554213
 ---------------------------------------------------------------------

 SCF Done:  E(RHF) =  -959.112572958     A.U. after    2 cycles

 The electronic state is 1-A.
 Alpha  occ. eigenvalues -- -105.54267 -20.57564 -11.31190 -11.30955 -11.29788
 Alpha  occ. eigenvalues --  -11.25193 -11.24888 -11.24868 -11.24550 -11.24312
 Alpha  occ. eigenvalues --  -11.24127 -11.23835 -11.23812 -10.59070  -7.75997
 Alpha  occ. eigenvalues --   -7.75643  -7.75642  -1.50500  -1.17571  -1.12462
 Alpha  occ. eigenvalues --   -1.06377  -1.03253  -1.01913  -0.96827  -0.95083
 Alpha  occ. eigenvalues --   -0.87638  -0.85478  -0.80708  -0.77246  -0.73511
 Alpha  occ. eigenvalues --   -0.69409  -0.67502  -0.66284  -0.64498  -0.63754
 Alpha  occ. eigenvalues --   -0.60991  -0.60344  -0.59355  -0.58153  -0.55572
 Alpha  occ. eigenvalues --   -0.55321  -0.54516  -0.53177  -0.52598  -0.51476
 Alpha  occ. eigenvalues --   -0.49231  -0.47067  -0.43820  -0.43684  -0.37121
 Alpha  occ. eigenvalues --   -0.35612  -0.31888
 Alpha virt. eigenvalues --    0.02913   0.03246   0.03579   0.04276   0.04476
 Alpha virt. eigenvalues --    0.04709   0.05551   0.06205   0.06712   0.07451
 Alpha virt. eigenvalues --    0.07707   0.08487   0.09403   0.09643   0.09916

 Mulliken charges:
               1
     1  Cl  -0.042599
     2  C   -1.239462
     3  C    1.736763
     4  C    1.037785
     5  C   -0.022875
     6  C    0.516218
     7  C   -0.004727
     8  C    0.034730
     9  C    1.693973
    10  C   -0.115346
    11  H   -0.337388
    12  H   -0.430953
    13  O   -1.904072
    14  H   -0.315807
    15  H   -0.363900
    16  C    0.140178
    17  H   -0.044200
    18  H    0.177155
    19  H    0.181465
    20  C   -0.754691
    21  H    0.242941
    22  H    0.249766
    23  H    0.101306
    24  H   -0.231493
    25  H   -0.254867
    26  H   -0.049900
 Sum of Mulliken charges =  -0.00000

 Dipole moment (field-independent basis, Debye):
    X=             -1.2363    Y=             -2.9123    Z=             -1.4089  Tot=              3.4633

 Test job not archived.
 1\1\GINC-SE339\SP\RHF\Aug-CC-pVDZ\C11H13Cl1O1\OHZDE\09-Apr-2025\0\\#t
 hf aug-cc-pvdz iop(5/13=1,5/36=2,99/5=2) pseudo=read geom=check guess=
 (read,tcheck) scf=(maxcycle=1)\\title\\0,1\Cl,0,2.081345,2.181418,-0.0
 7389\C,0,1.574669,0.460567,-0.48542\C,0,0.110869,0.277855,-0.206298\C,
 0,2.454567,-0.487724,0.255854\C,0,-0.752489,-0.06264,-1.232911\C,0,-0.
 410558,0.408798,1.083319\C,0,3.326066,-1.289305,-0.340117\C,0,-2.10778
 3,-0.282725,-1.001269\C,0,-2.608023,-0.153527,0.287065\C,0,-1.748507,0
 .196684,1.330576\H,0,0.239895,0.699984,1.899427\H,0,-2.75043,-0.546933

 Normal termination of Gaussian 16 at Wed Apr  9 01:01:10 2025.
