 Gaussian 16, Revision C.01,

 ----------------------------------------------------------------------
 #t hf aug-cc-pvdz symm=none int=(grid=ultrafine) guess=(read,tcheck) s
 table=(opt,rrhf)
 ----------------------------------------------------------------------
 -----
 title
 -----
 Symbolic Z-matrix:
 Charge =  0 Multiplicity = 1

 SCF Done:  E(RHF) =  -989.201876777     A.U. after   16 cycles
 Normal termination of Gaussian 16 at Wed Apr  9 01:08:25 2025.
 Gaussian 16:  ES64L-G16RevC.01  3-Jul-2019

 ----------------------------------------------------------------------
 #t hf aug-cc-pvdz iop(5/13=1,5/36=2,99/5=2) pseudo=read geom=check gue
 ss=(read,tcheck) scf=(maxcycle=1)
 ----------------------------------------------------------------------
 -----
 title
 -----
 Structure from the checkpoint file:  "BH10_247_forward_mol3.chk"
 Charge =  0 Multiplicity = 1

                         Standard orientation:
 ---------------------------------------------------------------------
 Center     Atomic      Atomic             Coordinates (Angstroms)
 Number     Number       Type             X           Y           Z
 ---------------------------------------------------------------------
      1          6           0       -6.279991    0.978827   -0.262693
      2          6           0       -4.889604    0.801027    0.243817
      3          1           0       -6.484025    2.032937   -0.471762
      4          1           0       -7.009183    0.661226    0.488243
      5          1           0       -6.452917    0.406664   -1.175010
      6          6           0       -3.953447    0.041609   -0.329573
      7          6           0       -2.617562   -0.092804    0.206908
      8          6           0       -1.650187   -0.841138   -0.336390
      9          1           0       -2.383164    0.452994    1.117013
     10          6           0       -0.322936   -0.910872    0.285501
     11          1           0       -1.815758   -1.413075   -1.242573
     12          8           0       -0.005719   -0.320818    1.298041
     13         16           0        0.801426   -1.966597   -0.604290
     14          6           0        2.266041   -1.908099    0.472470
     15          6           0        3.244002   -0.789716    0.155646
     16          1           0        2.756340   -2.872837    0.344732
     17          1           0        1.905998   -1.843412    1.499967
     18          7           0        2.652621    0.508165    0.396998
     19          1           0        3.570386   -0.832429   -0.884785
     20          1           0        4.137857   -0.928628    0.774984
     21          6           0        3.135222    1.626725   -0.196153
     22          8           0        4.112867    1.610818   -0.923772
     23          6           0        2.382087    2.901666    0.104875
     24          1           0        3.056037    3.594611    0.610076
     25          1           0        1.498538    2.743288    0.724070
     26          1           0        2.085706    3.359550   -0.839075
     27          1           0        1.820562    0.551623    0.968862
     28          1           0       -4.630896    1.338438    1.153877
     29          1           0       -4.185586   -0.505902   -1.239574
 ---------------------------------------------------------------------

 SCF Done:  E(RHF) =  -989.870339378     A.U. after    2 cycles

 The electronic state is 1-A.
 Alpha  occ. eigenvalues --  -93.96777 -20.54616 -20.48777 -15.50751 -11.37861
 Alpha  occ. eigenvalues --  -11.33965 -11.28306 -11.28024 -11.27529 -11.27178
 Alpha  occ. eigenvalues --  -11.25789 -11.25508 -11.25426 -11.23363  -8.25033
 Alpha  occ. eigenvalues --   -6.22842  -6.22662  -6.22488  -1.49059  -1.43962
 Alpha  occ. eigenvalues --   -1.23314  -1.13737  -1.10942  -1.07409  -1.02256
 Alpha  occ. eigenvalues --   -0.98919  -0.96163  -0.88651  -0.83464  -0.81617
 Alpha  occ. eigenvalues --   -0.78861  -0.74875  -0.70019  -0.69298  -0.67772
 Alpha  occ. eigenvalues --   -0.67004  -0.65686  -0.63812  -0.61818  -0.59734
 Alpha  occ. eigenvalues --   -0.59516  -0.58996  -0.58138  -0.57056  -0.56593
 Alpha  occ. eigenvalues --   -0.55293  -0.54743  -0.53721  -0.52937  -0.51181
 Alpha  occ. eigenvalues --   -0.47470  -0.46501  -0.42012  -0.40601  -0.40195
 Alpha  occ. eigenvalues --   -0.38462  -0.34609
 Alpha virt. eigenvalues --    0.02682   0.02841   0.03672   0.03972   0.04190
 Alpha virt. eigenvalues --    0.04576   0.04836   0.05273   0.05997   0.06161
 Alpha virt. eigenvalues --    0.06385   0.06876   0.07780   0.08408   0.08773

 Mulliken charges:
               1
     1  C   -0.766909
     2  C   -0.277630
     3  H    0.265229
     4  H    0.268950
     5  H    0.086896
     6  C    1.294378
     7  C    0.455895
     8  C    0.802408
     9  H   -0.291922
    10  C    0.034640
    11  H   -0.193707
    12  O   -1.606847
    13  S    0.527347
    14  C   -0.522702
    15  C   -0.435650
    16  H    0.109635
    17  H    0.242503
    18  N    0.947222
    19  H    0.036147
    20  H    0.056668
    21  C    0.521715
    22  O   -1.384393
    23  C   -0.418394
    24  H    0.233412
    25  H    0.057445
    26  H    0.249327
    27  H    0.102420
    28  H   -0.179615
    29  H   -0.214469
 Sum of Mulliken charges =  -0.00000

 Dipole moment (field-independent basis, Debye):
    X=             -6.0213    Y=             -0.7607    Z=              1.4385  Tot=              6.2373

 Test job not archived.
 1\1\GINC-SE459\SP\RHF\Aug-CC-pVDZ\C10H15N1O2S1\OHZDE\09-Apr-2025\0\\#t
  hf aug-cc-pvdz iop(5/13=1,5/36=2,99/5=2) pseudo=read geom=check guess
 =(read,tcheck) scf=(maxcycle=1)\\title\\0,1\C,0,-6.279991,0.978827,-0.
 262693\C,0,-4.889604,0.801027,0.243817\H,0,-6.484025,2.032937,-0.47176
 2\H,0,-7.009183,0.661226,0.488243\H,0,-6.452917,0.406664,-1.17501\C,0,
 -3.953447,0.041609,-0.329573\C,0,-2.617562,-0.092804,0.206908\C,0,-1.6
 50187,-0.841138,-0.33639\H,0,-2.383164,0.452994,1.117013\C,0,-0.322936
 ,-0.910872,0.285501\H,0,-1.815758,-1.413075,-1.242573\O,0,-0.005719,-0

 Normal termination of Gaussian 16 at Wed Apr  9 01:08:52 2025.
