 Gaussian 16, Revision C.01,

 ----------------------------------------------------------------------
 #t hf aug-cc-pvdz symm=none int=(grid=ultrafine) guess=(read,tcheck) s
 table=(opt,rrhf)
 ----------------------------------------------------------------------
 -----
 title
 -----
 Symbolic Z-matrix:
 Charge =  0 Multiplicity = 1

 SCF Done:  E(RHF) =  -1155.56705675     A.U. after   16 cycles
 Normal termination of Gaussian 16 at Wed Apr  9 03:03:07 2025.
 Gaussian 16:  ES64L-G16RevC.01  3-Jul-2019

 ----------------------------------------------------------------------
 #t hf aug-cc-pvdz iop(5/13=1,5/36=2,99/5=2) pseudo=read geom=check gue
 ss=(read,tcheck) scf=(maxcycle=1)
 ----------------------------------------------------------------------
 -----
 title
 -----
 Structure from the checkpoint file:  "BH10_402_forward_mol2.chk"
 Charge =  0 Multiplicity = 1

                         Standard orientation:
 ---------------------------------------------------------------------
 Center     Atomic      Atomic             Coordinates (Angstroms)
 Number     Number       Type             X           Y           Z
 ---------------------------------------------------------------------
      1          6           0        0.431736   -2.604557    0.450379
      2          1           0        0.612882   -3.664990    0.269476
      3          1           0        0.211628   -2.483275    1.529527
      4          6           0       -0.768611   -2.149803   -0.340692
      5          6           0        0.306397    0.056249   -0.599609
      6          1           0        0.612701   -0.123263   -1.635216
      7          1           0        0.177542    1.125272   -0.482417
      8          6           0        1.446120   -0.430946    0.304499
      9          1           0        1.137551   -0.256740    1.355426
     10          7           0        1.627884   -1.861149    0.086747
     11          6           0       -2.163861   -0.088172   -0.064933
     12          6           0       -1.524407   -3.010043   -1.013731
     13          6           0       -3.345318   -0.925010    0.244314
     14          6           0       -4.580723   -0.748396   -0.214793
     15          6           0       -0.980739   -0.682029   -0.325095
     16          6           0       -5.742012   -1.630397    0.118455
     17          1           0       -6.162978   -2.088067   -0.782079
     18          1           0       -5.449041   -2.430568    0.800718
     19          1           0       -6.549592   -1.060948    0.588870
     20          6           0        2.732410    0.345580    0.078323
     21          6           0        2.814305   -2.372231    0.746387
     22          1           0        2.809733   -3.461462    0.672697
     23          1           0        2.819499   -2.116685    1.822000
     24          6           0        4.043619   -1.805191    0.063845
     25          1           0        4.118836   -2.236630   -0.938852
     26          6           0        3.961618   -0.304935   -0.036094
     27          1           0        4.946913   -2.090269    0.609493
     28          6           0        5.119482    0.446304   -0.227889
     29          1           0        6.069905   -0.069588   -0.316121
     30          6           0        2.703266    1.739612    0.028370
     31          1           0        1.763971    2.265543    0.144133
     32          6           0        5.077325    1.827474   -0.296802
     33          1           0        5.988525    2.394258   -0.445209
     34          6           0        3.858634    2.478572   -0.159695
     35          1           0        3.807810    3.560025   -0.196615
     36         14           0       -2.315873    1.805070    0.093332
     37          6           0       -1.245249    2.384894    1.532221
     38          1           0       -0.197532    2.094347    1.454332
     39          1           0       -1.285332    3.474117    1.621978
     40          1           0       -1.628730    1.964114    2.465518
     41          6           0       -1.844955    2.685815   -1.502042
     42          1           0       -0.806707    2.535026   -1.799975
     43          1           0       -2.474843    2.336351   -2.324248
     44          1           0       -2.008403    3.762050   -1.396203
     45          6           0       -4.063883    2.346409    0.519841
     46          1           0       -4.474748    1.782398    1.358675
     47          1           0       -4.037843    3.402396    0.804716
     48          1           0       -4.756436    2.251893   -0.317914
     49          1           0       -2.384794   -2.683169   -1.582276
     50          1           0       -1.295349   -4.069970   -1.019206
     51          1           0       -4.784176    0.071943   -0.897011
     52          1           0       -3.164876   -1.782234    0.890359
 ---------------------------------------------------------------------

 SCF Done:  E(RHF) =  -1156.51103474     A.U. after    2 cycles

 The electronic state is 1-A.
 Alpha  occ. eigenvalues --  -69.50836 -15.49064 -11.26923 -11.26092 -11.25719
 Alpha  occ. eigenvalues --  -11.24536 -11.24130 -11.24071 -11.24041 -11.23685
 Alpha  occ. eigenvalues --  -11.23638 -11.23554 -11.23437 -11.23268 -11.23146
 Alpha  occ. eigenvalues --  -11.22736 -11.22696 -11.22687 -11.22582 -11.21876
 Alpha  occ. eigenvalues --  -11.20423 -11.20414 -11.20116  -6.17826  -3.93173
 Alpha  occ. eigenvalues --   -3.93165  -3.93155  -1.25475  -1.15842  -1.12550
 Alpha  occ. eigenvalues --   -1.07602  -1.06729  -1.05617  -1.01779  -0.99912
 Alpha  occ. eigenvalues --   -0.97608  -0.96423  -0.93647  -0.92503  -0.92088
 Alpha  occ. eigenvalues --   -0.90493  -0.87012  -0.84643  -0.82265  -0.81039
 Alpha  occ. eigenvalues --   -0.76674  -0.75333  -0.71385  -0.70697  -0.68095
 Alpha  occ. eigenvalues --   -0.66898  -0.65928  -0.65387  -0.63642  -0.63005
 Alpha  occ. eigenvalues --   -0.62069  -0.61101  -0.60189  -0.59532  -0.58996
 Alpha  occ. eigenvalues --   -0.57601  -0.57240  -0.56835  -0.56596  -0.56179
 Alpha  occ. eigenvalues --   -0.55745  -0.54594  -0.54397  -0.54118  -0.53819
 Alpha  occ. eigenvalues --   -0.53345  -0.53214  -0.52194  -0.51791  -0.51204
 Alpha  occ. eigenvalues --   -0.49807  -0.48753  -0.47308  -0.47001  -0.44581
 Alpha  occ. eigenvalues --   -0.43502  -0.42964  -0.39756  -0.39232  -0.37423
 Alpha  occ. eigenvalues --   -0.33850  -0.33133  -0.30697
 Alpha virt. eigenvalues --    0.02659   0.02860   0.02980   0.03332   0.03578
 Alpha virt. eigenvalues --    0.03623   0.04248   0.04556   0.04801   0.05211
 Alpha virt. eigenvalues --    0.05416   0.06279   0.06641   0.07082   0.07345

 Mulliken charges:
               1
     1  C   -1.384970
     2  H   -0.134289
     3  H    0.220089
     4  C    0.871048
     5  C   -0.817419
     6  H    0.194476
     7  H   -0.340466
     8  C   -2.863814
     9  H    0.137357
    10  N    1.686411
    11  C   -1.580064
    12  C    0.322634
    13  C    1.256588
    14  C   -0.037597
    15  C    0.945249
    16  C   -0.770762
    17  H    0.248449
    18  H    0.062039
    19  H    0.214376
    20  C    1.221092
    21  C   -0.362368
    22  H   -0.002432
    23  H    0.112304
    24  C   -0.443635
    25  H    0.258198
    26  C    0.669816
    27  H    0.164677
    28  C    0.421391
    29  H   -0.338246
    30  C    0.787857
    31  H   -0.269534
    32  C    0.090386
    33  H   -0.236139
    34  C   -0.357077
    35  H   -0.323164
    36  Si   2.868034
    37  C   -0.280305
    38  H   -0.198804
    39  H   -0.011153
    40  H   -0.054520
    41  C   -0.346953
    42  H   -0.023593
    43  H   -0.071061
    44  H    0.009336
    45  C   -0.536676
    46  H    0.073619
    47  H   -0.154415
    48  H   -0.034795
    49  H   -0.164225
    50  H   -0.260193
    51  H   -0.237667
    52  H   -0.199090
 Sum of Mulliken charges =   0.00000

 Dipole moment (field-independent basis, Debye):
    X=              0.1319    Y=             -0.5632    Z=              0.7094  Tot=              0.9153

 Test job not archived.
 1\1\GINC-SE339\SP\RHF\Aug-CC-pVDZ\C21H29N1Si1\OHZDE\09-Apr-2025\0\\#t
 hf aug-cc-pvdz iop(5/13=1,5/36=2,99/5=2) pseudo=read geom=check guess=
 (read,tcheck) scf=(maxcycle=1)\\title\\0,1\C,0,0.431736,-2.604557,0.45
 0379\H,0,0.612882,-3.66499,0.269476\H,0,0.211628,-2.483275,1.529527\C,
 0,-0.768611,-2.149803,-0.340692\C,0,0.306397,0.056249,-0.599609\H,0,0.
 612701,-0.123263,-1.635216\H,0,0.177542,1.125272,-0.482417\C,0,1.44612
 ,-0.430946,0.304499\H,0,1.137551,-0.25674,1.355426\N,0,1.627884,-1.861
 149,0.086747\C,0,-2.163861,-0.088172,-0.064933\C,0,-1.524407,-3.010043

 Normal termination of Gaussian 16 at Wed Apr  9 03:05:51 2025.
