 Gaussian 16, Revision C.01,

 ----------------------------------------------------------------------
 #t hf aug-cc-pvdz symm=none int=(grid=ultrafine) guess=(read,tcheck) s
 table=opt
 ----------------------------------------------------------------------
 -----
 title
 -----
 Symbolic Z-matrix:
 Charge =  0 Multiplicity = 2

 SCF Done:  E(UHF) =  -1785.60931515     A.U. after   18 cycles
 Normal termination of Gaussian 16 at Wed Apr  9 03:50:31 2025.
 Gaussian 16:  ES64L-G16RevC.01  3-Jul-2019

 ----------------------------------------------------------------------
 #t hf aug-cc-pvdz iop(5/13=1,5/36=2,99/5=2) pseudo=read geom=check gue
 ss=(read,tcheck) scf=(maxcycle=1)
 ----------------------------------------------------------------------
 -----
 title
 -----
 Structure from the checkpoint file:  "BH10_307_reverse_mol2.chk"
 Charge =  0 Multiplicity = 2

                         Standard orientation:
 ---------------------------------------------------------------------
 Center     Atomic      Atomic             Coordinates (Angstroms)
 Number     Number       Type             X           Y           Z
 ---------------------------------------------------------------------
      1          6           0       -2.267841    0.574779   -0.228636
      2          6           0       -1.095685    0.420139   -1.134783
      3          1           0       -2.167725    1.290195    0.585681
      4         14           0        0.495082    0.029012   -0.113388
      5         14           0        1.330895    1.971463    0.917684
      6         14           0        2.158571   -0.861795   -1.520572
      7         14           0        0.013316   -1.565376    1.546232
      8          6           0       -1.041309   -2.958856    0.840686
      9          1           0       -1.237853   -3.716658    1.604676
     10          1           0       -2.003441   -2.586560    0.486383
     11          1           0       -0.544995   -3.451229    0.001728
     12          6           0       -0.899831   -0.787821    3.000754
     13          1           0       -1.132201   -1.543402    3.756934
     14          1           0       -0.299020   -0.012512    3.481874
     15          1           0       -1.838774   -0.333241    2.680336
     16          6           0        1.615537   -2.319930    2.198605
     17          1           0        2.294382   -1.559296    2.589717
     18          1           0        1.399115   -3.020555    3.010285
     19          1           0        2.147139   -2.872614    1.420819
     20          6           0       -0.051506    2.988461    1.700253
     21          1           0       -0.611489    2.403233    2.433080
     22          1           0        0.363179    3.859823    2.215504
     23          1           0       -0.760446    3.351755    0.953284
     24          6           0        2.544191    1.486584    2.278051
     25          1           0        2.986926    2.380170    2.727402
     26          1           0        2.051325    0.926264    3.075560
     27          1           0        3.359054    0.870116    1.892845
     28          6           0        2.247305    3.061145   -0.320168
     29          1           0        2.635951    3.957417    0.172049
     30          1           0        3.095102    2.533855   -0.763596
     31          1           0        1.595618    3.384044   -1.134700
     32          6           0        3.830276   -0.830544   -0.647663
     33          1           0        4.592137   -1.310284   -1.268852
     34          1           0        4.160435    0.192550   -0.453558
     35          1           0        3.800467   -1.357272    0.308146
     36          6           0        2.324830    0.104423   -3.132080
     37          1           0        2.530865    1.162071   -2.953905
     38          1           0        3.148977   -0.300116   -3.727102
     39          1           0        1.418269    0.037152   -3.737695
     40          6           0        1.745037   -2.648924   -1.962509
     41          1           0        2.484081   -3.054319   -2.659603
     42          1           0        1.736156   -3.290722   -1.078933
     43          1           0        0.763993   -2.726468   -2.437904
     44          6           0       -0.900813    1.655083   -2.042860
     45          1           0       -1.755030    1.787077   -2.711945
     46          1           0       -0.810985    2.565974   -1.447232
     47          1           0       -0.003712    1.568939   -2.658462
     48          6           0       -3.756191   -0.954794   -1.584633
     49          6           0       -3.682559    0.138600   -0.515863
     50          1           0       -3.378278   -0.602533   -2.546937
     51          1           0       -3.180013   -1.837437   -1.299024
     52          1           0       -4.793238   -1.266127   -1.731461
     53          6           0       -4.322675   -0.374689    0.783614
     54          6           0       -4.490521    1.361496   -0.999835
     55          1           0       -4.272077    0.385082    1.567795
     56          1           0       -5.375617   -0.623679    0.624887
     57          1           0       -3.813703   -1.268266    1.149937
     58          1           0       -5.535825    1.087537   -1.172662
     59          1           0       -4.469230    2.161234   -0.255839
     60          1           0       -4.085334    1.758031   -1.932833
     61          1           0       -1.253763   -0.446410   -1.783673
 ---------------------------------------------------------------------

 SCF Done:  E(UHF) =  -1786.43761992     A.U. after    2 cycles

 The electronic state is 2-A.
 Alpha  occ. eigenvalues --  -69.50067 -69.50057 -69.49888 -69.47725 -11.23750
 Alpha  occ. eigenvalues --  -11.22652 -11.22638 -11.21999 -11.21939 -11.21937
 Alpha  occ. eigenvalues --  -11.21898 -11.20640 -11.20603 -11.20593 -11.20590
 Alpha  occ. eigenvalues --  -11.20580 -11.20556 -11.20426 -11.20350 -11.20344
 Alpha  occ. eigenvalues --   -6.17173  -6.17157  -6.16987  -6.15238  -3.92487
 Alpha  occ. eigenvalues --   -3.92483  -3.92482  -3.92479  -3.92478  -3.92470
 Alpha  occ. eigenvalues --   -3.92310  -3.92304  -3.92293  -3.90510  -3.90472
 Alpha  occ. eigenvalues --   -3.90470  -1.12269  -1.04321  -0.98235  -0.97334
 Alpha  occ. eigenvalues --   -0.97237  -0.93583  -0.93307  -0.92959  -0.92761
 Alpha  occ. eigenvalues --   -0.92439  -0.92281  -0.92114  -0.91932  -0.91856
 Alpha  occ. eigenvalues --   -0.81834  -0.73213  -0.71942  -0.64780  -0.64076
 Alpha  occ. eigenvalues --   -0.63896  -0.62431  -0.61406  -0.59965  -0.58485
 Alpha  occ. eigenvalues --   -0.58183  -0.57872  -0.57737  -0.56924  -0.56838
 Alpha  occ. eigenvalues --   -0.56571  -0.56328  -0.56007  -0.55735  -0.55573
 Alpha  occ. eigenvalues --   -0.54901  -0.54693  -0.54378  -0.54170  -0.53966
 Alpha  occ. eigenvalues --   -0.53904  -0.53763  -0.53610  -0.53361  -0.53225
 Alpha  occ. eigenvalues --   -0.53111  -0.52195  -0.51837  -0.50011  -0.48755
 Alpha  occ. eigenvalues --   -0.47716  -0.46229  -0.44405  -0.44050  -0.43961
 Alpha  occ. eigenvalues --   -0.43484  -0.43286  -0.43136  -0.39715  -0.34982
 Alpha  occ. eigenvalues --   -0.34665  -0.31492
 Alpha virt. eigenvalues --    0.02222   0.02334   0.02544   0.03415   0.03988
 Alpha virt. eigenvalues --    0.04033   0.04238   0.04336   0.04505   0.06048
 Alpha virt. eigenvalues --    0.06170   0.06328   0.06432   0.06601   0.06932

  Beta  occ. eigenvalues --  -69.50068 -69.50050 -69.49889 -69.47693 -11.24045
  Beta  occ. eigenvalues --  -11.22391 -11.22238 -11.21911 -11.21805 -11.21784
  Beta  occ. eigenvalues --  -11.20642 -11.20603 -11.20593 -11.20585 -11.20579
  Beta  occ. eigenvalues --  -11.20555 -11.20427 -11.20346 -11.20335 -11.20143
  Beta  occ. eigenvalues --   -6.17170  -6.17150  -6.16988  -6.15186  -3.92488
  Beta  occ. eigenvalues --   -3.92483  -3.92480  -3.92476  -3.92473  -3.92451
  Beta  occ. eigenvalues --   -3.92311  -3.92305  -3.92297  -3.90453  -3.90445
  Beta  occ. eigenvalues --   -3.90404  -1.10605  -1.03381  -0.98189  -0.97330
  Beta  occ. eigenvalues --   -0.97204  -0.93342  -0.92915  -0.92643  -0.92572
  Beta  occ. eigenvalues --   -0.92421  -0.92122  -0.91966  -0.91851  -0.88922
  Beta  occ. eigenvalues --   -0.80834  -0.72523  -0.70930  -0.64590  -0.64042
  Beta  occ. eigenvalues --   -0.63755  -0.61875  -0.60600  -0.59830  -0.58316
  Beta  occ. eigenvalues --   -0.57994  -0.57829  -0.57361  -0.56838  -0.56797
  Beta  occ. eigenvalues --   -0.56406  -0.55990  -0.55875  -0.55655  -0.55094
  Beta  occ. eigenvalues --   -0.54694  -0.54377  -0.54310  -0.54018  -0.53917
  Beta  occ. eigenvalues --   -0.53894  -0.53652  -0.53374  -0.53325  -0.53133
  Beta  occ. eigenvalues --   -0.53044  -0.51805  -0.51440  -0.49570  -0.47544
  Beta  occ. eigenvalues --   -0.46757  -0.46002  -0.44346  -0.44038  -0.43947
  Beta  occ. eigenvalues --   -0.43463  -0.43271  -0.43133  -0.38496  -0.34649
  Beta  occ. eigenvalues --   -0.34559
  Beta virt. eigenvalues --    0.02221   0.02288   0.02539   0.03415   0.03990
  Beta virt. eigenvalues --    0.04035   0.04209   0.04324   0.04492   0.06052
  Beta virt. eigenvalues --    0.06170   0.06330   0.06434   0.06597   0.06932

 Mulliken charges and spin densities:
               1          2
     1  C    1.228091   1.706461
     2  C   -0.674464  -0.343246
     3  H   -0.335256  -0.156321
     4  Si   2.634671   0.051984
     5  Si   1.178744  -0.005047
     6  Si   1.219322   0.013393
     7  Si   1.246761  -0.070459
     8  C   -0.136118   0.012746
     9  H   -0.153563  -0.002139
    10  H   -0.273678   0.011985
    11  H   -0.119960  -0.001148
    12  C   -0.217712   0.016047
    13  H   -0.165084  -0.001095
    14  H   -0.119013   0.000205
    15  H   -0.190917   0.009866
    16  C   -0.203552   0.001644
    17  H   -0.102704   0.000281
    18  H   -0.226019  -0.000649
    19  H   -0.142768   0.000066
    20  C   -0.292825  -0.005975
    21  H   -0.039977   0.000354
    22  H   -0.266332  -0.000468
    23  H   -0.047993   0.004034
    24  C   -0.225045  -0.001551
    25  H   -0.206261   0.000206
    26  H   -0.101602  -0.000166
    27  H   -0.085279  -0.000849
    28  C   -0.303234  -0.000790
    29  H   -0.178748   0.000043
    30  H   -0.125593   0.000364
    31  H   -0.097176   0.000390
    32  C   -0.202192   0.003098
    33  H   -0.161792   0.000626
    34  H   -0.114030   0.000011
    35  H   -0.100500  -0.000517
    36  C   -0.354001  -0.002079
    37  H   -0.076074   0.000178
    38  H   -0.236103  -0.000110
    39  H   -0.024908   0.000507
    40  C   -0.330528  -0.003834
    41  H   -0.176196  -0.000153
    42  H   -0.115448   0.000249
    43  H   -0.094786   0.000052
    44  C   -0.296763   0.053418
    45  H    0.050921  -0.007042
    46  H    0.097444  -0.014918
    47  H   -0.044806   0.003096
    48  C   -0.039400   0.040054
    49  C   -1.745885  -0.441921
    50  H    0.206105  -0.002202
    51  H    0.134616  -0.001639
    52  H    0.076025  -0.000549
    53  C    0.046261   0.072601
    54  C    0.169806   0.077678
    55  H    0.175984   0.002566
    56  H    0.110550   0.002864
    57  H    0.117564   0.000454
    58  H    0.180930   0.007465
    59  H    0.155143   0.000727
    60  H    0.183937  -0.013298
    61  H   -0.068589  -0.017546
 Sum of Mulliken charges =  -0.00000   1.00000

 Dipole moment (field-independent basis, Debye):
    X=             -0.2157    Y=              0.0862    Z=             -0.2934  Tot=              0.3742
                          Isotropic Fermi Contact Couplings
        Atom                 a.u.       MegaHertz       Gauss      10(-4) cm-1
     1  C(13)              0.23863     268.26337      95.72304      89.48303
     2  C(13)             -0.05736     -64.48727     -23.01066     -21.51064
     3  H(1)              -0.02292    -102.46761     -36.56299     -34.17952
     4  Si(29)             0.04901     -43.55235     -15.54056     -14.52750
     5  Si(29)            -0.00109       0.96902       0.34577       0.32323
     6  Si(29)             0.00823      -7.31413      -2.60986      -2.43973
     7  Si(29)            -0.00040       0.35807       0.12777       0.11944
     8  C(13)              0.00064       0.71957       0.25676       0.24002

 Normal termination of Gaussian 16 at Wed Apr  9 03:54:39 2025.
