 Gaussian 16, Revision C.01,

 ----------------------------------------------------------------------
 #t hf aug-cc-pvdz symm=none int=(grid=ultrafine) guess=(read,tcheck) s
 table=(opt,rrhf)
 ----------------------------------------------------------------------
 -----
 title
 -----
 Symbolic Z-matrix:
 Charge =  0 Multiplicity = 1

 SCF Done:  E(RHF) =  -914.745085876     A.U. after   17 cycles
 Normal termination of Gaussian 16 at Wed Apr  9 00:55:49 2025.
 Gaussian 16:  ES64L-G16RevC.01  3-Jul-2019

 ----------------------------------------------------------------------
 #t hf aug-cc-pvdz iop(5/13=1,5/36=2,99/5=2) pseudo=read geom=check gue
 ss=(read,tcheck) scf=(maxcycle=1)
 ----------------------------------------------------------------------
 -----
 title
 -----
 Structure from the checkpoint file:  "BH10-RE_113_mol3.chk"
 Charge =  0 Multiplicity = 1

                         Standard orientation:
 ---------------------------------------------------------------------
 Center     Atomic      Atomic             Coordinates (Angstroms)
 Number     Number       Type             X           Y           Z
 ---------------------------------------------------------------------
      1         16           0        3.061134    0.482276   -0.000014
      2          6           0        1.316105    0.257393   -0.000003
      3          6           0        0.534038    1.413644    0.000011
      4          6           0       -0.841057    1.302080    0.000009
      5          6           0       -1.445806    0.046491   -0.000002
      6          6           0       -0.656112   -1.098225   -0.000012
      7          6           0        0.725865   -1.000627   -0.000015
      8          1           0        0.995687    2.394684    0.000025
      9          1           0       -1.467838    2.184334    0.000020
     10          1           0       -1.126393   -2.072094   -0.000020
     11          1           0        1.340495   -1.889374   -0.000024
     12          6           0       -2.924529   -0.015584   -0.000000
     13          8           0       -3.653060    0.942615    0.000010
     14          8           0       -3.400628   -1.276861   -0.000010
     15          1           0       -4.365500   -1.215056   -0.000008
     16          9           0        3.535988   -1.097331    0.000034
 ---------------------------------------------------------------------

 SCF Done:  E(RHF) =  -915.306304062     A.U. after    2 cycles

 The electronic state is 1-A.
 Alpha  occ. eigenvalues --  -94.05772 -26.49271 -20.60792 -20.54203 -11.40378
 Alpha  occ. eigenvalues --  -11.31301 -11.27643 -11.27492 -11.27144 -11.26743
 Alpha  occ. eigenvalues --  -11.26623  -8.33107  -6.30915  -6.30603  -6.30307
 Alpha  occ. eigenvalues --   -1.59919  -1.55925  -1.46023  -1.20191  -1.10558
 Alpha  occ. eigenvalues --   -1.05285  -1.00563  -0.89859  -0.87626  -0.82066
 Alpha  occ. eigenvalues --   -0.75718  -0.72335  -0.70740  -0.68751  -0.67787
 Alpha  occ. eigenvalues --   -0.65932  -0.65154  -0.64373  -0.62856  -0.61946
 Alpha  occ. eigenvalues --   -0.58360  -0.55504  -0.53618  -0.51373  -0.48899
 Alpha  occ. eigenvalues --   -0.45700  -0.44443  -0.37787  -0.34207
 Alpha virt. eigenvalues --    0.03318   0.03373   0.04122   0.05237   0.05415
 Alpha virt. eigenvalues --    0.05741   0.07897   0.08597   0.08962   0.09023
 Alpha virt. eigenvalues --    0.09642   0.09942   0.11010   0.12750   0.13238

 Mulliken charges:
               1
     1  S    0.834570
     2  C   -0.151789
     3  C   -0.115569
     4  C    0.112028
     5  C    1.433010
     6  C    0.263245
     7  C    0.054436
     8  H   -0.211896
     9  H   -0.346780
    10  H   -0.280028
    11  H   -0.192862
    12  C    1.777164
    13  O   -1.387842
    14  O   -1.644692
    15  H    0.574485
    16  F   -0.717477
 Sum of Mulliken charges =  -0.00000

 Dipole moment (field-independent basis, Debye):
    X=              0.0197    Y=             -0.5882    Z=             -0.0000  Tot=              0.5885

 Test job not archived.
 1\1\GINC-SE131\SP\RHF\Aug-CC-pVDZ\C7H5F1O2S1\OHZDE\09-Apr-2025\0\\#t h
 f aug-cc-pvdz iop(5/13=1,5/36=2,99/5=2) pseudo=read geom=check guess=(
 read,tcheck) scf=(maxcycle=1)\\title\\0,1\S,0,-3.061134,0.482276,0.000
 014\C,0,-1.316105,0.257393,0.000003\C,0,-0.534038,1.413644,-0.000011\C
 ,0,0.841057,1.30208,-0.000009\C,0,1.445806,0.046491,0.000002\C,0,0.656
 112,-1.098225,0.000012\C,0,-0.725865,-1.000627,0.000015\H,0,-0.995687,
 2.394684,-0.000025\H,0,1.467838,2.184334,-0.00002\H,0,1.126393,-2.0720
 94,0.00002\H,0,-1.340495,-1.889374,0.000024\C,0,2.924529,-0.015584,0.\

 Normal termination of Gaussian 16 at Wed Apr  9 00:55:58 2025.
