 Gaussian 16, Revision C.01,

 ----------------------------------------------------------------------
 #t hf aug-cc-pvdz symm=none int=(grid=ultrafine) guess=(read,tcheck) s
 table=opt
 ----------------------------------------------------------------------
 -----
 title
 -----
 Symbolic Z-matrix:
 Charge =  0 Multiplicity = 2

 SCF Done:  E(UHF) =  -1565.97237927     A.U. after   19 cycles

 1\1\GINC-SE120\Stability\UHF\Aug-CC-pVDZ\C1Cl3O2\OHZDE\09-Apr-2025\0\\
 #t hf aug-cc-pvdz symm=none int=(grid=ultrafine) guess=(read,tcheck) s
 table=opt\\title\\0,2\O,0,-1.855519,0.,1.24389\O,0,-0.55635,0.,1.33331
 7\C,0,0.099228,0.,0.044159\Cl,0,1.804678,-0.000005,0.463997\Cl,0,-0.35
 2355,-1.452606,-0.846195\Cl,0,-0.352347,1.452612,-0.84619\\Version=ES6
 4L-G16RevC.01\HF=-1565.9723793\S2=0.761339\S2-1=0.\S2A=0.750097\RMSD=9
 .747e-09\Dipole=0.1900753,-0.0000009,-0.242883\Quadrupole=0.1239755,1.
 0882852,-1.2122608,0.0000009,0.963758,0.0000015\PG=Unknown\\@

 Normal termination of Gaussian 16 at Wed Apr  9 00:58:10 2025.
 Gaussian 16:  ES64L-G16RevC.01  3-Jul-2019

 ----------------------------------------------------------------------
 #t hf aug-cc-pvdz iop(5/13=1,5/36=2,99/5=2) pseudo=read geom=check gue
 ss=(read,tcheck) scf=(maxcycle=1)
 ----------------------------------------------------------------------
 -----
 title
 -----
 Structure from the checkpoint file:  "BH10_166_forward_mol3.chk"
 Charge =  0 Multiplicity = 2

                         Standard orientation:
 ---------------------------------------------------------------------
 Center     Atomic      Atomic             Coordinates (Angstroms)
 Number     Number       Type             X           Y           Z
 ---------------------------------------------------------------------
      1          8           0       -1.855519    0.000001    1.243890
      2          8           0       -0.556350    0.000000    1.333317
      3          6           0        0.099228   -0.000000    0.044159
      4         17           0        1.804678   -0.000006    0.463997
      5         17           0       -0.352356   -1.452606   -0.846195
      6         17           0       -0.352346    1.452612   -0.846190
 ---------------------------------------------------------------------

 SCF Done:  E(UHF) =  -1566.37171568     A.U. after    2 cycles

 The electronic state is 2-A.
 Alpha  occ. eigenvalues -- -105.61711-105.61380-105.61380 -20.70595 -20.70267
 Alpha  occ. eigenvalues --  -11.51407 -10.66616 -10.66296 -10.66287  -7.83570
 Alpha  occ. eigenvalues --   -7.83264  -7.83254  -7.83104  -7.83104  -7.82784
 Alpha  occ. eigenvalues --   -7.82782  -7.82782  -7.82780  -1.75241  -1.34282
 Alpha  occ. eigenvalues --   -1.19385  -1.09831  -1.09751  -0.87063  -0.79940
 Alpha  occ. eigenvalues --   -0.75243  -0.74142  -0.67186  -0.64042  -0.55962
 Alpha  occ. eigenvalues --   -0.54175  -0.52930  -0.51629  -0.50814  -0.49315
 Alpha  occ. eigenvalues --   -0.49086  -0.47662
 Alpha virt. eigenvalues --    0.05902   0.07917   0.08169   0.09116   0.10856
 Alpha virt. eigenvalues --    0.12089   0.12483   0.13874   0.14452   0.15104
 Alpha virt. eigenvalues --    0.17262   0.18397   0.18578   0.18608   0.20897

  Beta  occ. eigenvalues -- -105.61717-105.61375-105.61374 -20.69550 -20.66524
  Beta  occ. eigenvalues --  -11.51485 -10.66622 -10.66291 -10.66282  -7.83588
  Beta  occ. eigenvalues --   -7.83233  -7.83223  -7.83117  -7.83105  -7.82787
  Beta  occ. eigenvalues --   -7.82785  -7.82777  -7.82775  -1.69431  -1.28016
  Beta  occ. eigenvalues --   -1.15914  -1.09653  -1.09653  -0.85874  -0.74366
  Beta  occ. eigenvalues --   -0.72453  -0.70415  -0.63321  -0.58828  -0.54229
  Beta  occ. eigenvalues --   -0.52806  -0.52047  -0.49532  -0.48935  -0.48617
  Beta  occ. eigenvalues --   -0.47662
  Beta virt. eigenvalues --    0.05906   0.06861   0.07955   0.08198   0.09145
  Beta virt. eigenvalues --    0.10920   0.12129   0.13221   0.13932   0.14928
  Beta virt. eigenvalues --    0.15205   0.17553   0.18402   0.18624   0.18726

 Mulliken charges and spin densities:
               1          2
     1  O   -0.216022   0.960966
     2  O   -0.443104   0.048318
     3  C   -0.025222  -0.009007
     4  Cl   0.222693  -0.004234
     5  Cl   0.230828   0.001979
     6  Cl   0.230827   0.001979
 Sum of Mulliken charges =  -0.00000   1.00000

 Dipole moment (field-independent basis, Debye):
    X=              0.4454    Y=             -0.0000    Z=             -0.5291  Tot=              0.6916
                          Isotropic Fermi Contact Couplings
        Atom                 a.u.       MegaHertz       Gauss      10(-4) cm-1
     1  O(17)              0.26850    -162.76500     -58.07860     -54.29256
     2  O(17)              0.06950     -42.12847     -15.03248     -14.05254
     3  C(13)             -0.01526     -17.15095      -6.11989      -5.72094
     4  Cl(35)            -0.00333      -1.46220      -0.52175      -0.48774
     5  Cl(35)            -0.00488      -2.13874      -0.76315      -0.71341
     6  Cl(35)            -0.00488      -2.13873      -0.76315      -0.71340
 --------------------------------------------------------
       Center         ----  Spin Dipole Couplings  ----

 Normal termination of Gaussian 16 at Wed Apr  9 00:58:13 2025.
