 Gaussian 16, Revision C.01,

 ----------------------------------------------------------------------
 #t hf aug-cc-pvdz symm=none int=(grid=ultrafine) guess=(read,tcheck) s
 table=(opt,rrhf)
 ----------------------------------------------------------------------
 -----
 title
 -----
 Symbolic Z-matrix:
 Charge = -1 Multiplicity = 1

 SCF Done:  E(RHF) =  -718.908052795     A.U. after   14 cycles
 Normal termination of Gaussian 16 at Wed Apr  9 01:23:44 2025.
 Gaussian 16:  ES64L-G16RevC.01  3-Jul-2019

 ----------------------------------------------------------------------
 #t hf aug-cc-pvdz iop(5/13=1,5/36=2,99/5=2) pseudo=read geom=check gue
 ss=(read,tcheck) scf=(maxcycle=1)
 ----------------------------------------------------------------------
 -----
 title
 -----
 Structure from the checkpoint file:  "BH10_321_forward_mol3.chk"
 Charge = -1 Multiplicity = 1

                         Standard orientation:
 ---------------------------------------------------------------------
 Center     Atomic      Atomic             Coordinates (Angstroms)
 Number     Number       Type             X           Y           Z
 ---------------------------------------------------------------------
      1         16           0       -2.010852   -0.473170   -0.146556
      2          6           0       -0.922909    0.497514    0.971586
      3          6           0        0.439312    0.846559    0.363098
      4          1           0       -0.756138   -0.051547    1.902972
      5          1           0       -1.409985    1.441627    1.227812
      6          6           0        1.330941   -0.373359    0.085229
      7          8           0        2.527501   -0.332622    0.290153
      8          8           0        0.756490   -1.441350   -0.437968
      9          1           0       -0.259181   -1.305108   -0.477117
     10          7           0        0.238360    1.646879   -0.847276
     11          1           0        1.006563    1.445970    1.081022
     12          1           0        1.078856    1.668916   -1.412561
     13          1           0       -0.510992    1.210203   -1.383251
 ---------------------------------------------------------------------

 SCF Done:  E(RHF) =  -719.297650994     A.U. after    2 cycles

 The electronic state is 1-A.
 Alpha  occ. eigenvalues --  -93.70755 -20.42166 -20.37814 -15.35456 -11.23155
 Alpha  occ. eigenvalues --  -11.13455 -11.10690  -7.98860  -5.96738  -5.96470
 Alpha  occ. eigenvalues --   -5.96421  -1.37834  -1.28852  -1.05717  -0.88593
 Alpha  occ. eigenvalues --   -0.78204  -0.66928  -0.65697  -0.57637  -0.56573
 Alpha  occ. eigenvalues --   -0.51124  -0.48671  -0.44520  -0.42574  -0.40780
 Alpha  occ. eigenvalues --   -0.40175  -0.33144  -0.30948  -0.28346  -0.26823
 Alpha  occ. eigenvalues --   -0.15969  -0.15160
 Alpha virt. eigenvalues --    0.13650   0.14174   0.15324   0.15498   0.17113
 Alpha virt. eigenvalues --    0.17648   0.19952   0.20972   0.22481   0.24683
 Alpha virt. eigenvalues --    0.25336   0.25830   0.26919   0.27321   0.27819

 Mulliken charges:
               1
     1  S   -0.571868
     2  C   -0.459223
     3  C   -1.209841
     4  H    0.139825
     5  H    0.181595
     6  C    2.160975
     7  O   -1.350398
     8  O   -1.447098
     9  H    0.719474
    10  N    0.480000
    11  H   -0.008571
    12  H    0.108183
    13  H    0.256948
 Sum of Mulliken charges =  -1.00000

 Dipole moment (field-independent basis, Debye):
    X=              2.1485    Y=              2.0670    Z=              0.5166  Tot=              3.0258

 Test job not archived.
 1\1\GINC-SE461\SP\RHF\Aug-CC-pVDZ\C3H6N1O2S1(1-)\OHZDE\09-Apr-2025\0\\
 #t hf aug-cc-pvdz iop(5/13=1,5/36=2,99/5=2) pseudo=read geom=check gue
 ss=(read,tcheck) scf=(maxcycle=1)\\title\\-1,1\S,0,-2.010852,-0.473171
 ,-0.146556\C,0,-0.922909,0.497514,0.971586\C,0,0.439312,0.846559,0.363
 098\H,0,-0.756138,-0.051547,1.902972\H,0,-1.409985,1.441627,1.227812\C
 ,0,1.330941,-0.373359,0.085229\O,0,2.527501,-0.332621,0.290153\O,0,0.7
 56491,-1.44135,-0.437968\H,0,-0.259181,-1.305108,-0.477117\N,0,0.23836
 ,1.646879,-0.847276\H,0,1.006563,1.44597,1.081022\H,0,1.078856,1.66891

 Normal termination of Gaussian 16 at Wed Apr  9 01:23:49 2025.
