 Gaussian 16, Revision C.01,

 ----------------------------------------------------------------------
 #t hf aug-cc-pvdz symm=none int=(grid=ultrafine) guess=(read,tcheck) s
 table=(opt,rrhf)
 ----------------------------------------------------------------------
 -----
 title
 -----
 Symbolic Z-matrix:
 Charge =  0 Multiplicity = 1

 SCF Done:  E(RHF) =  -965.964503547     A.U. after   15 cycles
 Normal termination of Gaussian 16 at Wed Apr  9 01:44:26 2025.
 Gaussian 16:  ES64L-G16RevC.01  3-Jul-2019

 ----------------------------------------------------------------------
 #t hf aug-cc-pvdz iop(5/13=1,5/36=2,99/5=2) pseudo=read geom=check gue
 ss=(read,tcheck) scf=(maxcycle=1)
 ----------------------------------------------------------------------
 -----
 title
 -----
 Structure from the checkpoint file:  "BH10_344_forward_mol1.chk"
 Charge =  0 Multiplicity = 1

                         Standard orientation:
 ---------------------------------------------------------------------
 Center     Atomic      Atomic             Coordinates (Angstroms)
 Number     Number       Type             X           Y           Z
 ---------------------------------------------------------------------
      1          6           0       -0.053862   -1.860226   -0.340594
      2          6           0        1.015339   -1.083373   -0.842176
      3          1           0        0.042934   -2.156729    0.699898
      4          1           0        1.115722   -0.847203   -1.892980
      5          1           0       -0.378413   -2.674573   -0.983090
      6         16           0        1.715767    0.058522    0.204015
      7          8           0        1.439640    1.446226   -0.238750
      8          8           0        1.346793   -0.284622    1.589136
      9          6           0        3.479400   -0.145122    0.077029
     10          6           0        4.255215    0.808984   -0.401513
     11          1           0        3.819636   -1.110539    0.429781
     12          1           0        5.328149    0.674990   -0.470540
     13          1           0        3.824300    1.747644   -0.729148
     14          6           0       -2.785416   -1.442789    0.079547
     15          6           0       -1.557760    0.317937   -0.291642
     16          6           0       -3.598092   -0.358567    0.185645
     17          1           0       -3.008639   -2.489838    0.196849
     18          1           0       -0.700209    0.954224   -0.480028
     19          1           0       -4.648989   -0.272341    0.403722
     20          7           0       -1.524876   -0.996257   -0.222678
     21          7           0       -2.805815    0.744900   -0.050625
     22          6           0       -3.228928    2.136416   -0.017075
     23          1           0       -3.648496    2.374256    0.959787
     24          1           0       -2.359537    2.766595   -0.190793
     25          1           0       -3.970727    2.324276   -0.792972
 ---------------------------------------------------------------------

 SCF Done:  E(RHF) =  -966.611606587     A.U. after    2 cycles

 The electronic state is 1-A.
 Alpha  occ. eigenvalues --  -94.13800 -20.48331 -20.48291 -15.60103 -15.56101
 Alpha  occ. eigenvalues --  -11.34027 -11.31506 -11.30328 -11.29811 -11.29461
 Alpha  occ. eigenvalues --  -11.24612 -11.23988 -11.17522  -8.39038  -6.37155
 Alpha  occ. eigenvalues --   -6.36981  -6.36874  -1.48947  -1.39933  -1.37199
 Alpha  occ. eigenvalues --   -1.25010  -1.08578  -1.07063  -1.04624  -1.02022
 Alpha  occ. eigenvalues --   -0.93422  -0.88771  -0.85953  -0.81384  -0.78015
 Alpha  occ. eigenvalues --   -0.73299  -0.71352  -0.68358  -0.67371  -0.66939
 Alpha  occ. eigenvalues --   -0.64949  -0.64608  -0.63390  -0.62178  -0.61327
 Alpha  occ. eigenvalues --   -0.60759  -0.58597  -0.57019  -0.54049  -0.53375
 Alpha  occ. eigenvalues --   -0.47287  -0.45060  -0.44261  -0.41417  -0.40135
 Alpha  occ. eigenvalues --   -0.38833  -0.37976  -0.29395
 Alpha virt. eigenvalues --    0.02091   0.03203   0.03576   0.04020   0.04608
 Alpha virt. eigenvalues --    0.04887   0.05295   0.06389   0.06799   0.07593
 Alpha virt. eigenvalues --    0.07810   0.08971   0.09979   0.10323   0.10868

 Mulliken charges:
               1
     1  C   -0.156408
     2  C   -0.381176
     3  H    0.129789
     4  H   -0.235778
     5  H    0.019152
     6  S    3.944439
     7  O   -1.771334
     8  O   -1.695314
     9  C    0.109157
    10  C   -0.026114
    11  H   -0.201555
    12  H   -0.054180
    13  H   -0.020499
    14  C   -0.028118
    15  C   -1.503602
    16  C    0.083141
    17  H   -0.214372
    18  H   -0.060357
    19  H   -0.212512
    20  N    0.938528
    21  N    1.034560
    22  C   -0.167702
    23  H    0.189505
    24  H    0.073135
    25  H    0.207617
 Sum of Mulliken charges =   0.00000

 Dipole moment (field-independent basis, Debye):
    X=             -7.2100    Y=             -0.0532    Z=             -1.9819  Tot=              7.4776

 Test job not archived.
 1\1\GINC-SE094\SP\RHF\Aug-CC-pVDZ\C8H12N2O2S1\OHZDE\09-Apr-2025\0\\#t
 hf aug-cc-pvdz iop(5/13=1,5/36=2,99/5=2) pseudo=read geom=check guess=
 (read,tcheck) scf=(maxcycle=1)\\title\\0,1\C,0,-0.053862,-1.860226,-0.
 340594\C,0,1.015339,-1.083373,-0.842176\H,0,0.042934,-2.156729,0.69989
 8\H,0,1.115722,-0.847203,-1.89298\H,0,-0.378413,-2.674573,-0.98309\S,0
 ,1.715767,0.058522,0.204015\O,0,1.43964,1.446226,-0.23875\O,0,1.346793
 ,-0.284622,1.589136\C,0,3.4794,-0.145122,0.077029\C,0,4.255215,0.80898
 4,-0.401513\H,0,3.819636,-1.110539,0.429781\H,0,5.328149,0.67499,-0.47

 Normal termination of Gaussian 16 at Wed Apr  9 01:44:49 2025.
