 Gaussian 16, Revision C.01,

 ----------------------------------------------------------------------
 #t hf aug-cc-pvdz symm=none int=(grid=ultrafine) guess=(read,tcheck) s
 table=opt
 ----------------------------------------------------------------------
 -----
 title
 -----
 Symbolic Z-matrix:
 Charge =  0 Multiplicity = 2

 SCF Done:  E(UHF) =  -709.182044527     A.U. after   25 cycles

 1\1\GINC-SE365\Stability\UHF\Aug-CC-pVDZ\C8H15S1\OHZDE\09-Apr-2025\0\\
 #t hf aug-cc-pvdz symm=none int=(grid=ultrafine) guess=(read,tcheck) s
 table=opt\\title\\0,2\C,0,0.938215,0.708224,0.342979\C,0,-0.331527,1.0
 7807,1.048094\C,0,-1.465209,1.538394,0.116175\H,0,-0.11232,1.898465,1.
 744206\H,0,-0.677429,0.240158,1.658306\C,0,-1.991746,0.438792,-0.81249
 9\H,0,-1.117402,2.381266,-0.487887\H,0,-2.28912,1.920626,0.72824\C,0,-
 2.721773,-0.64369,-0.076032\H,0,-1.167375,0.004453,-1.3848\H,0,-2.6749
 92,0.895227,-1.537067\C,0,-2.387238,-1.925816,-0.065016\S,0,1.284716,-

 Normal termination of Gaussian 16 at Wed Apr  9 01:06:59 2025.
 Gaussian 16:  ES64L-G16RevC.01  3-Jul-2019

 ----------------------------------------------------------------------
 #t hf aug-cc-pvdz iop(5/13=1,5/36=2,99/5=2) pseudo=read geom=check gue
 ss=(read,tcheck) scf=(maxcycle=1)
 ----------------------------------------------------------------------
 -----
 title
 -----
 Structure from the checkpoint file:  "BH10_27_forward_mol2.chk"
 Charge =  0 Multiplicity = 2

                         Standard orientation:
 ---------------------------------------------------------------------
 Center     Atomic      Atomic             Coordinates (Angstroms)
 Number     Number       Type             X           Y           Z
 ---------------------------------------------------------------------
      1          6           0        0.938215    0.708224    0.342979
      2          6           0       -0.331527    1.078070    1.048094
      3          6           0       -1.465209    1.538394    0.116175
      4          1           0       -0.112320    1.898465    1.744206
      5          1           0       -0.677429    0.240158    1.658306
      6          6           0       -1.991746    0.438792   -0.812499
      7          1           0       -1.117402    2.381266   -0.487887
      8          1           0       -2.289120    1.920626    0.728240
      9          6           0       -2.721773   -0.643690   -0.076032
     10          1           0       -1.167375    0.004453   -1.384800
     11          1           0       -2.674992    0.895227   -1.537067
     12          6           0       -2.387238   -1.925816   -0.065016
     13         16           0        1.284716   -0.994678    0.226302
     14          6           0        1.601925    1.705939   -0.546002
     15          1           0        1.221568    1.663208   -1.577658
     16          1           0        2.683806    1.571298   -0.600382
     17          1           0        1.416489    2.717577   -0.176232
     18          6           0        3.035518   -1.044139   -0.238714
     19          1           0        3.202696   -0.642692   -1.236732
     20          1           0        3.319359   -2.095711   -0.233019
     21          1           0        3.644292   -0.508867    0.489345
     22          1           0       -2.962035   -2.656398    0.491701
     23          1           0       -1.521414   -2.287765   -0.608758
     24          1           0       -3.590573   -0.320648    0.495999
 ---------------------------------------------------------------------

 SCF Done:  E(UHF) =  -709.581378692     A.U. after    2 cycles

 The electronic state is 2-A.
 Alpha  occ. eigenvalues --  -93.94199 -11.26200 -11.25554 -11.23380 -11.23167
 Alpha  occ. eigenvalues --  -11.23030 -11.22886 -11.22681 -11.22004  -8.22327
 Alpha  occ. eigenvalues --   -6.20127  -6.19953  -6.19879  -1.13408  -1.08373
 Alpha  occ. eigenvalues --   -1.03444  -0.99226  -0.93829  -0.89979  -0.82690
 Alpha  occ. eigenvalues --   -0.75779  -0.73051  -0.65076  -0.64570  -0.63070
 Alpha  occ. eigenvalues --   -0.60845  -0.60334  -0.58235  -0.58008  -0.56907
 Alpha  occ. eigenvalues --   -0.54305  -0.51990  -0.50887  -0.49974  -0.47510
 Alpha  occ. eigenvalues --   -0.46993  -0.45099  -0.40601  -0.36164  -0.28354
 Alpha virt. eigenvalues --    0.03258   0.03367   0.03572   0.04013   0.05059
 Alpha virt. eigenvalues --    0.05298   0.05606   0.06219   0.06735   0.07716
 Alpha virt. eigenvalues --    0.08298   0.08442   0.09752   0.10280   0.10910

  Beta  occ. eigenvalues --  -93.94185 -11.26172 -11.23675 -11.23203 -11.23166
  Beta  occ. eigenvalues --  -11.22996 -11.22846 -11.22693 -11.22003  -8.22312
  Beta  occ. eigenvalues --   -6.20233  -6.20028  -6.19607  -1.11021  -1.07857
  Beta  occ. eigenvalues --   -1.02963  -0.98329  -0.93653  -0.89492  -0.82172
  Beta  occ. eigenvalues --   -0.75481  -0.69939  -0.64316  -0.63998  -0.61703
  Beta  occ. eigenvalues --   -0.60607  -0.59700  -0.57573  -0.56688  -0.56226
  Beta  occ. eigenvalues --   -0.54106  -0.51770  -0.49830  -0.49579  -0.47221
  Beta  occ. eigenvalues --   -0.46402  -0.43749  -0.36245  -0.35850
  Beta virt. eigenvalues --    0.03148   0.03391   0.03582   0.04021   0.05062
  Beta virt. eigenvalues --    0.05308   0.05613   0.06191   0.06745   0.07713
  Beta virt. eigenvalues --    0.08267   0.08343   0.09762   0.10175   0.10839

 Mulliken charges and spin densities:
               1          2
     1  C   -0.054298   1.430764
     2  C   -0.367850  -0.274515
     3  C   -0.366386   0.054097
     4  H    0.177710   0.020167
     5  H    0.168146  -0.006819
     6  C   -0.406943  -0.004711
     7  H    0.144764  -0.002769
     8  H    0.101295  -0.000072
     9  C    0.775392   0.000345
    10  H    0.140225  -0.008483
    11  H    0.203292  -0.000411
    12  C   -0.098863   0.001971
    13  S    0.397190  -0.009842
    14  C   -0.667369  -0.246219
    15  H    0.276265   0.046816
    16  H    0.024504   0.010715
    17  H    0.174133   0.004011
    18  C   -0.739427  -0.010840
    19  H    0.236869  -0.002268
    20  H    0.042712  -0.002833
    21  H    0.241496   0.002963
    22  H   -0.130497   0.000399
    23  H   -0.078986  -0.002510
    24  H   -0.193376   0.000046
 Sum of Mulliken charges =  -0.00000   1.00000

 Dipole moment (field-independent basis, Debye):
    X=              1.1652    Y=              1.3687    Z=             -0.4599  Tot=              1.8554
                          Isotropic Fermi Contact Couplings
        Atom                 a.u.       MegaHertz       Gauss      10(-4) cm-1
     1  C(13)              0.26026     292.58625     104.40205      97.59627
     2  C(13)             -0.05823     -65.45996     -23.35774     -21.83509
     3  C(13)              0.04169      46.86812      16.72371      15.63352
     4  H(1)               0.01433      64.03870      22.85060      21.36101
     5  H(1)               0.00199       8.91594       3.18143       2.97404
     6  C(13)             -0.00293      -3.29861      -1.17703      -1.10030
     7  H(1)              -0.00106      -4.71871      -1.68375      -1.57399
     8  H(1)              -0.00016      -0.73204      -0.26121      -0.24418

 Normal termination of Gaussian 16 at Wed Apr  9 01:07:13 2025.
