 Gaussian 16, Revision C.01,

 ----------------------------------------------------------------------
 #t hf aug-cc-pvdz symm=none int=(grid=ultrafine) guess=(read,tcheck) s
 table=(opt,rrhf)
 ----------------------------------------------------------------------
 -----
 title
 -----
 Symbolic Z-matrix:
 Charge =  0 Multiplicity = 1

 SCF Done:  E(RHF) =  -1444.34010676     A.U. after   20 cycles
 Normal termination of Gaussian 16 at Wed Apr  9 02:45:54 2025.
 Gaussian 16:  ES64L-G16RevC.01  3-Jul-2019

 ----------------------------------------------------------------------
 #t hf aug-cc-pvdz iop(5/13=1,5/36=2,99/5=2) pseudo=read geom=check gue
 ss=(read,tcheck) scf=(maxcycle=1)
 ----------------------------------------------------------------------
 -----
 title
 -----
 Structure from the checkpoint file:  "BH10_377_forward_mol1.chk"
 Charge =  0 Multiplicity = 1

                         Standard orientation:
 ---------------------------------------------------------------------
 Center     Atomic      Atomic             Coordinates (Angstroms)
 Number     Number       Type             X           Y           Z
 ---------------------------------------------------------------------
      1          6           0       -5.386186   -2.165413    0.331917
      2          6           0       -4.758030   -0.943563    0.517684
      3          6           0       -3.485932   -0.700217   -0.003443
      4          6           0       -2.850809   -1.731280   -0.702892
      5          6           0       -3.482552   -2.949558   -0.893713
      6          6           0       -4.753211   -3.174631   -0.379612
      7          1           0       -6.374621   -2.328789    0.744669
      8          1           0       -5.260926   -0.160371    1.074113
      9          1           0       -1.844583   -1.588886   -1.075864
     10          1           0       -2.972339   -3.734917   -1.438862
     11          1           0       -5.241214   -4.130361   -0.526079
     12          6           0       -2.853487    0.610125    0.229817
     13          1           0       -3.443363    1.300300    0.817174
     14          6           0       -1.962096    1.144087   -0.698522
     15          1           0       -1.657709    0.533970   -1.537483
     16          6           0       -0.465731    2.762371   -1.706765
     17          6           0       -1.625212    3.333501    0.379757
     18          6           0        0.893995    3.000015   -1.054590
     19          1           0       -0.806361    3.678519   -2.202860
     20          1           0       -0.408468    1.976795   -2.458781
     21          6           0       -0.291554    3.575373    1.083535
     22          1           0       -2.002600    4.272242   -0.041461
     23          1           0       -2.368117    2.962031    1.079535
     24          6           0        0.780674    4.009007    0.086168
     25          1           0        1.597853    3.347480   -1.814665
     26          1           0        1.273066    2.050369   -0.670153
     27          1           0       -0.431742    4.332930    1.858211
     28          1           0        0.015688    2.654926    1.587179
     29          1           0        1.743163    4.121839    0.589456
     30          1           0        0.521029    4.993219   -0.321670
     31          7           0       -1.466279    2.381102   -0.714251
     32          7           0       -0.077653   -0.208632    0.361268
     33          7           0       -0.619117   -0.113339    1.526922
     34          7           0       -1.678544    0.217934    1.890632
     35          6           0        1.252018   -0.577857    0.285237
     36          6           0        2.155000   -0.775737    1.333287
     37          6           0        1.768499   -0.736495   -1.005187
     38          6           0        3.475666   -1.120086    1.103763
     39          6           0        3.083310   -1.074620   -1.245339
     40          6           0        3.950232   -1.272090   -0.184942
     41          9           0        1.764480   -0.626393    2.602713
     42          9           0        4.298585   -1.299269    2.135081
     43          9           0        5.222745   -1.600041   -0.404311
     44          9           0        3.520923   -1.209681   -2.496069
     45          9           0        0.958247   -0.542209   -2.056461
 ---------------------------------------------------------------------

 SCF Done:  E(RHF) =  -1445.74649040     A.U. after    2 cycles

 The electronic state is 1-A.
 Alpha  occ. eigenvalues --  -26.50860 -26.50599 -26.50498 -26.50425 -26.49848
 Alpha  occ. eigenvalues --  -15.65173 -15.61571 -15.55496 -15.54037 -11.36984
 Alpha  occ. eigenvalues --  -11.36896 -11.36264 -11.36023 -11.35969 -11.33078
 Alpha  occ. eigenvalues --  -11.32368 -11.29054 -11.29000 -11.25015 -11.24825
 Alpha  occ. eigenvalues --  -11.24721 -11.24697 -11.24621 -11.23806 -11.23773
 Alpha  occ. eigenvalues --  -11.23334 -11.23199 -11.23094  -1.65321  -1.64581
 Alpha  occ. eigenvalues --   -1.63559  -1.62795  -1.62354  -1.46917  -1.30561
 Alpha  occ. eigenvalues --   -1.27793  -1.19809  -1.16036  -1.11829  -1.07235
 Alpha  occ. eigenvalues --   -1.06931  -1.05781  -1.05635  -1.01431  -1.00146
 Alpha  occ. eigenvalues --   -0.94878  -0.93652  -0.90726  -0.89696  -0.85547
 Alpha  occ. eigenvalues --   -0.85472  -0.83497  -0.82347  -0.81106  -0.79582
 Alpha  occ. eigenvalues --   -0.78603  -0.77008  -0.75124  -0.74724  -0.74172
 Alpha  occ. eigenvalues --   -0.74100  -0.73843  -0.72392  -0.72009  -0.71187
 Alpha  occ. eigenvalues --   -0.70899  -0.69351  -0.69171  -0.68189  -0.67683
 Alpha  occ. eigenvalues --   -0.67609  -0.66227  -0.66065  -0.65638  -0.65173
 Alpha  occ. eigenvalues --   -0.64340  -0.63468  -0.61898  -0.61798  -0.61217
 Alpha  occ. eigenvalues --   -0.60749  -0.59669  -0.59361  -0.58137  -0.57093
 Alpha  occ. eigenvalues --   -0.56146  -0.54763  -0.53708  -0.52741  -0.51752
 Alpha  occ. eigenvalues --   -0.51062  -0.50190  -0.49481  -0.49174  -0.48867
 Alpha  occ. eigenvalues --   -0.47224  -0.46706  -0.38428  -0.37051  -0.34419
 Alpha  occ. eigenvalues --   -0.33794  -0.29420
 Alpha virt. eigenvalues --    0.01952   0.02635   0.02739   0.02885   0.03169
 Alpha virt. eigenvalues --    0.03633   0.03890   0.04708   0.05169   0.05848
 Alpha virt. eigenvalues --    0.06238   0.06476   0.07068   0.07707   0.08276

 Mulliken charges:
               1
     1  C    0.246762
     2  C   -0.017952
     3  C    1.097897
     4  C    1.085540
     5  C   -0.328235
     6  C    0.188796
     7  H   -0.254892
     8  H   -0.405093
     9  H   -0.348923
    10  H   -0.295940
    11  H   -0.236023
    12  C    0.239164
    13  H   -0.378232
    14  C   -1.234195
    15  H   -0.252871
    16  C   -0.694333
    17  C   -0.625306
    18  C    0.082965
    19  H    0.033590
    20  H   -0.012568
    21  C    0.136127
    22  H    0.035273
    23  H   -0.084747
    24  C   -0.367012
    25  H    0.114337
    26  H    0.075311
    27  H    0.104094
    28  H    0.161793
    29  H    0.109761
    30  H    0.170580
    31  N    2.514642
    32  N    0.933978
    33  N   -1.614052
    34  N    1.445247
    35  C   -4.014612
    36  C    2.202137
    37  C    2.550600
    38  C    0.733169
    39  C    0.655642
    40  C    1.534125
    41  F   -1.065853
    42  F   -1.005468
    43  F   -0.979162
    44  F   -1.014630
    45  F   -1.221432
 Sum of Mulliken charges =   0.00000

 Dipole moment (field-independent basis, Debye):
    X=             -2.4105    Y=              4.8608    Z=             -2.1754  Tot=              5.8456

 Test job not archived.
 1\1\GINC-SE284\SP\RHF\Aug-CC-pVDZ\C19H17F5N4\OHZDE\09-Apr-2025\0\\#t h
 f aug-cc-pvdz iop(5/13=1,5/36=2,99/5=2) pseudo=read geom=check guess=(
 read,tcheck) scf=(maxcycle=1)\\title\\0,1\C,0,-5.386186,-2.165413,0.33
 1917\C,0,-4.75803,-0.943563,0.517684\C,0,-3.485932,-0.700217,-0.003443
 \C,0,-2.850809,-1.73128,-0.702892\C,0,-3.482552,-2.949558,-0.893713\C,
 0,-4.753211,-3.174631,-0.379612\H,0,-6.374621,-2.328789,0.744669\H,0,-
 5.260926,-0.160371,1.074113\H,0,-1.844583,-1.588886,-1.075864\H,0,-2.9
 72339,-3.734917,-1.438862\H,0,-5.241214,-4.130361,-0.526079\C,0,-2.853

 Normal termination of Gaussian 16 at Wed Apr  9 02:48:29 2025.
