 Gaussian 16, Revision C.01,

 ----------------------------------------------------------------------
 #t hf aug-cc-pvdz symm=none int=(grid=ultrafine) guess=(read,tcheck) s
 table=(opt,rrhf)
 ----------------------------------------------------------------------
 -----
 title
 -----
 Symbolic Z-matrix:
 Charge =  0 Multiplicity = 1

 SCF Done:  E(RHF) =  -726.889613495     A.U. after   17 cycles
 Normal termination of Gaussian 16 at Wed Apr  9 01:41:56 2025.
 Gaussian 16:  ES64L-G16RevC.01  3-Jul-2019

 ----------------------------------------------------------------------
 #t hf aug-cc-pvdz iop(5/13=1,5/36=2,99/5=2) pseudo=read geom=check gue
 ss=(read,tcheck) scf=(maxcycle=1)
 ----------------------------------------------------------------------
 -----
 title
 -----
 Structure from the checkpoint file:  "BH10_343_forward_mol1.chk"
 Charge =  0 Multiplicity = 1

                         Standard orientation:
 ---------------------------------------------------------------------
 Center     Atomic      Atomic             Coordinates (Angstroms)
 Number     Number       Type             X           Y           Z
 ---------------------------------------------------------------------
      1          6           0        2.125135   -1.201140   -0.341756
      2          6           0        3.494051   -1.078406   -0.504822
      3          6           0        4.147442    0.108811   -0.195138
      4          6           0        3.400263    1.176367    0.287996
      5          6           0        2.030891    1.066754    0.459071
      6          6           0        1.359790   -0.131266    0.155183
      7          1           0        1.629528   -2.130260   -0.595756
      8          1           0        4.059069   -1.923097   -0.882963
      9          1           0        5.217985    0.200384   -0.328732
     10          1           0        3.890938    2.110823    0.536611
     11          1           0        1.462509    1.908601    0.836001
     12          6           0       -0.046535   -0.242487    0.309781
     13          6           0       -1.031175   -0.505460    1.050668
     14          1           0       -1.300891   -0.832118    2.044045
     15          1           0       -2.499376   -1.116678   -1.167100
     16         15           0       -2.718841   -0.236339   -0.095830
     17          6           0       -2.521448    1.407239   -0.846308
     18          1           0       -2.906663    2.163456   -0.160402
     19          1           0       -1.456481    1.570534   -1.007331
     20          1           0       -3.050408    1.480584   -1.796247
     21          6           0       -4.544770   -0.377997    0.168234
     22          1           0       -4.786757   -1.377865    0.529154
     23          1           0       -4.856428    0.344439    0.923963
     24          1           0       -5.102273   -0.188207   -0.751251
 ---------------------------------------------------------------------

 SCF Done:  E(RHF) =  -727.344322382     A.U. after    2 cycles

 The electronic state is 1-A.
 Alpha  occ. eigenvalues --  -84.32343 -11.26828 -11.25270 -11.25109 -11.24138
 Alpha  occ. eigenvalues --  -11.21912 -11.21883 -11.20767 -11.20715 -11.20351
 Alpha  occ. eigenvalues --  -11.18923  -6.79279  -4.31878  -4.31800  -4.31490
 Alpha  occ. eigenvalues --   -1.13343  -1.06309  -1.03272  -0.99035  -0.97832
 Alpha  occ. eigenvalues --   -0.96575  -0.83638  -0.80723  -0.79310  -0.72646
 Alpha  occ. eigenvalues --   -0.68275  -0.63723  -0.62760  -0.61905  -0.61777
 Alpha  occ. eigenvalues --   -0.59340  -0.58813  -0.58632  -0.57161  -0.51757
 Alpha  occ. eigenvalues --   -0.50907  -0.49691  -0.49125  -0.47859  -0.46368
 Alpha  occ. eigenvalues --   -0.37716  -0.35202  -0.32458  -0.22505
 Alpha virt. eigenvalues --    0.02162   0.03281   0.03341   0.04146   0.04714
 Alpha virt. eigenvalues --    0.04908   0.05698   0.06180   0.06474   0.06663
 Alpha virt. eigenvalues --    0.07259   0.08351   0.09354   0.10098   0.11145

 Mulliken charges:
               1
     1  C    0.170201
     2  C   -0.026665
     3  C    0.032656
     4  C   -0.090906
     5  C    0.128444
     6  C    1.159218
     7  H   -0.310220
     8  H   -0.242214
     9  H   -0.235159
    10  H   -0.241048
    11  H   -0.330485
    12  C   -0.379705
    13  C   -0.195149
    14  H   -0.286881
    15  H    0.942626
    16  P    0.742349
    17  C   -0.712044
    18  H    0.162082
    19  H    0.077370
    20  H    0.118477
    21  C   -0.816038
    22  H    0.082867
    23  H    0.150924
    24  H    0.099300
 Sum of Mulliken charges =   0.00000

 Dipole moment (field-independent basis, Debye):
    X=             -6.8465    Y=              0.2129    Z=             -0.1074  Tot=              6.8506

 Test job not archived.
 1\1\GINC-SE149\SP\RHF\Aug-CC-pVDZ\C10H13P1\OHZDE\09-Apr-2025\0\\#t hf
 aug-cc-pvdz iop(5/13=1,5/36=2,99/5=2) pseudo=read geom=check guess=(re
 ad,tcheck) scf=(maxcycle=1)\\title\\0,1\C,0,2.125135,-1.20114,-0.34175
 6\C,0,3.494051,-1.078406,-0.504822\C,0,4.147442,0.108811,-0.195138\C,0
 ,3.400263,1.176367,0.287996\C,0,2.030891,1.066754,0.459071\C,0,1.35979
 ,-0.131266,0.155183\H,0,1.629528,-2.13026,-0.595756\H,0,4.059069,-1.92
 3097,-0.882963\H,0,5.217985,0.200384,-0.328732\H,0,3.890938,2.110823,0
 .536611\H,0,1.462509,1.908601,0.836001\C,0,-0.046535,-0.242487,0.30978

 Normal termination of Gaussian 16 at Wed Apr  9 01:42:13 2025.
