 Gaussian 16, Revision C.01,

 ----------------------------------------------------------------------
 #t hf aug-cc-pvdz symm=none int=(grid=ultrafine) guess=(read,tcheck) s
 table=opt
 ----------------------------------------------------------------------
 -----
 title
 -----
 Symbolic Z-matrix:
 Charge =  0 Multiplicity = 2

 SCF Done:  E(UHF) =  -515.188568228     A.U. after   17 cycles
 Normal termination of Gaussian 16 at Wed Apr  9 00:55:08 2025.
 Gaussian 16:  ES64L-G16RevC.01  3-Jul-2019

 ----------------------------------------------------------------------
 #t hf aug-cc-pvdz iop(5/13=1,5/36=2,99/5=2) pseudo=read geom=check gue
 ss=(read,tcheck) scf=(maxcycle=1)
 ----------------------------------------------------------------------
 -----
 title
 -----
 Structure from the checkpoint file:  "BH10_102_forward_mol3.chk"
 Charge =  0 Multiplicity = 2

                         Standard orientation:
 ---------------------------------------------------------------------
 Center     Atomic      Atomic             Coordinates (Angstroms)
 Number     Number       Type             X           Y           Z
 ---------------------------------------------------------------------
      1          6           0        0.383108    0.007994   -0.178738
      2          6           0        1.076546    1.309362    0.037367
      3          6           0        1.124880   -1.271719    0.010758
      4          1           0        2.088940    1.272544   -0.372309
      5          1           0        1.164677    1.553047    1.106881
      6          1           0        0.551522    2.140462   -0.440316
      7          1           0        2.091247   -1.227770   -0.498059
      8          1           0        0.572630   -2.125726   -0.386710
      9          1           0        1.328768   -1.477111    1.072470
     10         16           0       -1.353599   -0.099334    0.034739
     11          1           0       -1.647408    1.180077   -0.254098
 ---------------------------------------------------------------------

 SCF Done:  E(UHF) =  -515.377277961     A.U. after    2 cycles

 The electronic state is 2-A.
 Alpha  occ. eigenvalues --  -93.95430 -11.26892 -11.23916 -11.23660  -8.23571
 Alpha  occ. eigenvalues --   -6.21398  -6.21238  -6.21144  -1.12432  -0.98354
 Alpha  occ. eigenvalues --   -0.95548  -0.76710  -0.63518  -0.62577  -0.60592
 Alpha  occ. eigenvalues --   -0.55798  -0.52954  -0.51954  -0.47507  -0.43180
 Alpha  occ. eigenvalues --   -0.29942
 Alpha virt. eigenvalues --    0.03580   0.04280   0.04812   0.05179   0.06879
 Alpha virt. eigenvalues --    0.07144   0.07692   0.10157   0.11350   0.13288
 Alpha virt. eigenvalues --    0.14077   0.15304   0.16150   0.16331   0.16805

  Beta  occ. eigenvalues --  -93.95415 -11.24283 -11.24192 -11.23963  -8.23556
  Beta  occ. eigenvalues --   -6.21485  -6.21309  -6.20890  -1.08867  -0.97882
  Beta  occ. eigenvalues --   -0.95505  -0.72192  -0.62319  -0.59825  -0.58423
  Beta  occ. eigenvalues --   -0.54876  -0.52721  -0.51290  -0.46109  -0.38530
  Beta virt. eigenvalues --    0.03584   0.04296   0.04794   0.05038   0.06896
  Beta virt. eigenvalues --    0.07179   0.07713   0.09925   0.11152   0.11890
  Beta virt. eigenvalues --    0.13749   0.14410   0.15374   0.16250   0.16512

 Mulliken charges and spin densities:
               1          2
     1  C   -0.553211   1.342238
     2  C   -0.444580  -0.207826
     3  C   -0.438330  -0.243016
     4  H    0.162309   0.005373
     5  H    0.257507   0.047948
     6  H    0.116801   0.005149
     7  H    0.174302   0.008734
     8  H    0.128609   0.007586
     9  H    0.265898   0.045021
    10  S    0.008087   0.007657
    11  H    0.322606  -0.018865
 Sum of Mulliken charges =  -0.00000   1.00000

 Dipole moment (field-independent basis, Debye):
    X=              1.2692    Y=              0.8815    Z=             -0.0823  Tot=              1.5474
                          Isotropic Fermi Contact Couplings
        Atom                 a.u.       MegaHertz       Gauss      10(-4) cm-1
     1  C(13)              0.27938     314.07225     112.06879     104.76322
     2  C(13)             -0.04703     -52.87164     -18.86591     -17.63608
     3  C(13)             -0.05314     -59.74384     -21.31809     -19.92840
     4  H(1)               0.00450      20.13186       7.18355       6.71526
     5  H(1)               0.02203      98.48584      35.14220      32.85134
     6  H(1)               0.00696      31.11511      11.10265      10.37888
     7  H(1)               0.00745      33.31435      11.88739      11.11247
     8  H(1)               0.00496      22.16119       7.90766       7.39218

 Normal termination of Gaussian 16 at Wed Apr  9 00:55:12 2025.
