 Gaussian 16, Revision C.01,

 ----------------------------------------------------------------------
 #t hf aug-cc-pvdz symm=none int=(grid=ultrafine) guess=(read,tcheck) s
 table=opt
 ----------------------------------------------------------------------
 -----
 title
 -----
 Symbolic Z-matrix:
 Charge =  0 Multiplicity = 2

 SCF Done:  E(UHF) =  -676.683755787     A.U. after   17 cycles
 Normal termination of Gaussian 16 at Wed Apr  9 01:43:22 2025.
 Gaussian 16:  ES64L-G16RevC.01  3-Jul-2019

 ----------------------------------------------------------------------
 #t hf aug-cc-pvdz iop(5/13=1,5/36=2,99/5=2) pseudo=read geom=check gue
 ss=(read,tcheck) scf=(maxcycle=1)
 ----------------------------------------------------------------------
 -----
 title
 -----
 Structure from the checkpoint file:  "BH10_32_reverse_mol2.chk"
 Charge =  0 Multiplicity = 2

                         Standard orientation:
 ---------------------------------------------------------------------
 Center     Atomic      Atomic             Coordinates (Angstroms)
 Number     Number       Type             X           Y           Z
 ---------------------------------------------------------------------
      1          6           0        1.074515    2.332030    0.062177
      2          6           0        1.053686    0.855613   -0.146432
      3          8           0        0.085687    0.169406    0.543720
      4          6           0        2.315555    0.124827   -0.336754
      5         14           0       -1.464649   -0.196978    0.014017
      6          6           0       -2.254307   -1.054331    1.466205
      7          1           0       -1.684603   -1.942023    1.749659
      8          1           0       -3.274309   -1.369857    1.231803
      9          1           0       -2.297266   -0.393048    2.334322
     10          6           0       -1.361990   -1.317456   -1.478519
     11          1           0       -0.750853   -0.864009   -2.262590
     12          1           0       -2.355389   -1.504861   -1.895046
     13          1           0       -0.919345   -2.283463   -1.225985
     14          6           0       -2.386472    1.366935   -0.436063
     15          1           0       -2.423160    2.065080    0.403291
     16          1           0       -3.416324    1.133171   -0.720104
     17          1           0       -1.920402    1.876990   -1.282325
     18          1           0        1.802271    2.806864   -0.598059
     19          1           0        0.096689    2.779667   -0.124695
     20          1           0        1.351698    2.577073    1.098852
     21          6           0        2.343647   -1.372481   -0.474570
     22          1           0        3.055247    0.671828   -0.909584
     23          6           0        2.868307   -0.750102    0.780957
     24          1           0        3.050022   -1.798775   -1.175309
     25          1           0        1.395840   -1.889057   -0.412254
     26          1           0        3.937105   -0.739523    0.951949
     27          1           0        2.254714   -0.833824    1.668064
 ---------------------------------------------------------------------

 SCF Done:  E(UHF) =  -677.133680016     A.U. after    2 cycles

 The electronic state is 2-A.
 Alpha  occ. eigenvalues --  -69.53523 -20.52970 -11.27901 -11.22896 -11.22640
 Alpha  occ. eigenvalues --  -11.22572 -11.22210 -11.20815 -11.20629 -11.20623
 Alpha  occ. eigenvalues --   -6.20176  -3.95637  -3.95484  -3.95460  -1.45027
 Alpha  occ. eigenvalues --   -1.14346  -1.02337  -0.97664  -0.93026  -0.92989
 Alpha  occ. eigenvalues --   -0.87624  -0.82034  -0.77424  -0.68226  -0.67905
 Alpha  occ. eigenvalues --   -0.64586  -0.61548  -0.59595  -0.57017  -0.56823
 Alpha  occ. eigenvalues --   -0.56721  -0.56230  -0.54857  -0.54509  -0.53733
 Alpha  occ. eigenvalues --   -0.52962  -0.52172  -0.51200  -0.47557  -0.45184
 Alpha  occ. eigenvalues --   -0.43596  -0.43072  -0.41616  -0.29464
 Alpha virt. eigenvalues --    0.03087   0.03444   0.03575   0.03804   0.05029
 Alpha virt. eigenvalues --    0.05358   0.05502   0.06013   0.06251   0.07565
 Alpha virt. eigenvalues --    0.07679   0.08405   0.08620   0.09042   0.09566

  Beta  occ. eigenvalues --  -69.53509 -20.52682 -11.25390 -11.23243 -11.22474
  Beta  occ. eigenvalues --  -11.22449 -11.22296 -11.20817 -11.20630 -11.20628
  Beta  occ. eigenvalues --   -6.20152  -3.95602  -3.95472  -3.95449  -1.43623
  Beta  occ. eigenvalues --   -1.13639  -0.99877  -0.97587  -0.93023  -0.92977
  Beta  occ. eigenvalues --   -0.86148  -0.81290  -0.76519  -0.67613  -0.65977
  Beta  occ. eigenvalues --   -0.62835  -0.59196  -0.58725  -0.56877  -0.56580
  Beta  occ. eigenvalues --   -0.56089  -0.55516  -0.54722  -0.54364  -0.53714
  Beta  occ. eigenvalues --   -0.51856  -0.51666  -0.50349  -0.47326  -0.43902
  Beta  occ. eigenvalues --   -0.42680  -0.41992  -0.41240
  Beta virt. eigenvalues --    0.03086   0.03456   0.03572   0.03811   0.04986
  Beta virt. eigenvalues --    0.05359   0.05506   0.06015   0.06207   0.07563
  Beta virt. eigenvalues --    0.07668   0.08399   0.08548   0.09050   0.09559

 Mulliken charges and spin densities:
               1          2
     1  C   -0.656792  -0.209837
     2  C    0.670041   1.359041
     3  O   -2.327590   0.025143
     4  C    0.711098  -0.367001
     5  Si   3.343650  -0.006388
     6  C   -0.613659  -0.001128
     7  H    0.005343  -0.000241
     8  H   -0.038153  -0.000689
     9  H   -0.048826   0.000035
    10  C   -0.592055  -0.004839
    11  H   -0.015693   0.002968
    12  H   -0.036614  -0.000796
    13  H    0.000584   0.000010
    14  C   -0.566051  -0.002734
    15  H   -0.023418  -0.000806
    16  H   -0.092301  -0.000828
    17  H   -0.050694   0.000913
    18  H    0.202537  -0.004895
    19  H    0.043729   0.010289
    20  H    0.284763   0.048727
    21  C    0.444786   0.034747
    22  H   -0.256363  -0.005208
    23  C    0.161479   0.142188
    24  H   -0.167137  -0.002602
    25  H   -0.138229  -0.004790
    26  H   -0.143157  -0.003591
    27  H   -0.101281  -0.007688
 Sum of Mulliken charges =  -0.00000   1.00000

 Dipole moment (field-independent basis, Debye):
    X=             -0.4835    Y=              0.2127    Z=             -0.5575  Tot=              0.7680
                          Isotropic Fermi Contact Couplings
        Atom                 a.u.       MegaHertz       Gauss      10(-4) cm-1
     1  C(13)             -0.03721     -41.82680     -14.92484     -13.95192
     2  C(13)              0.27596     310.22926     110.69751     103.48134
     3  O(17)              0.01146      -6.94939      -2.47972      -2.31807
     4  C(13)             -0.05540     -62.27635     -22.22175     -20.77316
     5  Si(29)             0.02887     -25.65824      -9.15550      -8.55867
     6  C(13)             -0.00126      -1.41990      -0.50666      -0.47363
     7  H(1)               0.00002       0.10516       0.03753       0.03508
     8  H(1)              -0.00015      -0.66697      -0.23799      -0.22248

 Normal termination of Gaussian 16 at Wed Apr  9 01:43:47 2025.
