 Gaussian 16, Revision C.01,

 ----------------------------------------------------------------------
 #t hf aug-cc-pvdz symm=none int=(grid=ultrafine) guess=(read,tcheck) s
 table=(opt,rrhf)
 ----------------------------------------------------------------------
 -----
 title
 -----
 Symbolic Z-matrix:
 Charge =  0 Multiplicity = 1

 SCF Done:  E(RHF) =  -1125.15972735     A.U. after   15 cycles
 Normal termination of Gaussian 16 at Wed Apr  9 02:18:15 2025.
 Gaussian 16:  ES64L-G16RevC.01  3-Jul-2019

 ----------------------------------------------------------------------
 #t hf aug-cc-pvdz iop(5/13=1,5/36=2,99/5=2) pseudo=read geom=check gue
 ss=(read,tcheck) scf=(maxcycle=1)
 ----------------------------------------------------------------------
 -----
 title
 -----
 Structure from the checkpoint file:  "BH10_298_forward_mol1.chk"
 Charge =  0 Multiplicity = 1

                         Standard orientation:
 ---------------------------------------------------------------------
 Center     Atomic      Atomic             Coordinates (Angstroms)
 Number     Number       Type             X           Y           Z
 ---------------------------------------------------------------------
      1          6           0        1.871802   -2.468434    0.087719
      2          6           0        1.607128   -1.395582    1.160803
      3          6           0        1.424471    0.424994   -1.330839
      4          1           0        0.946328   -2.998360   -0.158761
      5          6           0        2.872854   -0.544919    1.435013
      6          1           0        2.979699   -0.419053    2.516614
      7          1           0        3.762734   -1.095522    1.112626
      8          1           0        1.201108    1.077799   -2.179638
      9          1           0        1.406641   -1.945647    2.088199
     10          1           0        0.174873    0.217825    1.936958
     11          6           0        2.879334    0.862242    0.833512
     12          1           0        2.105957    1.439803    1.341853
     13          1           0        3.824188    1.346369    1.102505
     14          6           0        2.688721    1.028877   -0.678555
     15          1           0        2.686631    2.107992   -0.866494
     16          1           0        3.569471    0.648960   -1.206249
     17          6           0        1.682670   -0.947154   -1.988777
     18          1           0        0.719186   -1.388321   -2.266206
     19          6           0        2.496625   -1.973427   -1.210296
     20          1           0        2.661618   -2.838139   -1.860801
     21          1           0        3.492357   -1.568263   -1.007962
     22          1           0        2.212128   -0.760494   -2.929977
     23          1           0        2.546823   -3.219401    0.515862
     24          6           0        0.153703    0.449098   -0.432104
     25          1           0       -0.622057    0.003488   -1.065875
     26         14           0       -0.533855    2.206066   -0.196039
     27          6           0        0.182626    3.168363    1.259153
     28          1           0        1.224120    3.450889    1.094897
     29          1           0       -0.389033    4.091098    1.393591
     30          1           0        0.134244    2.611910    2.197967
     31          6           0       -0.226880    3.236289   -1.745208
     32          1           0       -0.721088    4.207478   -1.653320
     33          1           0       -0.626835    2.747985   -2.638042
     34          1           0        0.835227    3.423611   -1.917920
     35          6           0       -2.402665    2.157942    0.040483
     36          1           0       -2.896921    1.796373   -0.864001
     37          1           0       -2.713450    1.511912    0.861302
     38          1           0       -2.775136    3.167022    0.238194
     39          5           0        0.339182   -0.427305    0.913928
     40          6           0       -1.347213   -0.873457    2.005305
     41          6           0       -1.118346   -1.800612    1.062060
     42          1           0       -0.565322   -2.694831    1.311306
     43          6           0       -1.891041   -0.205585    2.978528
     44          1           0       -2.796761   -0.601934    3.425390
     45          1           0       -1.492464    0.726397    3.350415
     46          6           0       -1.886447   -1.910850   -0.200957
     47          8           0       -1.674330   -2.760599   -1.025358
     48          8           0       -2.842436   -0.985750   -0.311848
     49          6           0       -3.592183   -1.009309   -1.530286
     50          1           0       -4.091184   -1.970179   -1.650127
     51          1           0       -4.318081   -0.206136   -1.440844
     52          1           0       -2.933767   -0.839087   -2.382243
 ---------------------------------------------------------------------

 SCF Done:  E(RHF) =  -1126.07059842     A.U. after    2 cycles

 The electronic state is 1-A.
 Alpha  occ. eigenvalues --  -69.49240 -20.59826 -20.54064 -11.40234 -11.34027
 Alpha  occ. eigenvalues --  -11.30189 -11.29018 -11.27777 -11.21706 -11.21068
 Alpha  occ. eigenvalues --  -11.20956 -11.20933 -11.20379 -11.20363 -11.20350
 Alpha  occ. eigenvalues --  -11.19815 -11.19555 -11.19543 -11.19308 -11.18032
 Alpha  occ. eigenvalues --   -7.57141  -6.16291  -3.91631  -3.91631  -3.91594
 Alpha  occ. eigenvalues --   -1.55913  -1.46139  -1.14993  -1.10716  -1.04315
 Alpha  occ. eigenvalues --   -1.03738  -1.03054  -0.98017  -0.97248  -0.94232
 Alpha  occ. eigenvalues --   -0.91758  -0.91593  -0.90317  -0.86495  -0.84137
 Alpha  occ. eigenvalues --   -0.79158  -0.78507  -0.77428  -0.72039  -0.71044
 Alpha  occ. eigenvalues --   -0.70008  -0.69628  -0.68066  -0.66350  -0.65487
 Alpha  occ. eigenvalues --   -0.63706  -0.62812  -0.61347  -0.60365  -0.59425
 Alpha  occ. eigenvalues --   -0.57800  -0.57269  -0.56866  -0.56721  -0.56255
 Alpha  occ. eigenvalues --   -0.55749  -0.55383  -0.54866  -0.54021  -0.53297
 Alpha  occ. eigenvalues --   -0.53213  -0.52613  -0.50123  -0.48852  -0.48349
 Alpha  occ. eigenvalues --   -0.48271  -0.46905  -0.46505  -0.46116  -0.45628
 Alpha  occ. eigenvalues --   -0.44195  -0.43278  -0.42932  -0.42605  -0.41434
 Alpha  occ. eigenvalues --   -0.40922  -0.39892  -0.39053  -0.37042
 Alpha virt. eigenvalues --    0.01808   0.02378   0.02583   0.03564   0.04090
 Alpha virt. eigenvalues --    0.04266   0.04365   0.04544   0.04901   0.06368
 Alpha virt. eigenvalues --    0.06556   0.06760   0.06862   0.06955   0.07390

 Mulliken charges:
               1
     1  C   -0.374389
     2  C   -0.268175
     3  C    0.261234
     4  H    0.116782
     5  C   -0.497654
     6  H    0.022090
     7  H    0.088354
     8  H    0.091142
     9  H   -0.008038
    10  H   -0.060080
    11  C    0.053927
    12  H    0.320681
    13  H   -0.046160
    14  C   -0.476610
    15  H    0.044482
    16  H    0.062880
    17  C   -0.233809
    18  H    0.241966
    19  C   -0.340313
    20  H    0.019370
    21  H    0.295994
    22  H    0.034708
    23  H    0.068732
    24  C   -1.466817
    25  H   -0.304114
    26  Si   2.180373
    27  C   -0.299446
    28  H    0.012655
    29  H   -0.200654
    30  H    0.017325
    31  C   -0.327636
    32  H   -0.256890
    33  H    0.022689
    34  H    0.003064
    35  C   -0.180748
    36  H   -0.085527
    37  H   -0.102258
    38  H   -0.102404
    39  B    2.016454
    40  C   -0.247538
    41  C   -0.236585
    42  H   -0.188511
    43  C    0.360599
    44  H   -0.130065
    45  H   -0.126558
    46  C    2.861930
    47  O   -1.518489
    48  O   -1.672808
    49  C    0.130917
    50  H    0.099484
    51  H    0.030613
    52  H    0.293830
 Sum of Mulliken charges =   0.00000

 Dipole moment (field-independent basis, Debye):
    X=             -2.8642    Y=              0.8543    Z=              2.2906  Tot=              3.7657

 Test job not archived.
 1\1\GINC-SE453\SP\RHF\Aug-CC-pVDZ\C17H31B1O2Si1\OHZDE\09-Apr-2025\0\\#
 t hf aug-cc-pvdz iop(5/13=1,5/36=2,99/5=2) pseudo=read geom=check gues
 s=(read,tcheck) scf=(maxcycle=1)\\title\\0,1\C,0,1.871802,-2.468434,0.
 087719\C,0,1.607128,-1.395582,1.160803\C,0,1.424471,0.424994,-1.330839
 \H,0,0.946328,-2.99836,-0.158761\C,0,2.872854,-0.544919,1.435013\H,0,2
 .979699,-0.419053,2.516614\H,0,3.762734,-1.095522,1.112626\H,0,1.20110
 8,1.077799,-2.179638\H,0,1.406641,-1.945647,2.088199\H,0,0.174873,0.21
 7825,1.936958\C,0,2.879334,0.862242,0.833512\H,0,2.105957,1.439803,1.3

 Normal termination of Gaussian 16 at Wed Apr  9 02:21:26 2025.
