 Gaussian 16, Revision C.01,

 ----------------------------------------------------------------------
 #t hf aug-cc-pvdz symm=none int=(grid=ultrafine) guess=(read,tcheck) s
 table=(opt,rrhf)
 ----------------------------------------------------------------------
 -----
 title
 -----
 Symbolic Z-matrix:
 Charge =  0 Multiplicity = 1

 SCF Done:  E(RHF) =  -1572.23868341     A.U. after   18 cycles
 Normal termination of Gaussian 16 at Wed Apr  9 03:42:52 2025.
 Gaussian 16:  ES64L-G16RevC.01  3-Jul-2019

 ----------------------------------------------------------------------
 #t hf aug-cc-pvdz iop(5/13=1,5/36=2,99/5=2) pseudo=read geom=check gue
 ss=(read,tcheck) scf=(maxcycle=1)
 ----------------------------------------------------------------------
 -----
 title
 -----
 Structure from the checkpoint file:  "BH10_376_reverse_mol2.chk"
 Charge =  0 Multiplicity = 1

                         Standard orientation:
 ---------------------------------------------------------------------
 Center     Atomic      Atomic             Coordinates (Angstroms)
 Number     Number       Type             X           Y           Z
 ---------------------------------------------------------------------
      1          6           0       -5.967721   -1.529844   -0.854710
      2          6           0       -5.133723   -0.544391   -0.345309
      3          6           0       -3.976442   -0.886473    0.345547
      4          6           0       -3.667107   -2.230641    0.529610
      5          6           0       -4.500602   -3.215858    0.021777
      6          6           0       -5.651657   -2.868549   -0.672885
      7          1           0       -6.867773   -1.250769   -1.389067
      8          1           0       -5.383741    0.501386   -0.485435
      9          1           0       -2.777614   -2.509976    1.081128
     10          1           0       -4.252484   -4.259353    0.173399
     11          1           0       -6.302805   -3.639613   -1.066292
     12          6           0       -3.048400    0.200741    0.827539
     13          6           0       -1.835509    0.413366   -0.098835
     14          6           0       -1.252587    2.656479    0.704772
     15          6           0       -0.710132    2.004667   -1.572434
     16          6           0       -1.369408    4.118994    0.295462
     17          1           0       -0.233177    2.461285    1.074042
     18          1           0       -1.930423    2.446030    1.533070
     19          6           0       -0.826531    3.443364   -2.056002
     20          1           0        0.344973    1.798437   -1.327197
     21          1           0       -1.003321    1.309983   -2.361993
     22          6           0       -0.503091    4.416407   -0.925242
     23          1           0       -0.153215    3.596060   -2.903141
     24          1           0       -1.847247    3.613774   -2.411382
     25          1           0       -0.644644    5.448605   -1.253804
     26          1           0        0.553883    4.314348   -0.652443
     27          7           0       -1.578932    1.782981   -0.419102
     28          7           0       -0.818882   -0.256716    0.755893
     29          7           0       -1.265609   -0.389326    2.048983
     30          7           0       -2.472169   -0.145371    2.145279
     31          6           0        0.536916   -0.379505    0.485087
     32          6           0        0.951795   -0.976271   -0.703580
     33          6           0        1.533594    0.084622    1.341840
     34          6           0        2.285771   -1.087294   -1.032535
     35          6           0        2.870325   -0.067396    1.025079
     36          6           0        3.278569   -0.646335   -0.167828
     37          9           0        0.032900   -1.452149   -1.550621
     38          9           0        2.603816   -1.679366   -2.180650
     39          9           0        3.769103    0.427659    1.875200
     40          9           0        1.215818    0.732010    2.460732
     41          6           0        4.718350   -0.758261   -0.551514
     42          8           0        5.152269   -0.437838   -1.622423
     43          8           0        5.446298   -1.261760    0.442610
     44          6           0        6.854421   -1.367121    0.192496
     45          1           0        7.272782   -0.383343   -0.017531
     46          1           0        7.279498   -1.780374    1.102337
     47          1           0        7.037704   -2.025988   -0.655456
     48          1           0       -3.605523    1.131273    0.931267
     49          1           0       -2.416722    4.337534    0.065479
     50          1           0       -1.080825    4.751820    1.138273
     51          1           0       -1.944441   -0.142906   -1.026094
 ---------------------------------------------------------------------

 SCF Done:  E(RHF) =  -1573.77873013     A.U. after    2 cycles

 The electronic state is 1-A.
 Alpha  occ. eigenvalues --  -26.51232 -26.51104 -26.50989 -26.50618 -20.60744
 Alpha  occ. eigenvalues --  -20.55344 -15.62135 -15.57110 -15.55917 -15.50579
 Alpha  occ. eigenvalues --  -11.41627 -11.38217 -11.38179 -11.36971 -11.36914
 Alpha  occ. eigenvalues --  -11.34260 -11.32319 -11.30702 -11.29941 -11.28731
 Alpha  occ. eigenvalues --  -11.26728 -11.26454 -11.25719 -11.24912 -11.24845
 Alpha  occ. eigenvalues --  -11.24786 -11.24658 -11.24586 -11.23401 -11.23396
 Alpha  occ. eigenvalues --  -11.23360  -1.65468  -1.65298  -1.63622  -1.63417
 Alpha  occ. eigenvalues --   -1.56857  -1.47406  -1.44479  -1.28043  -1.24946
 Alpha  occ. eigenvalues --   -1.20481  -1.17329  -1.11308  -1.09657  -1.07705
 Alpha  occ. eigenvalues --   -1.06257  -1.03587  -1.02634  -1.01295  -1.00907
 Alpha  occ. eigenvalues --   -0.95757  -0.93408  -0.90969  -0.88417  -0.87542
 Alpha  occ. eigenvalues --   -0.86009  -0.84798  -0.83777  -0.83563  -0.82286
 Alpha  occ. eigenvalues --   -0.80260  -0.78520  -0.77465  -0.76121  -0.74967
 Alpha  occ. eigenvalues --   -0.74525  -0.74165  -0.73624  -0.72046  -0.71743
 Alpha  occ. eigenvalues --   -0.71031  -0.70744  -0.69860  -0.69068  -0.68658
 Alpha  occ. eigenvalues --   -0.68285  -0.67113  -0.66208  -0.65829  -0.65016
 Alpha  occ. eigenvalues --   -0.64645  -0.64352  -0.63041  -0.62504  -0.62425
 Alpha  occ. eigenvalues --   -0.60895  -0.60681  -0.60066  -0.59533  -0.59208
 Alpha  occ. eigenvalues --   -0.58877  -0.58273  -0.57172  -0.56025  -0.54763
 Alpha  occ. eigenvalues --   -0.54395  -0.53605  -0.52230  -0.51702  -0.51123
 Alpha  occ. eigenvalues --   -0.50802  -0.49352  -0.47980  -0.47955  -0.47157
 Alpha  occ. eigenvalues --   -0.47054  -0.46858  -0.45221  -0.41360  -0.37416
 Alpha  occ. eigenvalues --   -0.36993  -0.35389  -0.34743
 Alpha virt. eigenvalues --    0.02722   0.03097   0.03152   0.03314   0.03467
 Alpha virt. eigenvalues --    0.04087   0.04545   0.04723   0.05196   0.05306
 Alpha virt. eigenvalues --    0.05619   0.05788   0.06467   0.06792   0.07038

 Mulliken charges:
               1
     1  C   -0.030927
     2  C    0.351669
     3  C    1.767344
     4  C    0.116081
     5  C   -0.247911
     6  C    0.304848
     7  H   -0.260668
     8  H   -0.390506
     9  H   -0.324160
    10  H   -0.282736
    11  H   -0.229760
    12  C   -0.699074
    13  C   -3.055894
    14  C   -0.196588
    15  C   -0.316412
    16  C   -0.189452
    17  H    0.122379
    18  H   -0.061665
    19  C   -0.154445
    20  H    0.179341
    21  H   -0.052121
    22  C   -0.273219
    23  H    0.140129
    24  H    0.190387
    25  H    0.099707
    26  H    0.190775
    27  N    2.521977
    28  N    2.983446
    29  N   -0.900189
    30  N    0.565713
    31  C   -3.451061
    32  C    1.937012
    33  C    1.577819
    34  C    1.421985
    35  C    1.597217
    36  C    0.166324
    37  F   -1.145155
    38  F   -1.094468
    39  F   -1.089241
    40  F   -1.167421
    41  C    1.669422
    42  O   -1.296004
    43  O   -1.312669
    44  C    0.310762
    45  H    0.156512
    46  H   -0.028268
    47  H    0.134800
    48  H   -0.178391
    49  H    0.155719
    50  H    0.142950
    51  H   -0.375914
 Sum of Mulliken charges =  -0.00000

 Dipole moment (field-independent basis, Debye):
    X=             -0.1891    Y=              0.9263    Z=             -1.6335  Tot=              1.8874

 Test job not archived.
 1\1\GINC-SE103\SP\RHF\Aug-CC-pVDZ\C21H20F4N4O2\OHZDE\09-Apr-2025\0\\#t
  hf aug-cc-pvdz iop(5/13=1,5/36=2,99/5=2) pseudo=read geom=check guess
 =(read,tcheck) scf=(maxcycle=1)\\title\\0,1\C,0,-5.967721,-1.529844,-0
 .85471\C,0,-5.133723,-0.544391,-0.345309\C,0,-3.976442,-0.886473,0.345
 547\C,0,-3.667107,-2.230641,0.52961\C,0,-4.500602,-3.215858,0.021777\C
 ,0,-5.651657,-2.868549,-0.672885\H,0,-6.867773,-1.250769,-1.389067\H,0
 ,-5.383741,0.501386,-0.485435\H,0,-2.777614,-2.509976,1.081128\H,0,-4.
 252484,-4.259353,0.173399\H,0,-6.302805,-3.639613,-1.066292\C,0,-3.048

 Normal termination of Gaussian 16 at Wed Apr  9 03:46:40 2025.
