 Gaussian 16, Revision C.01,

 ----------------------------------------------------------------------
 #t hf aug-cc-pvdz symm=none int=(grid=ultrafine) guess=(read,tcheck) s
 table=(opt,rrhf)
 ----------------------------------------------------------------------
 -----
 title
 -----
 Symbolic Z-matrix:
 Charge =  0 Multiplicity = 1

 SCF Done:  E(RHF) =  -592.718502051     A.U. after   12 cycles

 1\1\GINC-SE247\Stability\RHF\Aug-CC-pVDZ\C5H10S1\OHZDE\09-Apr-2025\0\\
 #t hf aug-cc-pvdz symm=none int=(grid=ultrafine) guess=(read,tcheck) s
 table=(opt,rrhf)\\title\\0,1\C,0,0.436791,-1.197103,0.150177\C,0,-0.34
 8044,-0.000099,-0.384956\S,0,-2.134554,-0.00002,-0.030783\C,0,1.907046
 ,-0.777126,-0.01391\C,0,1.907143,0.777079,-0.013306\C,0,0.436734,1.197
 209,0.149634\H,0,0.188551,-2.126623,-0.362561\H,0,0.194297,-1.333514,1
 .208641\H,0,-0.306557,-0.000384,-1.478477\H,0,2.305839,-1.154779,-0.95
 7468\H,0,2.532984,-1.189156,0.778542\H,0,2.307176,1.155476,-0.956029\H

 Normal termination of Gaussian 16 at Wed Apr  9 01:00:31 2025.
 Gaussian 16:  ES64L-G16RevC.01  3-Jul-2019

 ----------------------------------------------------------------------
 #t hf aug-cc-pvdz iop(5/13=1,5/36=2,99/5=2) pseudo=read geom=check gue
 ss=(read,tcheck) scf=(maxcycle=1)
 ----------------------------------------------------------------------
 -----
 title
 -----
 Structure from the checkpoint file:  "BH10_186_reverse_mol3.chk"
 Charge =  0 Multiplicity = 1

                         Standard orientation:
 ---------------------------------------------------------------------
 Center     Atomic      Atomic             Coordinates (Angstroms)
 Number     Number       Type             X           Y           Z
 ---------------------------------------------------------------------
      1          6           0        0.436791   -1.197103    0.150177
      2          6           0       -0.348044   -0.000099   -0.384956
      3         16           0       -2.134554   -0.000020   -0.030783
      4          6           0        1.907046   -0.777126   -0.013910
      5          6           0        1.907143    0.777079   -0.013306
      6          6           0        0.436734    1.197209    0.149634
      7          1           0        0.188551   -2.126623   -0.362561
      8          1           0        0.194297   -1.333514    1.208641
      9          1           0       -0.306557   -0.000384   -1.478477
     10          1           0        2.305839   -1.154779   -0.957468
     11          1           0        2.532984   -1.189156    0.778542
     12          1           0        2.307176    1.155476   -0.956029
     13          1           0        2.532185    1.188313    0.780267
     14          1           0        0.188816    2.126351   -0.363944
     15          1           0        0.193691    1.334496    1.207849
     16          1           0       -2.022137    0.000381    1.309870
 ---------------------------------------------------------------------

 SCF Done:  E(RHF) =  -592.994196385     A.U. after    2 cycles

 The electronic state is 1-A.
 Alpha  occ. eigenvalues --  -93.94233 -11.26734 -11.23256 -11.23230 -11.23088
 Alpha  occ. eigenvalues --  -11.23079  -8.22323  -6.20179  -6.20027  -6.19807
 Alpha  occ. eigenvalues --   -1.14607  -1.03199  -0.97339  -0.92110  -0.78769
 Alpha  occ. eigenvalues --   -0.78635  -0.67478  -0.64479  -0.59062  -0.59027
 Alpha  occ. eigenvalues --   -0.53559  -0.50856  -0.49815  -0.48855  -0.47959
 Alpha  occ. eigenvalues --   -0.46778  -0.44633  -0.35624
 Alpha virt. eigenvalues --    0.03422   0.03687   0.03998   0.04488   0.06194
 Alpha virt. eigenvalues --    0.06383   0.06563   0.06606   0.07330   0.09465
 Alpha virt. eigenvalues --    0.10995   0.12972   0.13834   0.14177   0.14581

 Mulliken charges:
               1
     1  C   -0.214873
     2  C   -0.636024
     3  S    0.103341
     4  C   -0.191329
     5  C   -0.190551
     6  C   -0.215643
     7  H    0.094638
     8  H    0.116799
     9  H    0.113203
    10  H    0.112916
    11  H    0.120396
    12  H    0.113201
    13  H    0.120744
    14  H    0.094525
    15  H    0.116666
    16  H    0.341989
 Sum of Mulliken charges =  -0.00000

 Dipole moment (field-independent basis, Debye):
    X=              1.9667    Y=              0.0001    Z=              0.4776  Tot=              2.0239

 Test job not archived.
 1\1\GINC-SE247\SP\RHF\Aug-CC-pVDZ\C5H10S1\OHZDE\09-Apr-2025\0\\#t hf a
 ug-cc-pvdz iop(5/13=1,5/36=2,99/5=2) pseudo=read geom=check guess=(rea
 d,tcheck) scf=(maxcycle=1)\\title\\0,1\C,0,0.436791,-1.197103,0.150177
 \C,0,-0.348044,-0.000099,-0.384956\S,0,-2.134554,-0.00002,-0.030783\C,
 0,1.907046,-0.777126,-0.01391\C,0,1.907143,0.777079,-0.013306\C,0,0.43
 6734,1.197209,0.149634\H,0,0.188551,-2.126623,-0.362561\H,0,0.194297,-
 1.333514,1.208641\H,0,-0.306557,-0.000384,-1.478477\H,0,2.305839,-1.15
 4779,-0.957468\H,0,2.532984,-1.189156,0.778542\H,0,2.307176,1.155476,-

 Normal termination of Gaussian 16 at Wed Apr  9 01:00:37 2025.
