 Gaussian 16, Revision C.01,

 ----------------------------------------------------------------------
 #t hf aug-cc-pvdz symm=none int=(grid=ultrafine) guess=(read,tcheck) s
 table=(opt,rrhf)
 ----------------------------------------------------------------------
 -----
 title
 -----
 Symbolic Z-matrix:
 Charge =  0 Multiplicity = 1

 SCF Done:  E(RHF) =  -743.240130683     A.U. after   15 cycles
 Normal termination of Gaussian 16 at Wed Apr  9 01:58:47 2025.
 Gaussian 16:  ES64L-G16RevC.01  3-Jul-2019

 ----------------------------------------------------------------------
 #t hf aug-cc-pvdz iop(5/13=1,5/36=2,99/5=2) pseudo=read geom=check gue
 ss=(read,tcheck) scf=(maxcycle=1)
 ----------------------------------------------------------------------
 -----
 title
 -----
 Structure from the checkpoint file:  "BH10_418_reverse_mol2.chk"
 Charge =  0 Multiplicity = 1

                         Standard orientation:
 ---------------------------------------------------------------------
 Center     Atomic      Atomic             Coordinates (Angstroms)
 Number     Number       Type             X           Y           Z
 ---------------------------------------------------------------------
      1          6           0        0.594825   -1.407380    0.496480
      2          6           0       -0.752360   -1.401904   -0.227166
      3          6           0       -1.531967   -0.158235    0.127836
      4          6           0       -2.825366   -0.078717   -0.088549
      5          6           0        2.680327   -0.242868   -0.041794
      6          6           0        1.377830   -0.155308    0.167821
      7          6           0       -0.764893    0.993099    0.729724
      8          9           0       -3.590495    0.971747    0.179215
      9          9           0        3.374795   -1.370401    0.013837
     10          6           0        0.611006    1.108806    0.111947
     11          6           0        1.022321    2.253699   -0.430034
     12          9           0        3.496328    0.755374   -0.326364
     13          9           0       -3.565875   -1.047827   -0.611775
     14          1           0        0.370482    3.118608   -0.427494
     15          1           0        1.994285    2.372137   -0.885565
     16          1           0       -0.575865   -1.432619   -1.307247
     17          1           0       -1.320713   -2.298656    0.024768
     18          1           0        0.426911   -1.461102    1.577544
     19          1           0        1.164025   -2.294495    0.223988
     20          1           0       -0.653053    0.820485    1.807562
     21          1           0       -1.309195    1.928464    0.614641
 ---------------------------------------------------------------------

 SCF Done:  E(RHF) =  -743.956687818     A.U. after    2 cycles

 The electronic state is 1-A.
 Alpha  occ. eigenvalues --  -26.51456 -26.51244 -26.50524 -26.50484 -11.42968
 Alpha  occ. eigenvalues --  -11.41607 -11.26807 -11.26609 -11.26091 -11.26066
 Alpha  occ. eigenvalues --  -11.26003 -11.25790 -11.24071  -1.68817  -1.67654
 Alpha  occ. eigenvalues --   -1.61695  -1.60752  -1.17614  -1.10309  -1.06765
 Alpha  occ. eigenvalues --   -1.00663  -0.95538  -0.90203  -0.86004  -0.83961
 Alpha  occ. eigenvalues --   -0.80324  -0.78391  -0.77062  -0.74792  -0.74014
 Alpha  occ. eigenvalues --   -0.73172  -0.68797  -0.67210  -0.66363  -0.65960
 Alpha  occ. eigenvalues --   -0.65652  -0.64644  -0.63119  -0.62934  -0.61679
 Alpha  occ. eigenvalues --   -0.58304  -0.57573  -0.56105  -0.53444  -0.52092
 Alpha  occ. eigenvalues --   -0.50499  -0.44114  -0.37013  -0.33950
 Alpha virt. eigenvalues --    0.03306   0.03575   0.03790   0.04684   0.05583
 Alpha virt. eigenvalues --    0.05827   0.06691   0.06983   0.08261   0.09316
 Alpha virt. eigenvalues --    0.09646   0.10270   0.11725   0.12034   0.12326

 Mulliken charges:
               1
     1  C   -0.708733
     2  C   -0.651185
     3  C    0.185193
     4  C    2.144159
     5  C    2.249679
     6  C    0.281442
     7  C   -1.124904
     8  F   -0.869639
     9  F   -0.865285
    10  C    0.300486
    11  C    0.165119
    12  F   -0.832751
    13  F   -0.855903
    14  H   -0.175658
    15  H   -0.197725
    16  H    0.235613
    17  H    0.133902
    18  H    0.234882
    19  H    0.038578
    20  H    0.323105
    21  H   -0.010373
 Sum of Mulliken charges =  -0.00000

 Dipole moment (field-independent basis, Debye):
    X=              0.3020    Y=             -0.3123    Z=              0.6156  Tot=              0.7534

 Test job not archived.
 1\1\GINC-SE419\SP\RHF\Aug-CC-pVDZ\C9H8F4\OHZDE\09-Apr-2025\0\\#t hf au
 g-cc-pvdz iop(5/13=1,5/36=2,99/5=2) pseudo=read geom=check guess=(read
 ,tcheck) scf=(maxcycle=1)\\title\\0,1\C,0,0.594825,-1.40738,0.49648\C,
 0,-0.75236,-1.401904,-0.227166\C,0,-1.531967,-0.158235,0.127836\C,0,-2
 .825366,-0.078717,-0.088549\C,0,2.680327,-0.242868,-0.041794\C,0,1.377
 83,-0.155308,0.167821\C,0,-0.764893,0.993099,0.729724\F,0,-3.590495,0.
 971747,0.179215\F,0,3.374795,-1.370401,0.013837\C,0,0.611006,1.108806,
 0.111947\C,0,1.022321,2.253699,-0.430034\F,0,3.496328,0.755374,-0.3263

 Normal termination of Gaussian 16 at Wed Apr  9 01:59:56 2025.
