 Gaussian 16, Revision C.01,

 ----------------------------------------------------------------------
 #t hf aug-cc-pvdz symm=none int=(grid=ultrafine) guess=(read,tcheck) s
 table=(opt,rrhf)
 ----------------------------------------------------------------------
 -----
 title
 -----
 Symbolic Z-matrix:
 Charge =  0 Multiplicity = 1

 SCF Done:  E(RHF) =  -1273.93991324     A.U. after   16 cycles
 Normal termination of Gaussian 16 at Wed Apr  9 01:51:57 2025.
 Gaussian 16:  ES64L-G16RevC.01  3-Jul-2019

 ----------------------------------------------------------------------
 #t hf aug-cc-pvdz iop(5/13=1,5/36=2,99/5=2) pseudo=read geom=check gue
 ss=(read,tcheck) scf=(maxcycle=1)
 ----------------------------------------------------------------------
 -----
 title
 -----
 Structure from the checkpoint file:  "BH10_350_reverse_mol2.chk"
 Charge =  0 Multiplicity = 1

                         Standard orientation:
 ---------------------------------------------------------------------
 Center     Atomic      Atomic             Coordinates (Angstroms)
 Number     Number       Type             X           Y           Z
 ---------------------------------------------------------------------
      1          7           0       -0.319928    0.891959   -0.521109
      2          6           0       -1.644435    0.449823   -0.438084
      3          6           0       -1.799904   -0.844235   -0.141864
      4         16           0       -0.227264   -1.639022    0.094932
      5          6           0        0.669470   -0.037955   -0.065209
      6          6           0       -2.735545    1.426873   -0.726896
      7          1           0       -2.683541    2.293991   -0.064042
      8          1           0       -3.710069    0.962502   -0.597181
      9          1           0       -2.671505    1.791805   -1.755156
     10          6           0       -3.030344   -1.674092   -0.009261
     11          1           0       -3.927002   -1.072306   -0.154546
     12          1           0       -3.096321   -2.136112    0.980366
     13          1           0       -3.050926   -2.480646   -0.748383
     14          6           0        0.031780    2.293948   -0.633068
     15          1           0       -0.598561    2.771948   -1.380633
     16          1           0        1.058581    2.377930   -0.976805
     17          1           0       -0.063809    2.833722    0.316387
     18          6           0        1.805728   -0.247496   -1.092259
     19          8           0        1.783186    0.328878   -2.146637
     20          6           0        2.916956   -1.189213   -0.711818
     21          1           0        3.410378   -1.533935   -1.618425
     22          1           0        2.559608   -2.034604   -0.124345
     23          1           0        3.642758   -0.650010   -0.097697
     24         16           0        1.500228    0.473744    1.534167
     25          6           0        0.033174    0.610770    2.579036
     26          1           0       -0.496136   -0.340834    2.605609
     27          1           0       -0.631299    1.398086    2.226357
     28          1           0        0.383144    0.857642    3.580309
 ---------------------------------------------------------------------

 SCF Done:  E(RHF) =  -1274.55631219     A.U. after    2 cycles

 The electronic state is 1-A.
 Alpha  occ. eigenvalues --  -93.95767 -93.94806 -20.54015 -15.51774 -11.34712
 Alpha  occ. eigenvalues --  -11.34672 -11.28423 -11.26502 -11.26332 -11.25010
 Alpha  occ. eigenvalues --  -11.24948 -11.24438 -11.24249  -8.23923  -8.22935
 Alpha  occ. eigenvalues --   -6.21713  -6.21591  -6.21342  -6.20748  -6.20590
 Alpha  occ. eigenvalues --   -6.20377  -1.48170  -1.28538  -1.11136  -1.10710
 Alpha  occ. eigenvalues --   -1.04320  -1.02301  -0.99019  -0.95123  -0.94070
 Alpha  occ. eigenvalues --   -0.87176  -0.83565  -0.78291  -0.72026  -0.69443
 Alpha  occ. eigenvalues --   -0.67281  -0.64763  -0.63090  -0.61745  -0.61086
 Alpha  occ. eigenvalues --   -0.60594  -0.59556  -0.58618  -0.58332  -0.57701
 Alpha  occ. eigenvalues --   -0.56511  -0.55737  -0.55070  -0.54303  -0.52057
 Alpha  occ. eigenvalues --   -0.50015  -0.48851  -0.46929  -0.44598  -0.41903
 Alpha  occ. eigenvalues --   -0.40406  -0.35730  -0.28481
 Alpha virt. eigenvalues --    0.03067   0.03365   0.03574   0.04171   0.04730
 Alpha virt. eigenvalues --    0.05016   0.05157   0.05570   0.06146   0.07668
 Alpha virt. eigenvalues --    0.08150   0.08429   0.08580   0.09383   0.10279

 Mulliken charges:
               1
     1  N    2.591840
     2  C   -0.985010
     3  C   -0.119055
     4  S    0.708418
     5  C   -2.167424
     6  C   -0.804641
     7  H    0.311241
     8  H    0.070583
     9  H    0.336092
    10  C   -0.810189
    11  H    0.128910
    12  H    0.254285
    13  H    0.289256
    14  C   -0.574126
    15  H    0.035874
    16  H    0.038081
    17  H    0.139067
    18  C    1.660657
    19  O   -1.486634
    20  C   -0.560868
    21  H    0.130885
    22  H    0.238075
    23  H    0.316518
    24  S    0.381254
    25  C   -0.617681
    26  H    0.283917
    27  H    0.169538
    28  H    0.041135
 Sum of Mulliken charges =   0.00000

 Dipole moment (field-independent basis, Debye):
    X=             -2.5403    Y=              0.7778    Z=              1.9878  Tot=              3.3181

 Test job not archived.
 1\1\GINC-SE129\SP\RHF\Aug-CC-pVDZ\C9H15N1O1S2\OHZDE\09-Apr-2025\0\\#t
 hf aug-cc-pvdz iop(5/13=1,5/36=2,99/5=2) pseudo=read geom=check guess=
 (read,tcheck) scf=(maxcycle=1)\\title\\0,1\N,0,-0.319928,0.891959,-0.5
 21109\C,0,-1.644435,0.449823,-0.438084\C,0,-1.799904,-0.844235,-0.1418
 64\S,0,-0.227264,-1.639022,0.094932\C,0,0.66947,-0.037955,-0.065209\C,
 0,-2.735545,1.426873,-0.726896\H,0,-2.683541,2.293991,-0.064042\H,0,-3
 .710069,0.962502,-0.597181\H,0,-2.671505,1.791805,-1.755156\C,0,-3.030
 344,-1.674092,-0.009261\H,0,-3.927002,-1.072306,-0.154546\H,0,-3.09632

 Normal termination of Gaussian 16 at Wed Apr  9 01:52:29 2025.
