 Gaussian 16, Revision C.01,

 ----------------------------------------------------------------------
 #t hf aug-cc-pvdz symm=none int=(grid=ultrafine) guess=(read,tcheck) s
 table=(opt,rrhf)
 ----------------------------------------------------------------------
 -----
 title
 -----
 Symbolic Z-matrix:
 Charge =  0 Multiplicity = 1

 SCF Done:  E(RHF) =  -837.362058929     A.U. after   15 cycles
 Normal termination of Gaussian 16 at Wed Apr  9 01:43:58 2025.
 Gaussian 16:  ES64L-G16RevC.01  3-Jul-2019

 ----------------------------------------------------------------------
 #t hf aug-cc-pvdz iop(5/13=1,5/36=2,99/5=2) pseudo=read geom=check gue
 ss=(read,tcheck) scf=(maxcycle=1)
 ----------------------------------------------------------------------
 -----
 title
 -----
 Structure from the checkpoint file:  "BH10_345_forward_mol3.chk"
 Charge =  0 Multiplicity = 1

                         Standard orientation:
 ---------------------------------------------------------------------
 Center     Atomic      Atomic             Coordinates (Angstroms)
 Number     Number       Type             X           Y           Z
 ---------------------------------------------------------------------
      1          7           0        0.019836    1.048464    0.035810
      2          6           0        1.367835    0.661517   -0.218113
      3          6           0        1.632344   -0.640758   -0.076742
      4         16           0        0.197539   -1.555506    0.468495
      5          6           0       -0.792631   -0.114729    0.097635
      6          6           0        2.327683    1.735131   -0.614929
      7          1           0        1.921033    2.313550   -1.447668
      8          1           0        3.284377    1.317200   -0.921663
      9          1           0        2.520632    2.428830    0.207488
     10          6           0        2.902313   -1.390876   -0.290455
     11          1           0        3.728144   -0.717223   -0.515619
     12          1           0        2.809169   -2.104658   -1.113028
     13          1           0        3.169308   -1.958102    0.605624
     14          6           0       -0.144824    1.995338    1.143601
     15          1           0        0.211480    1.581459    2.095745
     16          1           0       -1.197538    2.250879    1.244763
     17          1           0        0.403558    2.911853    0.927147
     18          6           0       -2.085548   -0.170413   -0.222796
     19          6           0       -2.905346    0.996736   -0.644932
     20          1           0       -3.593682    1.309725    0.145564
     21          1           0       -3.506495    0.717717   -1.512686
     22          1           0       -2.262298    1.835521   -0.907854
     23          8           0       -2.800318   -1.335366   -0.182499
     24          1           0       -2.195566   -2.086657   -0.134039
 ---------------------------------------------------------------------

 SCF Done:  E(RHF) =  -837.881616556     A.U. after    2 cycles

 The electronic state is 1-A.
 Alpha  occ. eigenvalues --  -93.95240 -20.56852 -15.51329 -11.29556 -11.27530
 Alpha  occ. eigenvalues --  -11.27328 -11.26445 -11.26218 -11.24433 -11.24294
 Alpha  occ. eigenvalues --  -11.23289  -8.23425  -6.21222  -6.21124  -6.20865
 Alpha  occ. eigenvalues --   -1.48257  -1.27384  -1.10606  -1.07442  -1.02346
 Alpha  occ. eigenvalues --   -0.99012  -0.94390  -0.93081  -0.86038  -0.78772
 Alpha  occ. eigenvalues --   -0.75113  -0.70453  -0.66125  -0.63894  -0.61580
 Alpha  occ. eigenvalues --   -0.61000  -0.59667  -0.59292  -0.58496  -0.57591
 Alpha  occ. eigenvalues --   -0.56443  -0.55613  -0.55394  -0.53240  -0.52646
 Alpha  occ. eigenvalues --   -0.51138  -0.48150  -0.46983  -0.40617  -0.36097
 Alpha  occ. eigenvalues --   -0.27854
 Alpha virt. eigenvalues --    0.03369   0.03491   0.04011   0.04179   0.04884
 Alpha virt. eigenvalues --    0.04989   0.05215   0.05937   0.06399   0.07811
 Alpha virt. eigenvalues --    0.08774   0.09095   0.10052   0.11177   0.11716

 Mulliken charges:
               1
     1  N    1.867540
     2  C   -0.885509
     3  C   -0.058737
     4  S    0.262330
     5  C   -1.335367
     6  C   -0.785464
     7  H    0.294244
     8  H    0.126517
     9  H    0.271114
    10  C   -0.792339
    11  H    0.132468
    12  H    0.303795
    13  H    0.270951
    14  C   -0.275802
    15  H    0.207602
    16  H    0.014708
    17  H    0.067579
    18  C    1.395801
    19  C   -0.359968
    20  H    0.283066
    21  H    0.128430
    22  H    0.159043
    23  O   -1.632234
    24  H    0.340232
 Sum of Mulliken charges =  -0.00000

 Dipole moment (field-independent basis, Debye):
    X=              2.0804    Y=              1.6989    Z=             -0.0926  Tot=              2.6875

 Test job not archived.
 1\1\GINC-SE021\SP\RHF\Aug-CC-pVDZ\C8H13N1O1S1\OHZDE\09-Apr-2025\0\\#t
 hf aug-cc-pvdz iop(5/13=1,5/36=2,99/5=2) pseudo=read geom=check guess=
 (read,tcheck) scf=(maxcycle=1)\\title\\0,1\N,0,0.019836,1.048464,0.035
 81\C,0,1.367835,0.661517,-0.218113\C,0,1.632344,-0.640758,-0.076742\S,
 0,0.197539,-1.555506,0.468495\C,0,-0.792631,-0.114729,0.097635\C,0,2.3
 27683,1.735131,-0.614929\H,0,1.921033,2.31355,-1.447668\H,0,3.284377,1
 .3172,-0.921663\H,0,2.520632,2.42883,0.207488\C,0,2.902313,-1.390876,-
 0.290455\H,0,3.728144,-0.717223,-0.515619\H,0,2.809169,-2.104658,-1.11

 Normal termination of Gaussian 16 at Wed Apr  9 01:44:17 2025.
