 Gaussian 16, Revision C.01,

 ----------------------------------------------------------------------
 #t hf aug-cc-pvdz symm=none int=(grid=ultrafine) guess=(read,tcheck) s
 table=(opt,rrhf)
 ----------------------------------------------------------------------
 -----
 title
 -----
 Symbolic Z-matrix:
 Charge =  0 Multiplicity = 1

 SCF Done:  E(RHF) =  -779.051573154     A.U. after   14 cycles
 Normal termination of Gaussian 16 at Wed Apr  9 02:08:05 2025.
 Gaussian 16:  ES64L-G16RevC.01  3-Jul-2019

 ----------------------------------------------------------------------
 #t hf aug-cc-pvdz iop(5/13=1,5/36=2,99/5=2) pseudo=read geom=check gue
 ss=(read,tcheck) scf=(maxcycle=1)
 ----------------------------------------------------------------------
 -----
 title
 -----
 Structure from the checkpoint file:  "BH10_93_reverse_mol2.chk"
 Charge =  0 Multiplicity = 1

                         Standard orientation:
 ---------------------------------------------------------------------
 Center     Atomic      Atomic             Coordinates (Angstroms)
 Number     Number       Type             X           Y           Z
 ---------------------------------------------------------------------
      1          6           0        0.440083    0.111272   -1.210761
      2          6           0        1.118501    1.328748   -0.667814
      3          6           0        0.440075    0.111243    1.210766
      4          6           0        1.118496    1.328733    0.667852
      5         16           0       -0.968883   -0.011892   -0.000003
      6          6           0        1.231892   -1.142445   -0.779397
      7          6           0        1.231888   -1.142464    0.779376
      8          8           0       -1.849859    1.144356    0.000009
      9          8           0       -1.552731   -1.347687   -0.000020
     10          1           0        1.511238    2.114284   -1.297720
     11          1           0        1.511229    2.114254    1.297780
     12          1           0        0.751523   -2.040902   -1.163766
     13          1           0        2.241769   -1.087837   -1.183457
     14          1           0        0.114104    0.137724   -2.246233
     15          1           0        2.241762   -1.087866    1.183444
     16          1           0        0.751516   -2.040931    1.163720
     17          1           0        0.114091    0.137670    2.246237
 ---------------------------------------------------------------------

 SCF Done:  E(RHF) =  -779.506813285     A.U. after    2 cycles

 The electronic state is 1-A.
 Alpha  occ. eigenvalues --  -94.17660 -20.53371 -20.53257 -11.29613 -11.29559
 Alpha  occ. eigenvalues --  -11.26958 -11.26841 -11.26428 -11.26420  -8.43098
 Alpha  occ. eigenvalues --   -6.41178  -6.40937  -6.40849  -1.54268  -1.42534
 Alpha  occ. eigenvalues --   -1.21658  -1.05029  -1.03905  -0.96513  -0.85062
 Alpha  occ. eigenvalues --   -0.81052  -0.76336  -0.74362  -0.69644  -0.66232
 Alpha  occ. eigenvalues --   -0.63872  -0.62088  -0.60519  -0.59377  -0.58355
 Alpha  occ. eigenvalues --   -0.54546  -0.52484  -0.50576  -0.48709  -0.47648
 Alpha  occ. eigenvalues --   -0.45774  -0.40406  -0.38959
 Alpha virt. eigenvalues --    0.02644   0.02895   0.03613   0.04154   0.05008
 Alpha virt. eigenvalues --    0.05647   0.05669   0.08643   0.09596   0.09650
 Alpha virt. eigenvalues --    0.11278   0.13044   0.13050   0.13449   0.13834

 Mulliken charges:
               1
     1  C   -0.877982
     2  C    0.612316
     3  C   -0.877980
     4  C    0.612312
     5  S    4.009792
     6  C   -0.058236
     7  C   -0.058237
     8  O   -1.680649
     9  O   -1.679084
    10  H   -0.160179
    11  H   -0.160179
    12  H    0.113354
    13  H    0.124848
    14  H   -0.079150
    15  H    0.124846
    16  H    0.113357
    17  H   -0.079150
 Sum of Mulliken charges =  -0.00000

 Dipole moment (field-independent basis, Debye):
    X=              5.5245    Y=              0.2985    Z=              0.0000  Tot=              5.5325

 Test job not archived.
 1\1\GINC-SE069\SP\RHF\Aug-CC-pVDZ\C6H8O2S1\OHZDE\09-Apr-2025\0\\#t hf
 aug-cc-pvdz iop(5/13=1,5/36=2,99/5=2) pseudo=read geom=check guess=(re
 ad,tcheck) scf=(maxcycle=1)\\title\\0,1\C,0,0.440083,0.111272,-1.21076
 1\C,0,1.118501,1.328748,-0.667814\C,0,0.440075,0.111243,1.210766\C,0,1
 .118496,1.328733,0.667852\S,0,-0.968883,-0.011892,-0.000003\C,0,1.2318
 92,-1.142445,-0.779397\C,0,1.231888,-1.142464,0.779376\O,0,-1.849859,1
 .144357,0.000009\O,0,-1.552731,-1.347686,-0.00002\H,0,1.511239,2.11428
 4,-1.29772\H,0,1.51123,2.114254,1.29778\H,0,0.751522,-2.040902,-1.1637

 Normal termination of Gaussian 16 at Wed Apr  9 02:08:14 2025.
