 Gaussian 16, Revision C.01,

 ----------------------------------------------------------------------
 #t hf aug-cc-pvdz symm=none int=(grid=ultrafine) guess=(read,tcheck) s
 table=opt
 ----------------------------------------------------------------------
 -----
 title
 -----
 Symbolic Z-matrix:
 Charge =  0 Multiplicity = 2

 SCF Done:  E(UHF) =  -780.843111651     A.U. after   18 cycles
 Normal termination of Gaussian 16 at Wed Apr  9 00:59:23 2025.
 Gaussian 16:  ES64L-G16RevC.01  3-Jul-2019

 ----------------------------------------------------------------------
 #t hf aug-cc-pvdz iop(5/13=1,5/36=2,99/5=2) pseudo=read geom=check gue
 ss=(read,tcheck) scf=(maxcycle=1)
 ----------------------------------------------------------------------
 -----
 title
 -----
 Structure from the checkpoint file:  "BH10_158_reverse_mol1.chk"
 Charge =  0 Multiplicity = 2

                         Standard orientation:
 ---------------------------------------------------------------------
 Center     Atomic      Atomic             Coordinates (Angstroms)
 Number     Number       Type             X           Y           Z
 ---------------------------------------------------------------------
      1          1           0       -0.375978   -0.772277   -0.254384
      2          6           0       -0.400126    1.532719   -0.276297
      3          1           0        0.091092    2.443270    0.086252
      4          6           0       -2.543251    0.160244   -0.121762
      5          1           0       -3.464516    0.037385    0.448106
      6          1           0       -0.603354    1.668409   -1.341216
      7          1           0       -2.818522    0.415967   -1.147145
      8          6           0       -1.701564    1.279492    0.486195
      9          1           0       -2.293666    2.198992    0.480371
     10          1           0       -1.474601    1.048342    1.529960
     11          6           0        0.565887    0.398000   -0.146204
     12          6           0        2.691172   -0.299168   -0.553859
     13          6           0        2.254722   -0.625967    0.875023
     14          1           0        2.969448   -1.181287   -1.129823
     15          1           0        3.498289    0.434369   -0.589646
     16          1           0        1.896882   -1.655002    0.969561
     17          1           0        3.013037   -0.426189    1.628297
     18         16           0       -1.697657   -1.464619   -0.115814
     19          8           0        1.521684    0.294615   -1.129857
     20          8           0        1.168738    0.274136    1.079122
 ---------------------------------------------------------------------

 SCF Done:  E(UHF) =  -781.299574364     A.U. after    2 cycles

 The electronic state is 2-A.
 Alpha  occ. eigenvalues --  -93.92099 -20.58200 -20.58072 -11.35946 -11.30931
 Alpha  occ. eigenvalues --  -11.30870 -11.25837 -11.24610 -11.24127  -8.20201
 Alpha  occ. eigenvalues --   -6.18618  -6.17813  -6.17548  -1.56638  -1.46007
 Alpha  occ. eigenvalues --   -1.12085  -1.05857  -0.99976  -0.93425  -0.88548
 Alpha  occ. eigenvalues --   -0.83390  -0.80899  -0.74060  -0.71625  -0.68256
 Alpha  occ. eigenvalues --   -0.65342  -0.62455  -0.61814  -0.59459  -0.57219
 Alpha  occ. eigenvalues --   -0.55154  -0.53674  -0.53224  -0.52657  -0.50147
 Alpha  occ. eigenvalues --   -0.47317  -0.46514  -0.45091  -0.34398  -0.30609
 Alpha virt. eigenvalues --    0.03114   0.03534   0.04062   0.04234   0.05261
 Alpha virt. eigenvalues --    0.05471   0.06377   0.07022   0.07545   0.08311
 Alpha virt. eigenvalues --    0.09079   0.10373   0.11807   0.12697   0.13530

  Beta  occ. eigenvalues --  -93.91666 -20.57875 -20.57609 -11.33921 -11.30939
  Beta  occ. eigenvalues --  -11.30889 -11.25897 -11.24646 -11.24079  -8.19694
  Beta  occ. eigenvalues --   -6.17584  -6.17267  -6.16753  -1.55302  -1.44946
  Beta  occ. eigenvalues --   -1.11040  -1.04978  -0.98795  -0.91296  -0.88307
  Beta  occ. eigenvalues --   -0.81051  -0.79220  -0.72016  -0.71027  -0.66402
  Beta  occ. eigenvalues --   -0.64258  -0.62176  -0.60591  -0.57102  -0.55998
  Beta  occ. eigenvalues --   -0.54069  -0.53313  -0.52565  -0.51359  -0.50043
  Beta  occ. eigenvalues --   -0.45600  -0.44548  -0.43059  -0.33479
  Beta virt. eigenvalues --    0.03106   0.03482   0.04064   0.04242   0.05266
  Beta virt. eigenvalues --    0.05473   0.06042   0.06995   0.07293   0.08190
  Beta virt. eigenvalues --    0.09061   0.09118   0.10623   0.11959   0.12729

 Mulliken charges and spin densities:
               1          2
     1  H    0.853945  -0.424837
     2  C   -0.356230  -0.139860
     3  H    0.221441   0.037018
     4  C   -0.692912  -0.045984
     5  H    0.172022   0.001734
     6  H    0.188949  -0.002481
     7  H    0.184811   0.003082
     8  C   -0.255862   0.021549
     9  H    0.146049  -0.004536
    10  H    0.142711   0.002962
    11  C    1.756496   1.051531
    12  C    0.386462   0.003650
    13  C    0.171724  -0.008160
    14  H    0.074052  -0.000754
    15  H    0.029698   0.004582
    16  H    0.093283   0.004163
    17  H    0.022912  -0.002173
    18  S   -0.138550   0.416694
    19  O   -1.538095   0.043421
    20  O   -1.462907   0.038398
 Sum of Mulliken charges =  -0.00000   1.00000

 Dipole moment (field-independent basis, Debye):
    X=              2.5669    Y=              1.7470    Z=              0.4153  Tot=              3.1326
                          Isotropic Fermi Contact Couplings
        Atom                 a.u.       MegaHertz       Gauss      10(-4) cm-1
     1  H(1)              -0.05505    -246.05550     -87.79872     -82.07528
     2  C(13)             -0.00073      -0.82555      -0.29458      -0.27537
     3  H(1)               0.01215      54.33046      19.38646      18.12269
     4  C(13)             -0.01069     -12.01434      -4.28702      -4.00755
     5  H(1)               0.00337      15.06787       5.37659       5.02610
     6  H(1)               0.00039       1.75713       0.62699       0.58612
     7  H(1)               0.00022       0.99235       0.35410       0.33101
     8  C(13)              0.00536       6.02222       2.14888       2.00880

 Normal termination of Gaussian 16 at Wed Apr  9 00:59:36 2025.
