 Gaussian 16, Revision C.01,

 ----------------------------------------------------------------------
 #t hf aug-cc-pvdz symm=none int=(grid=ultrafine) guess=(read,tcheck) s
 table=(opt,rrhf)
 ----------------------------------------------------------------------
 -----
 title
 -----
 Symbolic Z-matrix:
 Charge =  0 Multiplicity = 1

 SCF Done:  E(RHF) =  -728.693257690     A.U. after   15 cycles

 1\1\GINC-SE015\Stability\RHF\Aug-CC-pVDZ\C7H7Cl1\OHZDE\09-Apr-2025\0\\
 #t hf aug-cc-pvdz symm=none int=(grid=ultrafine) guess=(read,tcheck) s
 table=(opt,rrhf)\\title\\0,1\C,0,1.456654,0.000023,0.875219\C,0,0.0252
 96,0.00001,0.447389\C,0,-0.649212,1.200084,0.244315\C,0,-0.649198,-1.2
 00075,0.244332\H,0,-0.128063,2.138654,0.396629\C,0,-1.977059,1.201482,
 -0.155434\C,0,-1.977044,-1.201494,-0.155417\C,0,-2.643266,-0.000012,-0
 .356173\H,0,-0.128037,-2.138636,0.39666\H,0,-2.493362,2.14121,-0.30928
 6\H,0,-2.493336,-2.141231,-0.309255\H,0,-3.680858,-0.00002,-0.667308\H

 Normal termination of Gaussian 16 at Wed Apr  9 00:56:43 2025.
 Gaussian 16:  ES64L-G16RevC.01  3-Jul-2019

 ----------------------------------------------------------------------
 #t hf aug-cc-pvdz iop(5/13=1,5/36=2,99/5=2) pseudo=read geom=check gue
 ss=(read,tcheck) scf=(maxcycle=1)
 ----------------------------------------------------------------------
 -----
 title
 -----
 Structure from the checkpoint file:  "BH10_110_forward_mol2.chk"
 Charge =  0 Multiplicity = 1

                         Standard orientation:
 ---------------------------------------------------------------------
 Center     Atomic      Atomic             Coordinates (Angstroms)
 Number     Number       Type             X           Y           Z
 ---------------------------------------------------------------------
      1          6           0        1.456654    0.000023    0.875219
      2          6           0        0.025296    0.000010    0.447389
      3          6           0       -0.649212    1.200084    0.244315
      4          6           0       -0.649198   -1.200075    0.244332
      5          1           0       -0.128063    2.138654    0.396629
      6          6           0       -1.977059    1.201482   -0.155434
      7          6           0       -1.977044   -1.201494   -0.155417
      8          6           0       -2.643266   -0.000012   -0.356173
      9          1           0       -0.128037   -2.138636    0.396660
     10          1           0       -2.493362    2.141210   -0.309286
     11          1           0       -2.493336   -2.141231   -0.309255
     12          1           0       -3.680858   -0.000020   -0.667308
     13          1           0        1.706994   -0.887232    1.450579
     14          1           0        1.706991    0.887305    1.450537
     15         17           0        2.587802   -0.000009   -0.545526
 ---------------------------------------------------------------------

 SCF Done:  E(RHF) =  -729.050446879     A.U. after    2 cycles

 The electronic state is 1-A.
 Alpha  occ. eigenvalues -- -105.55247 -11.31010 -11.25784 -11.25066 -11.25054
 Alpha  occ. eigenvalues --  -11.25008 -11.24922 -11.24914 -10.60051  -7.76988
 Alpha  occ. eigenvalues --   -7.76614  -7.76609  -1.17646  -1.10603  -1.02846
 Alpha  occ. eigenvalues --   -1.02353  -0.91283  -0.84902  -0.81753  -0.72169
 Alpha  occ. eigenvalues --   -0.67631  -0.65760  -0.61223  -0.61105  -0.59807
 Alpha  occ. eigenvalues --   -0.57434  -0.52355  -0.51292  -0.51065  -0.44420
 Alpha  occ. eigenvalues --   -0.44204  -0.35575  -0.35036
 Alpha virt. eigenvalues --    0.03307   0.03518   0.03649   0.04922   0.05140
 Alpha virt. eigenvalues --    0.07294   0.08141   0.08346   0.08961   0.09928
 Alpha virt. eigenvalues --    0.10942   0.11914   0.12790   0.13811   0.14194

 Mulliken charges:
               1
     1  C   -0.870503
     2  C    1.667381
     3  C   -0.062881
     4  C   -0.062888
     5  H   -0.271043
     6  C    0.264953
     7  C    0.264961
     8  C   -0.076908
     9  H   -0.271041
    10  H   -0.225828
    11  H   -0.225826
    12  H   -0.212383
    13  H    0.078262
    14  H    0.078255
    15  Cl  -0.074511
 Sum of Mulliken charges =  -0.00000

 Dipole moment (field-independent basis, Debye):
    X=             -1.8082    Y=              0.0000    Z=              1.4905  Tot=              2.3433

 Test job not archived.
 1\1\GINC-SE015\SP\RHF\Aug-CC-pVDZ\C7H7Cl1\OHZDE\09-Apr-2025\0\\#t hf a
 ug-cc-pvdz iop(5/13=1,5/36=2,99/5=2) pseudo=read geom=check guess=(rea
 d,tcheck) scf=(maxcycle=1)\\title\\0,1\C,0,1.456654,0.000023,0.875219\
 C,0,0.025296,0.00001,0.447389\C,0,-0.649212,1.200084,0.244315\C,0,-0.6
 49198,-1.200075,0.244332\H,0,-0.128063,2.138654,0.396629\C,0,-1.977059
 ,1.201482,-0.155434\C,0,-1.977044,-1.201494,-0.155417\C,0,-2.643266,-0
 .000012,-0.356173\H,0,-0.128037,-2.138636,0.39666\H,0,-2.493362,2.1412
 1,-0.309286\H,0,-2.493336,-2.141231,-0.309255\H,0,-3.680858,-0.00002,-

 Normal termination of Gaussian 16 at Wed Apr  9 00:56:49 2025.
