 Gaussian 16, Revision C.01,

 ----------------------------------------------------------------------
 #t hf aug-cc-pvdz symm=none int=(grid=ultrafine) guess=(read,tcheck) s
 table=(opt,rrhf)
 ----------------------------------------------------------------------
 -----
 title
 -----
 Symbolic Z-matrix:
 Charge =  0 Multiplicity = 1

 SCF Done:  E(RHF) =  -551.640091385     A.U. after   12 cycles
 Normal termination of Gaussian 16 at Wed Apr  9 01:08:04 2025.
 Gaussian 16:  ES64L-G16RevC.01  3-Jul-2019

 ----------------------------------------------------------------------
 #t hf aug-cc-pvdz iop(5/13=1,5/36=2,99/5=2) pseudo=read geom=check gue
 ss=(read,tcheck) scf=(maxcycle=1)
 ----------------------------------------------------------------------
 -----
 title
 -----
 Structure from the checkpoint file:  "BH10_293_reverse_mol3.chk"
 Charge =  0 Multiplicity = 1

                         Standard orientation:
 ---------------------------------------------------------------------
 Center     Atomic      Atomic             Coordinates (Angstroms)
 Number     Number       Type             X           Y           Z
 ---------------------------------------------------------------------
      1         16           0        1.428718   -0.292410   -0.011148
      2          6           0        0.068299    0.895561   -0.294572
      3          6           0       -1.244511    0.449304    0.327062
      4          8           0       -1.690971   -0.786883   -0.181089
      5          1           0        0.360290    1.880633    0.069950
      6          1           0       -0.034242    0.949442   -1.378962
      7          1           0       -1.144087    0.411910    1.420087
      8          1           0       -2.022377    1.178202    0.090211
      9          1           0       -0.971524   -1.421670   -0.083820
     10          1           0        1.537489   -0.094084    1.314671
 ---------------------------------------------------------------------

 SCF Done:  E(RHF) =  -551.863542784     A.U. after    2 cycles

 The electronic state is 1-A.
 Alpha  occ. eigenvalues --  -93.95974 -20.54808 -11.29554 -11.27956  -8.24073
 Alpha  occ. eigenvalues --   -6.21922  -6.21774  -6.21559  -1.45334  -1.08985
 Alpha  occ. eigenvalues --   -0.96351  -0.83958  -0.70305  -0.65672  -0.61870
 Alpha  occ. eigenvalues --   -0.59315  -0.53976  -0.51063  -0.46555  -0.44868
 Alpha  occ. eigenvalues --   -0.37971
 Alpha virt. eigenvalues --    0.03443   0.03978   0.04891   0.05090   0.07013
 Alpha virt. eigenvalues --    0.07355   0.09958   0.11518   0.12147   0.13816
 Alpha virt. eigenvalues --    0.15142   0.15528   0.15940   0.16337   0.17041

 Mulliken charges:
               1
     1  S   -0.070467
     2  C   -0.861272
     3  C    0.717953
     4  O   -1.114934
     5  H    0.194506
     6  H    0.252130
     7  H    0.121072
     8  H    0.064733
     9  H    0.369307
    10  H    0.326972
 Sum of Mulliken charges =  -0.00000

 Dipole moment (field-independent basis, Debye):
    X=              0.5356    Y=              1.5803    Z=              1.1477  Tot=              2.0252

 Test job not archived.
 1\1\GINC-SE129\SP\RHF\Aug-CC-pVDZ\C2H6O1S1\OHZDE\09-Apr-2025\0\\#t hf
 aug-cc-pvdz iop(5/13=1,5/36=2,99/5=2) pseudo=read geom=check guess=(re
 ad,tcheck) scf=(maxcycle=1)\\title\\0,1\S,0,1.428718,-0.29241,-0.01114
 8\C,0,0.068299,0.895561,-0.294572\C,0,-1.244511,0.449304,0.327062\O,0,
 -1.690971,-0.786883,-0.181089\H,0,0.36029,1.880633,0.06995\H,0,-0.0342
 42,0.949442,-1.378962\H,0,-1.144087,0.41191,1.420087\H,0,-2.022377,1.1
 78202,0.090211\H,0,-0.971524,-1.42167,-0.08382\H,0,1.537489,-0.094084,
 1.314671\\Version=ES64L-G16RevC.01\State=1-A\HF=-551.8635428\RMSD=7.44

 Normal termination of Gaussian 16 at Wed Apr  9 01:08:07 2025.
