 Gaussian 16, Revision C.01,

 ----------------------------------------------------------------------
 #t hf aug-cc-pvdz symm=none int=(grid=ultrafine) guess=(read,tcheck) s
 table=opt
 ----------------------------------------------------------------------
 -----
 title
 -----
 Symbolic Z-matrix:
 Charge =  0 Multiplicity = 2

 SCF Done:  E(UHF) =  -962.527403858     A.U. after   25 cycles
 Normal termination of Gaussian 16 at Wed Apr  9 01:02:01 2025.
 Gaussian 16:  ES64L-G16RevC.01  3-Jul-2019

 ----------------------------------------------------------------------
 #t hf aug-cc-pvdz iop(5/13=1,5/36=2,99/5=2) pseudo=read geom=check gue
 ss=(read,tcheck) scf=(maxcycle=1)
 ----------------------------------------------------------------------
 -----
 title
 -----
 Structure from the checkpoint file:  "BH10_156_forward_mol1.chk"
 Charge =  0 Multiplicity = 2

                         Standard orientation:
 ---------------------------------------------------------------------
 Center     Atomic      Atomic             Coordinates (Angstroms)
 Number     Number       Type             X           Y           Z
 ---------------------------------------------------------------------
      1          7           0        0.672592   -1.572215   -0.493794
      2          1           0        0.262715   -2.499578   -0.399269
      3          6           0       -0.227289   -0.523804   -0.172736
      4          1           0        0.279385    0.036233    0.941748
      5          6           0       -0.251339    0.603497   -1.198354
      6          6           0       -1.536663   -1.158507    0.261943
      7          1           0        0.761890    0.792219   -1.542127
      8          1           0       -0.840388    0.285219   -2.062413
      9         16           0       -0.982402    2.187475   -0.660679
     10          8           0       -1.625829   -2.374745    0.320239
     11          1           0       -0.003188    2.499953    0.208864
     12          7           0       -2.539739   -0.322496    0.574005
     13          1           0       -3.407855   -0.725197    0.889325
     14          1           0       -2.420712    0.681433    0.530460
     15          6           0        2.012310   -1.454618   -0.621932
     16          1           0        2.502339   -2.412047   -0.847459
     17          8           0        2.646834   -0.419643   -0.516303
     18          8           0        0.950518    0.518858    1.790105
     19          8           0        1.695061    1.503174    1.161227
     20          1           0        2.339476    0.984586    0.634588
 ---------------------------------------------------------------------

 SCF Done:  E(UHF) =  -963.146608249     A.U. after    2 cycles

 The electronic state is 2-A.
 Alpha  occ. eigenvalues --  -93.96555 -20.64605 -20.61490 -20.55103 -20.53898
 Alpha  occ. eigenvalues --  -15.56471 -15.54474 -11.39374 -11.38853 -11.33854
 Alpha  occ. eigenvalues --  -11.30109  -8.24688  -6.22538  -6.22399  -6.22190
 Alpha  occ. eigenvalues --   -1.62731  -1.50191  -1.49120  -1.29634  -1.26140
 Alpha  occ. eigenvalues --   -1.25030  -1.11745  -1.03426  -0.91568  -0.89236
 Alpha  occ. eigenvalues --   -0.84051  -0.81729  -0.77976  -0.77039  -0.71715
 Alpha  occ. eigenvalues --   -0.69604  -0.68579  -0.66338  -0.65679  -0.63533
 Alpha  occ. eigenvalues --   -0.62630  -0.61399  -0.60668  -0.57254  -0.53102
 Alpha  occ. eigenvalues --   -0.49907  -0.49269  -0.47496  -0.46487  -0.46357
 Alpha  occ. eigenvalues --   -0.45917  -0.40326  -0.39002
 Alpha virt. eigenvalues --    0.03053   0.03593   0.04386   0.05282   0.05975
 Alpha virt. eigenvalues --    0.06404   0.07128   0.07623   0.08708   0.08769
 Alpha virt. eigenvalues --    0.10337   0.10837   0.12224   0.12840   0.13497

  Beta  occ. eigenvalues --  -93.96548 -20.61784 -20.61396 -20.54923 -20.53680
  Beta  occ. eigenvalues --  -15.56506 -15.54435 -11.39382 -11.39015 -11.32109
  Beta  occ. eigenvalues --  -11.30232  -8.24679  -6.22522  -6.22382  -6.22190
  Beta  occ. eigenvalues --   -1.58811  -1.49779  -1.48689  -1.28671  -1.24923
  Beta  occ. eigenvalues --   -1.20872  -1.10691  -1.01623  -0.91406  -0.89053
  Beta  occ. eigenvalues --   -0.82157  -0.81269  -0.76936  -0.74017  -0.70011
  Beta  occ. eigenvalues --   -0.68485  -0.66982  -0.65625  -0.63185  -0.61852
  Beta  occ. eigenvalues --   -0.61370  -0.60033  -0.57920  -0.56100  -0.50096
  Beta  occ. eigenvalues --   -0.49157  -0.46864  -0.46269  -0.45913  -0.44899
  Beta  occ. eigenvalues --   -0.42389  -0.38941
  Beta virt. eigenvalues --    0.01761   0.03218   0.03599   0.04445   0.05296
  Beta virt. eigenvalues --    0.06030   0.06415   0.07153   0.07636   0.08746
  Beta virt. eigenvalues --    0.08922   0.10388   0.10977   0.12267   0.13010

 Mulliken charges and spin densities:
               1          2
     1  N    1.209362  -0.017942
     2  H    0.287127   0.006236
     3  C   -2.653988   0.914872
     4  H    1.258758  -0.360024
     5  C   -0.196232  -0.108674
     6  C    0.687377  -0.133946
     7  H    0.149538  -0.001177
     8  H    0.260081   0.023713
     9  S   -0.068272   0.004454
    10  O   -1.432943   0.053361
    11  H    0.475574   0.000708
    12  N    0.883901   0.004343
    13  H    0.141933  -0.002287
    14  H    0.117119  -0.001366
    15  C    0.632019  -0.017220
    16  H    0.032353  -0.002410
    17  O   -1.118528   0.040686
    18  O   -0.815527   0.623837
    19  O   -0.468092  -0.025070
    20  H    0.618439  -0.002095
 Sum of Mulliken charges =  -0.00000   1.00000

 Dipole moment (field-independent basis, Debye):
    X=             -1.0332    Y=             -1.0593    Z=             -1.8245  Tot=              2.3491
                          Isotropic Fermi Contact Couplings
        Atom                 a.u.       MegaHertz       Gauss      10(-4) cm-1
     1  N(14)             -0.02387      -7.71313      -2.75224      -2.57282
     2  H(1)               0.00113       5.05016       1.80202       1.68455
     3  C(13)              0.22774     256.02606      91.35646      85.40110
     4  H(1)              -0.07565    -338.14131    -120.65723    -112.79180
     5  C(13)             -0.02329     -26.17797      -9.34095      -8.73203
     6  C(13)             -0.02819     -31.69112     -11.30818     -10.57102
     7  H(1)               0.00183       8.19524       2.92427       2.73364
     8  H(1)               0.01107      49.48951      17.65909      16.50792

 Normal termination of Gaussian 16 at Wed Apr  9 01:02:17 2025.
