 Gaussian 16, Revision C.01,

 ----------------------------------------------------------------------
 #t hf aug-cc-pvdz symm=none int=(grid=ultrafine) guess=(read,tcheck) s
 table=opt
 ----------------------------------------------------------------------
 -----
 title
 -----
 Symbolic Z-matrix:
 Charge =  0 Multiplicity = 2

 SCF Done:  E(UHF) =  -1465.21029181     A.U. after   20 cycles

 1\1\GINC-SE366\Stability\UHF\Aug-CC-pVDZ\C7H13S3\OHZDE\09-Apr-2025\0\\
 #t hf aug-cc-pvdz symm=none int=(grid=ultrafine) guess=(read,tcheck) s
 table=opt\\title\\0,2\C,0,-0.568254,-1.541204,-0.716078\H,0,-0.033787,
 -2.497163,-0.710574\H,0,-0.841447,-1.340921,-1.756458\C,0,-1.841646,-1
 .676975,0.12781\H,0,-2.302182,-2.628438,-0.15136\C,0,-2.564917,0.78477
 6,0.55443\H,0,-3.474274,1.381451,0.641914\H,0,-1.572829,-1.77712,1.184
 767\H,0,-2.147557,0.684792,1.558819\C,0,-2.906478,-0.586331,-0.024494\
 H,0,-0.352266,0.705084,-0.401683\H,0,-3.806837,-0.944297,0.486656\H,0,

 Normal termination of Gaussian 16 at Wed Apr  9 01:02:42 2025.
 Gaussian 16:  ES64L-G16RevC.01  3-Jul-2019

 ----------------------------------------------------------------------
 #t hf aug-cc-pvdz iop(5/13=1,5/36=2,99/5=2) pseudo=read geom=check gue
 ss=(read,tcheck) scf=(maxcycle=1)
 ----------------------------------------------------------------------
 -----
 title
 -----
 Structure from the checkpoint file:  "BH10_168_forward_mol1.chk"
 Charge =  0 Multiplicity = 2

                         Standard orientation:
 ---------------------------------------------------------------------
 Center     Atomic      Atomic             Coordinates (Angstroms)
 Number     Number       Type             X           Y           Z
 ---------------------------------------------------------------------
      1          6           0       -0.568254   -1.541204   -0.716078
      2          1           0       -0.033787   -2.497163   -0.710574
      3          1           0       -0.841447   -1.340921   -1.756458
      4          6           0       -1.841646   -1.676975    0.127810
      5          1           0       -2.302182   -2.628438   -0.151360
      6          6           0       -2.564917    0.784776    0.554430
      7          1           0       -3.474274    1.381451    0.641914
      8          1           0       -1.572829   -1.777120    1.184767
      9          1           0       -2.147557    0.684792    1.558819
     10          6           0       -2.906478   -0.586331   -0.024494
     11          1           0       -0.352266    0.705084   -0.401683
     12          1           0       -3.806837   -0.944297    0.486656
     13          1           0       -3.171556   -0.473337   -1.080018
     14          6           0        0.396805   -0.466071   -0.273853
     15          6           0        2.194614    0.756937    1.143479
     16          6           0        2.965552    0.350331   -0.101062
     17          1           0        2.838475    0.788984    2.022168
     18          1           0        1.712780    1.726906    1.015872
     19          1           0        3.542643    1.185264   -0.497814
     20          1           0        3.635873   -0.482127    0.110264
     21         16           0        0.908314   -0.493285    1.426982
     22         16           0        1.770876   -0.177078   -1.381430
     23         16           0       -1.434259    1.791747   -0.463299
 ---------------------------------------------------------------------

 SCF Done:  E(UHF) =  -1465.68126080     A.U. after    2 cycles

 The electronic state is 2-A.
 Alpha  occ. eigenvalues --  -93.96449 -93.96064 -93.92598 -11.32075 -11.28757
 Alpha  occ. eigenvalues --  -11.28635 -11.25687 -11.25257 -11.24032 -11.23555
 Alpha  occ. eigenvalues --   -8.24585  -8.24185  -8.20685  -6.22373  -6.22254
 Alpha  occ. eigenvalues --   -6.22076  -6.21987  -6.21839  -6.21673  -6.19238
 Alpha  occ. eigenvalues --   -6.18260  -6.17997  -1.18812  -1.10978  -1.05918
 Alpha  occ. eigenvalues --   -1.02870  -1.01669  -0.94158  -0.86510  -0.83247
 Alpha  occ. eigenvalues --   -0.80832  -0.75960  -0.67382  -0.66297  -0.65124
 Alpha  occ. eigenvalues --   -0.62427  -0.61826  -0.58893  -0.57442  -0.57123
 Alpha  occ. eigenvalues --   -0.55169  -0.51844  -0.50016  -0.49810  -0.48688
 Alpha  occ. eigenvalues --   -0.47318  -0.45719  -0.44385  -0.41144  -0.37079
 Alpha  occ. eigenvalues --   -0.34774  -0.30427
 Alpha virt. eigenvalues --    0.03019   0.03405   0.03733   0.04229   0.04958
 Alpha virt. eigenvalues --    0.05091   0.05633   0.06606   0.07341   0.07882
 Alpha virt. eigenvalues --    0.08149   0.08839   0.09364   0.10442   0.11289

  Beta  occ. eigenvalues --  -93.96425 -93.96032 -93.92087 -11.30147 -11.28749
  Beta  occ. eigenvalues --  -11.28638 -11.25748 -11.25386 -11.24013 -11.23542
  Beta  occ. eigenvalues --   -8.24559  -8.24147  -8.20093  -6.22405  -6.22259
  Beta  occ. eigenvalues --   -6.21998  -6.21901  -6.21843  -6.21486  -6.17984
  Beta  occ. eigenvalues --   -6.17671  -6.17007  -1.17359  -1.10543  -1.04613
  Beta  occ. eigenvalues --   -1.02534  -0.99986  -0.93060  -0.85219  -0.82954
  Beta  occ. eigenvalues --   -0.79405  -0.73184  -0.66876  -0.65384  -0.64016
  Beta  occ. eigenvalues --   -0.61701  -0.61165  -0.57168  -0.56825  -0.55362
  Beta  occ. eigenvalues --   -0.54845  -0.51016  -0.49754  -0.49369  -0.48289
  Beta  occ. eigenvalues --   -0.46334  -0.45032  -0.43722  -0.37265  -0.35872
  Beta  occ. eigenvalues --   -0.33683
  Beta virt. eigenvalues --    0.02978   0.03098   0.03607   0.04056   0.04262
  Beta virt. eigenvalues --    0.05003   0.05210   0.05892   0.06672   0.07471
  Beta virt. eigenvalues --    0.07913   0.08160   0.08882   0.09460   0.10513

 Mulliken charges and spin densities:
               1          2
     1  C   -0.389922  -0.148614
     2  H    0.133096   0.022587
     3  H    0.213928   0.004798
     4  C   -0.234908   0.009139
     5  H    0.128475  -0.000944
     6  C   -0.684862  -0.052071
     7  H    0.107890   0.003047
     8  H    0.201835  -0.001044
     9  H    0.217898   0.001814
    10  C   -0.247378   0.010437
    11  H    1.250267  -0.330578
    12  H    0.136692   0.000435
    13  H    0.158206   0.000515
    14  C   -1.319611   0.948547
    15  C   -0.594500  -0.021117
    16  C   -0.581935  -0.003790
    17  H    0.134467  -0.000764
    18  H    0.182580  -0.000462
    19  H    0.189543   0.000293
    20  H    0.191368  -0.003313
    21  S    0.356663   0.009143
    22  S    0.547997   0.037958
    23  S   -0.097787   0.513986
 Sum of Mulliken charges =   0.00000   1.00000

 Dipole moment (field-independent basis, Debye):
    X=              1.2861    Y=             -1.4175    Z=              1.5431  Tot=              2.4586
                          Isotropic Fermi Contact Couplings
        Atom                 a.u.       MegaHertz       Gauss      10(-4) cm-1
     1  C(13)             -0.02293     -25.77941      -9.19873      -8.59908
     2  H(1)               0.01061      47.40586      16.91559      15.81289
     3  H(1)               0.00232      10.34961       3.69300       3.45226
     4  C(13)              0.00474       5.32601       1.90045       1.77657
     5  H(1)              -0.00057      -2.54044      -0.90649      -0.84740
     6  C(13)             -0.01094     -12.29832      -4.38835      -4.10228
     7  H(1)               0.00486      21.72868       7.75333       7.24791
     8  H(1)              -0.00031      -1.36535      -0.48719      -0.45543

 Normal termination of Gaussian 16 at Wed Apr  9 01:02:59 2025.
