 Gaussian 16, Revision C.01,

 ----------------------------------------------------------------------
 #t hf aug-cc-pvdz symm=none int=(grid=ultrafine) guess=(read,tcheck) s
 table=(opt,rrhf)
 ----------------------------------------------------------------------
 -----
 title
 -----
 Symbolic Z-matrix:
 Charge =  1 Multiplicity = 1

 SCF Done:  E(RHF) =  -1454.38055821     A.U. after   17 cycles
 Normal termination of Gaussian 16 at Wed Apr  9 02:22:19 2025.
 Gaussian 16:  ES64L-G16RevC.01  3-Jul-2019

 ----------------------------------------------------------------------
 #t hf aug-cc-pvdz iop(5/13=1,5/36=2,99/5=2) pseudo=read geom=check gue
 ss=(read,tcheck) scf=(maxcycle=1)
 ----------------------------------------------------------------------
 -----
 title
 -----
 Structure from the checkpoint file:  "BH10_329_forward_mol1.chk"
 Charge =  1 Multiplicity = 1

                         Standard orientation:
 ---------------------------------------------------------------------
 Center     Atomic      Atomic             Coordinates (Angstroms)
 Number     Number       Type             X           Y           Z
 ---------------------------------------------------------------------
      1         16           0        3.258012   -1.901496   -0.247256
      2          6           0        3.296130   -2.328308    1.511134
      3          1           0        2.390930   -2.013626    2.028249
      4          1           0        3.391190   -3.411150    1.571964
      5          1           0        4.169948   -1.874280    1.976335
      6          6           0        3.380857   -0.086250   -0.235749
      7          6           0        1.016170   -2.420872   -0.918776
      8          1           0        0.775748   -2.665408    0.103026
      9          1           0        1.401154   -3.193165   -1.564722
     10          1           0        0.941149   -1.406351   -1.278486
     11          7           0       -0.918152   -2.765224   -1.427091
     12          6           0       -1.724530   -2.098564   -0.476851
     13          7           0       -1.974877   -2.740135    0.649856
     14          6           0       -2.703755   -2.115795    1.588836
     15          7           0       -3.212817   -0.894932    1.520027
     16          6           0       -2.931689   -0.275086    0.383579
     17          6           0       -2.171274   -0.802102   -0.667979
     18          7           0       -2.047647    0.118250   -1.686708
     19          6           0       -2.728411    1.151304   -1.256147
     20          7           0       -3.293738    0.978491   -0.026787
     21          1           0       -2.843749    2.078338   -1.797558
     22          6           0       -3.985841    1.981630    0.769915
     23          1           0       -4.478296    1.475097    1.596677
     24          1           0       -4.732926    2.485444    0.159263
     25          1           0       -3.265098    2.703271    1.153812
     26          1           0       -1.064171   -3.770237   -1.377981
     27          1           0       -1.058943   -2.415224   -2.371532
     28          6           0        2.411925    0.686230    0.644629
     29          1           0        3.260056    0.215214   -1.274947
     30          1           0        4.397459    0.159762    0.071433
     31          6           0        0.949646    0.713823    0.210306
     32          6           0        0.507175    2.078928    0.751822
     33          6           0        1.757460    2.952870    0.521589
     34          8           0        2.854778    2.044397    0.619360
     35          7           0        1.653769    3.625506   -0.740351
     36          1           0        1.875901    3.705257    1.300962
     37          8           0       -0.629879    2.595701    0.118243
     38          1           0        0.314105    1.986723    1.824023
     39          8           0        0.876382    0.662712   -1.201329
     40          1           0        0.374963   -0.103537    0.658749
     41          1           0       -0.045849    0.796130   -1.476606
     42          1           0       -0.292754    3.305699   -0.460199
     43          1           0        2.465981    0.323579    1.676839
     44          1           0        2.270570    4.423465   -0.812103
     45          1           0        1.819593    2.994015   -1.516807
     46          1           0       -2.894345   -2.678082    2.495050
 ---------------------------------------------------------------------

 SCF Done:  E(RHF) =  -1455.51469828     A.U. after    2 cycles

 The electronic state is 1-A.
 Alpha  occ. eigenvalues --  -94.09603 -20.67011 -20.65591 -20.65530 -15.69534
 Alpha  occ. eigenvalues --  -15.67830 -15.62422 -15.62250 -15.62042 -15.59980
 Alpha  occ. eigenvalues --  -11.47738 -11.46254 -11.44411 -11.43691 -11.43279
 Alpha  occ. eigenvalues --  -11.42411 -11.41525 -11.40946 -11.39988 -11.39365
 Alpha  occ. eigenvalues --  -11.38969 -11.38359 -11.38319  -8.37697  -6.35494
 Alpha  occ. eigenvalues --   -6.35353  -6.35195  -1.59787  -1.57158  -1.56110
 Alpha  occ. eigenvalues --   -1.48995  -1.43550  -1.38631  -1.32873  -1.29982
 Alpha  occ. eigenvalues --   -1.29802  -1.24126  -1.17867  -1.16744  -1.13170
 Alpha  occ. eigenvalues --   -1.11547  -1.10742  -1.05448  -1.04905  -1.03747
 Alpha  occ. eigenvalues --   -0.97311  -0.96078  -0.93696  -0.92516  -0.91179
 Alpha  occ. eigenvalues --   -0.88166  -0.87642  -0.85845  -0.84525  -0.82977
 Alpha  occ. eigenvalues --   -0.80779  -0.80446  -0.79799  -0.79008  -0.78612
 Alpha  occ. eigenvalues --   -0.77772  -0.77006  -0.76429  -0.75592  -0.74808
 Alpha  occ. eigenvalues --   -0.74149  -0.73344  -0.72358  -0.71211  -0.70680
 Alpha  occ. eigenvalues --   -0.69481  -0.69242  -0.68883  -0.68535  -0.66784
 Alpha  occ. eigenvalues --   -0.66016  -0.65084  -0.63074  -0.62552  -0.62017
 Alpha  occ. eigenvalues --   -0.60560  -0.59581  -0.58193  -0.58017  -0.57491
 Alpha  occ. eigenvalues --   -0.56556  -0.54494  -0.53029  -0.52535  -0.49553
 Alpha  occ. eigenvalues --   -0.46265
 Alpha virt. eigenvalues --   -0.06714  -0.06015  -0.05145  -0.04781  -0.04374
 Alpha virt. eigenvalues --   -0.04142  -0.03665  -0.03210  -0.02903  -0.02424
 Alpha virt. eigenvalues --   -0.01880  -0.01589  -0.01255  -0.01098  -0.00923

 Mulliken charges:
               1
     1  S    0.453286
     2  C   -0.606202
     3  H    0.166841
     4  H    0.076092
     5  H    0.117753
     6  C   -0.560293
     7  C    0.072229
     8  H    0.466759
     9  H    0.080603
    10  H    0.367197
    11  N    0.486692
    12  C   -3.776089
    13  N    2.179421
    14  C   -0.993890
    15  N    2.240433
    16  C   -3.183259
    17  C    0.592979
    18  N    1.807104
    19  C   -1.664380
    20  N    1.993963
    21  H   -0.389327
    22  C   -0.259943
    23  H    0.020929
    24  H    0.125291
    25  H    0.156190
    26  H    0.287188
    27  H    0.428045
    28  C    2.069412
    29  H    0.225617
    30  H    0.160308
    31  C    0.139412
    32  C    1.119634
    33  C   -0.252526
    34  O   -1.783597
    35  N    0.399609
    36  H   -0.048604
    37  O   -1.737395
    38  H    0.103901
    39  O   -2.109766
    40  H    0.323840
    41  H    0.749375
    42  H    0.453170
    43  H    0.122655
    44  H    0.322984
    45  H    0.301023
    46  H   -0.244666
 Sum of Mulliken charges =   1.00000

 Dipole moment (field-independent basis, Debye):
    X=              1.4272    Y=             -2.7881    Z=             -1.1130  Tot=              3.3240

 Test job not archived.
 1\1\GINC-SE090\SP\RHF\Aug-CC-pVDZ\C13H23N6O3S1(1+)\OHZDE\09-Apr-2025\0
 \\#t hf aug-cc-pvdz iop(5/13=1,5/36=2,99/5=2) pseudo=read geom=check g
 uess=(read,tcheck) scf=(maxcycle=1)\\title\\1,1\S,0,3.258012,-1.901496
 ,-0.247256\C,0,3.29613,-2.328308,1.511134\H,0,2.39093,-2.013626,2.0282
 49\H,0,3.39119,-3.41115,1.571964\H,0,4.169948,-1.87428,1.976335\C,0,3.
 380857,-0.08625,-0.235749\C,0,1.01617,-2.420872,-0.918776\H,0,0.775748
 ,-2.665408,0.103026\H,0,1.401154,-3.193165,-1.564722\H,0,0.941149,-1.4
 06351,-1.278486\N,0,-0.918152,-2.765224,-1.427091\C,0,-1.72453,-2.0985

 Normal termination of Gaussian 16 at Wed Apr  9 02:24:48 2025.
