 Gaussian 16, Revision C.01,

 ----------------------------------------------------------------------
 #t hf aug-cc-pvdz symm=none int=(grid=ultrafine) guess=(read,tcheck) s
 table=opt
 ----------------------------------------------------------------------
 -----
 title
 -----
 Symbolic Z-matrix:
 Charge =  0 Multiplicity = 2

 SCF Done:  E(UHF) =  -1629.45912530     A.U. after   18 cycles
 Normal termination of Gaussian 16 at Wed Apr  9 02:09:44 2025.
 Gaussian 16:  ES64L-G16RevC.01  3-Jul-2019

 ----------------------------------------------------------------------
 #t hf aug-cc-pvdz iop(5/13=1,5/36=2,99/5=2) pseudo=read geom=check gue
 ss=(read,tcheck) scf=(maxcycle=1)
 ----------------------------------------------------------------------
 -----
 title
 -----
 Structure from the checkpoint file:  "BH10-RE_291_mol1.chk"
 Charge =  0 Multiplicity = 2

                         Standard orientation:
 ---------------------------------------------------------------------
 Center     Atomic      Atomic             Coordinates (Angstroms)
 Number     Number       Type             X           Y           Z
 ---------------------------------------------------------------------
      1          6           0       -0.007058    0.321317    2.322393
      2          6           0        1.287964    0.909803    2.713077
      3         14           0        0.000633    0.018634    0.396141
      4         14           0        0.748770    1.931258   -0.746997
      5         14           0       -2.163896   -0.544764   -0.343653
      6         14           0        1.428801   -1.781488   -0.104672
      7          6           0        2.623839    2.094456   -0.644576
      8          1           0        2.960831    2.994687   -1.166755
      9          1           0        2.959088    2.161339    0.392495
     10          1           0        3.126688    1.239165   -1.101706
     11          6           0        0.266106    1.792816   -2.565616
     12          1           0        0.653173    2.647857   -3.127286
     13          1           0        0.668800    0.886394   -3.022667
     14          1           0       -0.818354    1.777481   -2.695183
     15          6           0       -0.027652    3.500656   -0.047795
     16          1           0        0.281179    4.370682   -0.634626
     17          1           0       -1.118718    3.454171   -0.069456
     18          1           0        0.279345    3.673606    0.985856
     19          6           0       -2.078783   -1.337003   -2.053429
     20          1           0       -1.525767   -2.278510   -2.035322
     21          1           0       -3.086418   -1.553481   -2.420003
     22          1           0       -1.595572   -0.680261   -2.779794
     23          6           0       -2.961062   -1.777472    0.840261
     24          1           0       -3.066583   -1.367052    1.846831
     25          1           0       -3.959621   -2.054190    0.489715
     26          1           0       -2.369874   -2.692466    0.917084
     27          6           0       -3.264053    0.982725   -0.464787
     28          1           0       -3.358577    1.492908    0.495837
     29          1           0       -2.867224    1.702777   -1.184190
     30          1           0       -4.269095    0.705109   -0.795569
     31          6           0        0.605815   -3.417638    0.348940
     32          1           0       -0.295657   -3.594255   -0.241758
     33          1           0        1.288486   -4.253129    0.169044
     34          1           0        0.321547   -3.444497    1.403855
     35          6           0        1.812763   -1.796177   -1.950965
     36          1           0        2.420100   -2.669367   -2.205875
     37          1           0        0.904003   -1.835775   -2.554856
     38          1           0        2.372471   -0.907188   -2.250247
     39          6           0        3.057578   -1.672522    0.837721
     40          1           0        3.731261   -2.472826    0.517606
     41          1           0        3.562713   -0.719880    0.666385
     42          1           0        2.905213   -1.781705    1.913800
     43          6           0       -1.196090    1.175312    2.774746
     44          1           0       -2.150359    0.711171    2.522305
     45          1           0       -1.173223    1.322691    3.857889
     46          1           0       -1.174788    2.162200    2.306938
     47          1           0       -0.101547   -0.681924    2.755452
     48          1           0        2.185355    0.310358    2.780205
     49          1           0        1.394600    1.985313    2.792710
 ---------------------------------------------------------------------

 SCF Done:  E(UHF) =  -1630.11741498     A.U. after    2 cycles

 The electronic state is 2-A.
 Alpha  occ. eigenvalues --  -69.50174 -69.50170 -69.50118 -69.48026 -11.23369
 Alpha  occ. eigenvalues --  -11.22568 -11.22481 -11.20740 -11.20678 -11.20674
 Alpha  occ. eigenvalues --  -11.20662 -11.20642 -11.20642 -11.20640 -11.20614
 Alpha  occ. eigenvalues --  -11.20550  -6.17286  -6.17262  -6.17217  -6.15526
 Alpha  occ. eigenvalues --   -3.92604  -3.92596  -3.92590  -3.92586  -3.92584
 Alpha  occ. eigenvalues --   -3.92576  -3.92542  -3.92536  -3.92525  -3.90832
 Alpha  occ. eigenvalues --   -3.90737  -3.90724  -1.06786  -0.98287  -0.97429
 Alpha  occ. eigenvalues --   -0.97397  -0.93330  -0.92927  -0.92666  -0.92478
 Alpha  occ. eigenvalues --   -0.92201  -0.92070  -0.92004  -0.80409  -0.72113
 Alpha  occ. eigenvalues --   -0.64569  -0.64293  -0.63259  -0.61322  -0.58901
 Alpha  occ. eigenvalues --   -0.58362  -0.58012  -0.57701  -0.56982  -0.56847
 Alpha  occ. eigenvalues --   -0.56690  -0.56114  -0.56044  -0.55807  -0.54774
 Alpha  occ. eigenvalues --   -0.54554  -0.54502  -0.54063  -0.54046  -0.53869
 Alpha  occ. eigenvalues --   -0.53507  -0.53430  -0.53338  -0.53152  -0.51341
 Alpha  occ. eigenvalues --   -0.49503  -0.45401  -0.44194  -0.44103  -0.43619
 Alpha  occ. eigenvalues --   -0.43548  -0.43282  -0.43157  -0.35192  -0.34818
 Alpha  occ. eigenvalues --   -0.30987
 Alpha virt. eigenvalues --    0.02454   0.02478   0.02550   0.03303   0.04403
 Alpha virt. eigenvalues --    0.04448   0.04729   0.04828   0.04969   0.06755
 Alpha virt. eigenvalues --    0.06830   0.06980   0.07012   0.07156   0.07233

  Beta  occ. eigenvalues --  -69.50173 -69.50156 -69.50121 -69.47951 -11.22775
  Beta  occ. eigenvalues --  -11.22497 -11.21017 -11.20741 -11.20677 -11.20665
  Beta  occ. eigenvalues --  -11.20657 -11.20644 -11.20642 -11.20641 -11.20616
  Beta  occ. eigenvalues --  -11.20541  -6.17281  -6.17244  -6.17221  -6.15404
  Beta  occ. eigenvalues --   -3.92598  -3.92592  -3.92587  -3.92578  -3.92570
  Beta  occ. eigenvalues --   -3.92544  -3.92539  -3.92535  -3.92531  -3.90693
  Beta  occ. eigenvalues --   -3.90672  -3.90580  -1.04869  -0.98243  -0.97394
  Beta  occ. eigenvalues --   -0.97378  -0.92921  -0.92677  -0.92599  -0.92220
  Beta  occ. eigenvalues --   -0.92187  -0.91998  -0.89350  -0.77399  -0.71557
  Beta  occ. eigenvalues --   -0.64389  -0.64214  -0.62588  -0.60739  -0.58729
  Beta  occ. eigenvalues --   -0.58090  -0.57939  -0.57293  -0.56932  -0.56801
  Beta  occ. eigenvalues --   -0.56520  -0.56097  -0.55905  -0.55740  -0.54750
  Beta  occ. eigenvalues --   -0.54527  -0.54441  -0.54054  -0.54006  -0.53846
  Beta  occ. eigenvalues --   -0.53500  -0.53383  -0.53299  -0.52920  -0.50489
  Beta  occ. eigenvalues --   -0.49102  -0.44598  -0.44179  -0.44080  -0.43555
  Beta  occ. eigenvalues --   -0.43528  -0.43281  -0.39580  -0.34762  -0.34724
  Beta virt. eigenvalues --    0.02432   0.02467   0.02528   0.03312   0.04398
  Beta virt. eigenvalues --    0.04456   0.04687   0.04837   0.04939   0.06755
  Beta virt. eigenvalues --    0.06832   0.06976   0.06998   0.07162   0.07233

 Mulliken charges and spin densities:
               1          2
     1  C   -0.096010  -0.338558
     2  C    0.019191   1.533647
     3  Si   3.053755  -0.081039
     4  Si   1.386996  -0.005998
     5  Si   1.269197   0.069549
     6  Si   1.229865  -0.013548
     7  C   -0.293230   0.009025
     8  H   -0.168041   0.000648
     9  H   -0.060123  -0.013847
    10  H   -0.124913   0.003486
    11  C   -0.241672   0.000374
    12  H   -0.174028   0.000363
    13  H   -0.072139   0.001230
    14  H   -0.127247   0.001384
    15  C   -0.385432  -0.002019
    16  H   -0.204386   0.000060
    17  H   -0.081172  -0.000249
    18  H   -0.050386   0.001696
    19  C   -0.248248   0.006307
    20  H   -0.122282  -0.001555
    21  H   -0.220742   0.002539
    22  H   -0.092955  -0.001944
    23  C   -0.338836  -0.007289
    24  H   -0.099455  -0.000836
    25  H   -0.182263   0.000370
    26  H   -0.108666   0.000367
    27  C   -0.321809  -0.005100
    28  H   -0.098209  -0.000289
    29  H   -0.114998   0.000172
    30  H   -0.186760   0.000647
    31  C   -0.362444  -0.000391
    32  H   -0.109540   0.000678
    33  H   -0.185921   0.000270
    34  H   -0.067765   0.000558
    35  C   -0.205263  -0.000781
    36  H   -0.157018   0.000386
    37  H   -0.100669  -0.000923
    38  H   -0.107644  -0.000070
    39  C   -0.346623   0.002221
    40  H   -0.206396   0.000807
    41  H   -0.070445   0.004161
    42  H   -0.052284   0.003595
    43  C   -0.403089   0.043612
    44  H   -0.009249   0.002669
    45  H    0.088162   0.003061
    46  H    0.110529  -0.002857
    47  H   -0.178578   0.023244
    48  H   -0.214786  -0.121152
    49  H   -0.165979  -0.118682
 Sum of Mulliken charges =  -0.00000   1.00000

 Dipole moment (field-independent basis, Debye):
    X=             -0.0849    Y=             -0.1205    Z=             -0.1393  Tot=              0.2028
                          Isotropic Fermi Contact Couplings
        Atom                 a.u.       MegaHertz       Gauss      10(-4) cm-1
     1  C(13)             -0.05667     -63.70570     -22.73178     -21.24993
     2  C(13)              0.20407     229.41187      81.85986      76.52356
     3  Si(29)             0.11163     -99.20696     -35.39951     -33.09188
     4  Si(29)            -0.00307       2.72993       0.97411       0.91061
     5  Si(29)             0.02240     -19.90942      -7.10418      -6.64107
     6  Si(29)            -0.00400       3.55581       1.26880       1.18609
     7  C(13)              0.00193       2.16446       0.77233       0.72199
     8  H(1)               0.00011       0.51287       0.18300       0.17107

 Normal termination of Gaussian 16 at Wed Apr  9 02:12:39 2025.
