 Gaussian 16, Revision C.01,

 ----------------------------------------------------------------------
 #t hf aug-cc-pvdz symm=none int=(grid=ultrafine) guess=(read,tcheck) s
 table=(opt,rrhf)
 ----------------------------------------------------------------------
 -----
 title
 -----
 Symbolic Z-matrix:
 Charge = -1 Multiplicity = 1

 SCF Done:  E(RHF) =  -1399.64616867     A.U. after   16 cycles
 Normal termination of Gaussian 16 at Wed Apr  9 01:38:43 2025.
 Gaussian 16:  ES64L-G16RevC.01  3-Jul-2019

 ----------------------------------------------------------------------
 #t hf aug-cc-pvdz iop(5/13=1,5/36=2,99/5=2) pseudo=read geom=check gue
 ss=(read,tcheck) scf=(maxcycle=1)
 ----------------------------------------------------------------------
 -----
 title
 -----
 Structure from the checkpoint file:  "BH10_314_reverse_mol2.chk"
 Charge = -1 Multiplicity = 1

                         Standard orientation:
 ---------------------------------------------------------------------
 Center     Atomic      Atomic             Coordinates (Angstroms)
 Number     Number       Type             X           Y           Z
 ---------------------------------------------------------------------
      1          6           0       -0.881603    0.978902    0.349601
      2          6           0       -2.374385    0.632262    0.244353
      3          6           0       -2.537792   -0.837857    0.693427
      4          1           0       -2.915880    1.264992    0.948458
      5          6           0       -1.575963   -1.761349   -0.036028
      6          6           0       -0.151345   -1.274406    0.005518
      7          8           0       -0.160450    0.068952   -0.458884
      8          6           0       -0.552525    2.390480   -0.199765
      9          6           0        0.886514   -1.988943   -0.827001
     10          8           0        2.203756   -1.672644   -0.401881
     11          1           0        0.755808   -1.713513   -1.877518
     12          1           0        0.771976   -3.068017   -0.723682
     13         15           0        2.669772   -0.181494    0.131059
     14          8           0        2.048953    0.086506    1.469720
     15          8           0        2.527134    0.831679   -0.974713
     16          8           0        4.245189   -0.508906    0.341664
     17          1           0        4.714928   -0.347656   -0.481686
     18          8           0       -1.960950   -2.786598   -0.553548
     19          8           0       -3.859993   -1.295836    0.547980
     20          1           0       -2.241773   -0.890661    1.748649
     21          1           0       -3.802821   -2.128036    0.056870
     22          8           0       -1.347407    3.286993   -0.045202
     23          8           0        0.608085    2.571441   -0.781028
     24          1           0        1.250770    1.789263   -0.845793
     25          8           0       -0.482293    0.895543    1.680204
     26          1           0        0.501655    0.751594    1.703515
     27          6           0       -2.921375    0.840223   -1.163532
     28          1           0       -3.947356    0.477266   -1.217215
     29          1           0       -2.907929    1.897915   -1.421059
     30          1           0       -2.324746    0.298232   -1.902003
     31          1           0        0.173435   -1.301876    1.051649
 ---------------------------------------------------------------------

 SCF Done:  E(RHF) =  -1400.73875920     A.U. after    2 cycles

 The electronic state is 1-A.
 Alpha  occ. eigenvalues --  -84.29823 -20.47026 -20.46205 -20.45996 -20.45021
 Alpha  occ. eigenvalues --  -20.44368 -20.44077 -20.43329 -20.40101 -20.36361
 Alpha  occ. eigenvalues --  -20.36345 -11.26192 -11.25885 -11.25158 -11.20563
 Alpha  occ. eigenvalues --  -11.20432 -11.19971 -11.14734 -11.12389  -6.74538
 Alpha  occ. eigenvalues --   -4.28692  -4.28298  -4.27857  -1.42821  -1.41089
 Alpha  occ. eigenvalues --   -1.39735  -1.39233  -1.36165  -1.33553  -1.32777
 Alpha  occ. eigenvalues --   -1.31486  -1.26618  -1.22585  -0.99763  -0.97267
 Alpha  occ. eigenvalues --   -0.87801  -0.83601  -0.78828  -0.75254  -0.71081
 Alpha  occ. eigenvalues --   -0.67148  -0.66783  -0.64542  -0.64183  -0.61362
 Alpha  occ. eigenvalues --   -0.59588  -0.57988  -0.57790  -0.55331  -0.53917
 Alpha  occ. eigenvalues --   -0.52873  -0.52307  -0.51945  -0.49760  -0.48714
 Alpha  occ. eigenvalues --   -0.47797  -0.47394  -0.45788  -0.45197  -0.44161
 Alpha  occ. eigenvalues --   -0.43833  -0.42644  -0.41971  -0.41694  -0.41303
 Alpha  occ. eigenvalues --   -0.40214  -0.39227  -0.37849  -0.37060  -0.36185
 Alpha  occ. eigenvalues --   -0.35109  -0.33813  -0.32906  -0.32673  -0.31206
 Alpha  occ. eigenvalues --   -0.30622  -0.29410  -0.28860
 Alpha virt. eigenvalues --    0.11448   0.11813   0.12169   0.12749   0.13311
 Alpha virt. eigenvalues --    0.13772   0.14135   0.15294   0.16077   0.16634
 Alpha virt. eigenvalues --    0.17387   0.17574   0.18603   0.19821   0.20637

 Mulliken charges:
               1
     1  C    1.994219
     2  C   -0.979433
     3  C    1.400295
     4  H    0.090738
     5  C    1.531638
     6  C   -0.357324
     7  O   -1.962581
     8  C    2.923892
     9  C    0.822161
    10  O   -1.833647
    11  H    0.217794
    12  H    0.044226
    13  P    4.756410
    14  O   -1.724229
    15  O   -1.724885
    16  O   -1.352524
    17  H    0.307510
    18  O   -1.652800
    19  O   -1.481376
    20  H    0.288916
    21  H    0.251850
    22  O   -1.565083
    23  O   -1.555818
    24  H    0.858195
    25  O   -1.874105
    26  H    0.522200
    27  C   -0.086798
    28  H    0.178903
    29  H    0.202604
    30  H    0.259685
    31  H    0.499366
 Sum of Mulliken charges =  -1.00000

 Dipole moment (field-independent basis, Debye):
    X=             -2.2702    Y=             -5.3086    Z=             -1.7484  Tot=              6.0325

 Test job not archived.
 1\1\GINC-SE403\SP\RHF\Aug-CC-pVDZ\C8H12O10P1(1-)\OHZDE\09-Apr-2025\0\\
 #t hf aug-cc-pvdz iop(5/13=1,5/36=2,99/5=2) pseudo=read geom=check gue
 ss=(read,tcheck) scf=(maxcycle=1)\\title\\-1,1\C,0,-0.881603,0.978902,
 0.349601\C,0,-2.374385,0.632262,0.244353\C,0,-2.537792,-0.837857,0.693
 427\H,0,-2.91588,1.264992,0.948458\C,0,-1.575963,-1.761349,-0.036028\C
 ,0,-0.151345,-1.274406,0.005518\O,0,-0.16045,0.068952,-0.458884\C,0,-0
 .552525,2.39048,-0.199765\C,0,0.886514,-1.988943,-0.827001\O,0,2.20375
 6,-1.672644,-0.401881\H,0,0.755808,-1.713513,-1.877518\H,0,0.771976,-3

 Normal termination of Gaussian 16 at Wed Apr  9 01:39:40 2025.
