 Gaussian 16, Revision C.01,

 ----------------------------------------------------------------------
 #t hf aug-cc-pvdz symm=none int=(grid=ultrafine) guess=(read,tcheck) s
 table=(opt,rrhf)
 ----------------------------------------------------------------------
 -----
 title
 -----
 Symbolic Z-matrix:
 Charge = -1 Multiplicity = 1

 SCF Done:  E(RHF) =  -1360.54409302     A.U. after   15 cycles
 Normal termination of Gaussian 16 at Wed Apr  9 01:32:42 2025.
 Gaussian 16:  ES64L-G16RevC.01  3-Jul-2019

 ----------------------------------------------------------------------
 #t hf aug-cc-pvdz iop(5/13=1,5/36=2,99/5=2) pseudo=read geom=check gue
 ss=(read,tcheck) scf=(maxcycle=1)
 ----------------------------------------------------------------------
 -----
 title
 -----
 Structure from the checkpoint file:  "BH10_313_forward_mol1.chk"
 Charge = -1 Multiplicity = 1

                         Standard orientation:
 ---------------------------------------------------------------------
 Center     Atomic      Atomic             Coordinates (Angstroms)
 Number     Number       Type             X           Y           Z
 ---------------------------------------------------------------------
      1          6           0       -1.288032    0.973226    0.201172
      2          6           0       -2.620278    0.251583    0.115396
      3          6           0       -2.421909   -1.192771    0.543800
      4          1           0       -2.977841    0.286420   -0.915258
      5          1           0       -3.357773    0.745669    0.747533
      6          6           0       -1.223880   -1.857987   -0.144679
      7          6           0       -0.081769   -1.043055   -0.382708
      8          8           0       -0.344382    0.370463   -0.633480
      9          6           0       -1.377127    2.418795   -0.306570
     10          6           0        0.993366   -1.488227   -1.313766
     11          1           0        0.736662   -0.847241    0.812737
     12          8           0        2.345520   -1.262754   -0.828514
     13          1           0        0.914343   -0.973305   -2.276521
     14          1           0        0.907970   -2.562575   -1.460964
     15         15           0        2.730885   -0.132802    0.258196
     16          8           0        4.132093   -0.234097    0.680922
     17          8           0        1.594267   -0.281022    1.344827
     18          8           0        2.448443    1.280833   -0.474176
     19          1           0        1.503345    1.444554   -0.617943
     20          8           0       -1.298782   -3.076006   -0.338543
     21          8           0       -3.580669   -1.955557    0.293930
     22          1           0       -2.188495   -1.207626    1.616016
     23          1           0       -3.233123   -2.831170    0.054041
     24          8           0       -2.386700    3.023737   -0.539177
     25          8           0       -0.154602    2.964410   -0.425927
     26          1           0       -0.264994    3.881491   -0.709295
     27          8           0       -0.876835    1.021082    1.545831
     28          1           0        0.087586    0.877713    1.595292
 ---------------------------------------------------------------------

 SCF Done:  E(RHF) =  -1361.59590832     A.U. after    2 cycles

 The electronic state is 1-A.
 Alpha  occ. eigenvalues --  -84.30747 -20.52302 -20.46692 -20.46317 -20.45719
 Alpha  occ. eigenvalues --  -20.44366 -20.44177 -20.43838 -20.41423 -20.40757
 Alpha  occ. eigenvalues --  -20.35967 -11.31094 -11.27307 -11.21909 -11.18980
 Alpha  occ. eigenvalues --  -11.18874 -11.14269 -11.14133  -6.75476  -4.29696
 Alpha  occ. eigenvalues --   -4.28988  -4.28957  -1.47808  -1.41827  -1.39863
 Alpha  occ. eigenvalues --   -1.37947  -1.36389  -1.34107  -1.32779  -1.32373
 Alpha  occ. eigenvalues --   -1.29428  -1.24119  -0.97938  -0.95534  -0.86732
 Alpha  occ. eigenvalues --   -0.81290  -0.76337  -0.72362  -0.68157  -0.66352
 Alpha  occ. eigenvalues --   -0.64614  -0.63643  -0.62483  -0.60439  -0.58242
 Alpha  occ. eigenvalues --   -0.57340  -0.55629  -0.55012  -0.54244  -0.53850
 Alpha  occ. eigenvalues --   -0.52286  -0.51381  -0.50077  -0.48011  -0.47039
 Alpha  occ. eigenvalues --   -0.46187  -0.44956  -0.43082  -0.42451  -0.41944
 Alpha  occ. eigenvalues --   -0.41538  -0.40896  -0.40154  -0.39844  -0.38482
 Alpha  occ. eigenvalues --   -0.37222  -0.36651  -0.35092  -0.34139  -0.33411
 Alpha  occ. eigenvalues --   -0.31967  -0.31875  -0.29167  -0.20935
 Alpha virt. eigenvalues --    0.10776   0.12265   0.12446   0.13232   0.13633
 Alpha virt. eigenvalues --    0.14330   0.15217   0.15730   0.16200   0.17620
 Alpha virt. eigenvalues --    0.18780   0.19202   0.19843   0.20393   0.21026

 Mulliken charges:
               1
     1  C    1.176751
     2  C   -0.213935
     3  C    1.174328
     4  H    0.194644
     5  H    0.213380
     6  C    1.465960
     7  C   -0.519598
     8  O   -1.927141
     9  C    3.029544
    10  C    0.573987
    11  H    1.621145
    12  O   -1.644091
    13  H    0.143024
    14  H    0.045491
    15  P    4.090153
    16  O   -1.571288
    17  O   -1.822184
    18  O   -1.405952
    19  H    0.646048
    20  O   -1.768200
    21  O   -1.514637
    22  H    0.319912
    23  H    0.266975
    24  O   -1.367263
    25  O   -1.567843
    26  H    0.522679
    27  O   -1.563935
    28  H    0.402044
 Sum of Mulliken charges =  -1.00000

 Dipole moment (field-independent basis, Debye):
    X=             -5.0133    Y=              3.7657    Z=             -2.3901  Tot=              6.7102

 Test job not archived.
 1\1\GINC-SE149\SP\RHF\Aug-CC-pVDZ\C7H10O10P1(1-)\OHZDE\09-Apr-2025\0\\
 #t hf aug-cc-pvdz iop(5/13=1,5/36=2,99/5=2) pseudo=read geom=check gue
 ss=(read,tcheck) scf=(maxcycle=1)\\title\\-1,1\C,0,-1.288032,0.973226,
 0.201172\C,0,-2.620278,0.251583,0.115396\C,0,-2.421909,-1.192771,0.543
 8\H,0,-2.977841,0.28642,-0.915258\H,0,-3.357773,0.745669,0.747533\C,0,
 -1.22388,-1.857987,-0.144679\C,0,-0.081769,-1.043055,-0.382708\O,0,-0.
 344382,0.370463,-0.63348\C,0,-1.377127,2.418795,-0.30657\C,0,0.993366,
 -1.488227,-1.313766\H,0,0.736662,-0.847241,0.812737\O,0,2.34552,-1.262

 Normal termination of Gaussian 16 at Wed Apr  9 01:33:26 2025.
