 Gaussian 16, Revision C.01,

 ----------------------------------------------------------------------
 #t hf aug-cc-pvdz symm=none int=(grid=ultrafine) guess=(read,tcheck) s
 table=(opt,rrhf)
 ----------------------------------------------------------------------
 -----
 title
 -----
 Symbolic Z-matrix:
 Charge =  0 Multiplicity = 1

 SCF Done:  E(RHF) =  -727.094709541     A.U. after   15 cycles
 Normal termination of Gaussian 16 at Wed Apr  9 00:56:03 2025.
 Gaussian 16:  ES64L-G16RevC.01  3-Jul-2019

 ----------------------------------------------------------------------
 #t hf aug-cc-pvdz iop(5/13=1,5/36=2,99/5=2) pseudo=read geom=check gue
 ss=(read,tcheck) scf=(maxcycle=1)
 ----------------------------------------------------------------------
 -----
 title
 -----
 Structure from the checkpoint file:  "BH10_106_forward_mol2.chk"
 Charge =  0 Multiplicity = 1

                         Standard orientation:
 ---------------------------------------------------------------------
 Center     Atomic      Atomic             Coordinates (Angstroms)
 Number     Number       Type             X           Y           Z
 ---------------------------------------------------------------------
      1         16           0       -1.890726   -0.000000   -0.542786
      2          6           0       -0.154917   -0.000000   -0.242244
      3          6           0        0.532581   -1.208642   -0.134014
      4          6           0        1.901143   -1.205659    0.083679
      5          6           0        2.582590    0.000000    0.192611
      6          6           0        1.901143    1.205660    0.083678
      7          6           0        0.532580    1.208641   -0.134015
      8          1           0        2.437001   -2.142895    0.168165
      9          1           0        3.652707    0.000000    0.361736
     10          1           0       -0.013077   -2.139375   -0.221273
     11          1           0       -0.013078    2.139375   -0.221274
     12          1           0        2.437000    2.142895    0.168164
     13          9           0       -2.446629    0.000000    1.036765
 ---------------------------------------------------------------------

 SCF Done:  E(RHF) =  -727.479170926     A.U. after    2 cycles

 The electronic state is 1-A.
 Alpha  occ. eigenvalues --  -94.02928 -26.45580 -11.28296 -11.27017 -11.27013
 Alpha  occ. eigenvalues --  -11.26973 -11.26049 -11.26032  -8.30209  -6.28007
 Alpha  occ. eigenvalues --   -6.27725  -6.27441  -1.55610  -1.18722  -1.07796
 Alpha  occ. eigenvalues --   -1.04359  -0.96566  -0.86148  -0.83302  -0.73567
 Alpha  occ. eigenvalues --   -0.67497  -0.67192  -0.64006  -0.63473  -0.63461
 Alpha  occ. eigenvalues --   -0.62383  -0.56566  -0.53482  -0.53065  -0.48628
 Alpha  occ. eigenvalues --   -0.38090  -0.37613  -0.36803
 Alpha virt. eigenvalues --    0.02969   0.03455   0.04197   0.05006   0.05459
 Alpha virt. eigenvalues --    0.06116   0.08449   0.08940   0.09181   0.11355
 Alpha virt. eigenvalues --    0.11897   0.12469   0.13322   0.13970   0.14102

 Mulliken charges:
               1
     1  S    0.696551
     2  C    0.579866
     3  C   -0.310825
     4  C    0.548626
     5  C   -0.103941
     6  C    0.548617
     7  C   -0.310822
     8  H   -0.205141
     9  H   -0.201659
    10  H   -0.186831
    11  H   -0.186830
    12  H   -0.205144
    13  F   -0.662466
 Sum of Mulliken charges =  -0.00000

 Dipole moment (field-independent basis, Debye):
    X=              3.2908    Y=              0.0000    Z=             -0.7150  Tot=              3.3676

 Test job not archived.
 1\1\GINC-SE049\SP\RHF\Aug-CC-pVDZ\C6H5F1S1\OHZDE\09-Apr-2025\0\\#t hf
 aug-cc-pvdz iop(5/13=1,5/36=2,99/5=2) pseudo=read geom=check guess=(re
 ad,tcheck) scf=(maxcycle=1)\\title\\0,1\S,0,1.890726,0.,-0.542786\C,0,
 0.154917,0.,-0.242244\C,0,-0.532581,1.208642,-0.134014\C,0,-1.901143,1
 .205659,0.083679\C,0,-2.58259,0.,0.192611\C,0,-1.901143,-1.20566,0.083
 678\C,0,-0.53258,-1.208641,-0.134015\H,0,-2.437001,2.142895,0.168165\H
 ,0,-3.652707,0.,0.361736\H,0,0.013077,2.139375,-0.221273\H,0,0.013078,
 -2.139375,-0.221274\H,0,-2.437,-2.142895,0.168164\F,0,2.446629,-0.0000

 Normal termination of Gaussian 16 at Wed Apr  9 00:56:08 2025.
