 Gaussian 16, Revision C.01,

 ----------------------------------------------------------------------
 #t hf aug-cc-pvdz symm=none int=(grid=ultrafine) guess=(read,tcheck) s
 table=(opt,rrhf)
 ----------------------------------------------------------------------
 -----
 title
 -----
 Symbolic Z-matrix:
 Charge =  0 Multiplicity = 1

 SCF Done:  E(RHF) =  -702.122567154     A.U. after   13 cycles
 Normal termination of Gaussian 16 at Wed Apr  9 01:38:58 2025.
 Gaussian 16:  ES64L-G16RevC.01  3-Jul-2019

 ----------------------------------------------------------------------
 #t hf aug-cc-pvdz iop(5/13=1,5/36=2,99/5=2) pseudo=read geom=check gue
 ss=(read,tcheck) scf=(maxcycle=1)
 ----------------------------------------------------------------------
 -----
 title
 -----
 Structure from the checkpoint file:  "BH10_344_forward_mol2.chk"
 Charge =  0 Multiplicity = 1

                         Standard orientation:
 ---------------------------------------------------------------------
 Center     Atomic      Atomic             Coordinates (Angstroms)
 Number     Number       Type             X           Y           Z
 ---------------------------------------------------------------------
      1          6           0       -2.414506   -0.803625    0.004131
      2          6           0       -1.248911   -0.713170    0.616173
      3         16           0        0.000000    0.393490   -0.000000
      4          8           0       -0.553839    1.107462   -1.142959
      5          8           0        0.553834    1.107463    1.142961
      6          6           0        1.248914   -0.713166   -0.616175
      7          6           0        2.414508   -0.803623   -0.004130
      8          1           0        0.966305   -1.237523   -1.520426
      9          1           0        3.197288   -1.445930   -0.388676
     10          1           0        2.611909   -0.223410    0.890125
     11          1           0       -0.966298   -1.237531    1.520421
     12          1           0       -2.611910   -0.223409   -0.890122
     13          1           0       -3.197284   -1.445935    0.388676
 ---------------------------------------------------------------------

 SCF Done:  E(RHF) =  -702.495239509     A.U. after    2 cycles

 The electronic state is 1-A.
 Alpha  occ. eigenvalues --  -94.19239 -20.53302 -20.53297 -11.28877 -11.28841
 Alpha  occ. eigenvalues --  -11.28560 -11.28556  -8.44527  -6.42649  -6.42438
 Alpha  occ. eigenvalues --   -6.42368  -1.54735  -1.43051  -1.12291  -1.09372
 Alpha  occ. eigenvalues --   -0.95918  -0.84519  -0.77911  -0.73074  -0.69231
 Alpha  occ. eigenvalues --   -0.67728  -0.67209  -0.62146  -0.58504  -0.58178
 Alpha  occ. eigenvalues --   -0.49514  -0.49019  -0.46318  -0.44897  -0.44279
 Alpha  occ. eigenvalues --   -0.41433
 Alpha virt. eigenvalues --    0.02882   0.03328   0.04101   0.05153   0.05776
 Alpha virt. eigenvalues --    0.06595   0.06992   0.09410   0.10751   0.11781
 Alpha virt. eigenvalues --    0.11856   0.12359   0.14019   0.14381   0.15315

 Mulliken charges:
               1
     1  C   -0.017892
     2  C   -0.137450
     3  S    3.899608
     4  O   -1.635307
     5  O   -1.635306
     6  C   -0.137448
     7  C   -0.017890
     8  H   -0.132339
     9  H   -0.024211
    10  H   -0.002608
    11  H   -0.132339
    12  H   -0.002607
    13  H   -0.024212
 Sum of Mulliken charges =  -0.00000

 Dipole moment (field-independent basis, Debye):
    X=              0.0000    Y=             -5.0196    Z=             -0.0000  Tot=              5.0196

 Test job not archived.
 1\1\GINC-SE404\SP\RHF\Aug-CC-pVDZ\C4H6O2S1\OHZDE\09-Apr-2025\0\\#t hf
 aug-cc-pvdz iop(5/13=1,5/36=2,99/5=2) pseudo=read geom=check guess=(re
 ad,tcheck) scf=(maxcycle=1)\\title\\0,1\C,0,-2.414506,-0.803625,0.0041
 31\C,0,-1.248911,-0.71317,0.616173\S,0,0.,0.39349,0.\O,0,-0.553839,1.1
 07462,-1.142959\O,0,0.553834,1.107463,1.142961\C,0,1.248914,-0.713166,
 -0.616175\C,0,2.414508,-0.803623,-0.00413\H,0,0.966305,-1.237523,-1.52
 0426\H,0,3.197288,-1.44593,-0.388676\H,0,2.611909,-0.22341,0.890125\H,
 0,-0.966298,-1.237531,1.520421\H,0,-2.61191,-0.223409,-0.890122\H,0,-3

 Normal termination of Gaussian 16 at Wed Apr  9 01:39:02 2025.
