 Gaussian 16, Revision C.01,

 ----------------------------------------------------------------------
 #t hf aug-cc-pvdz symm=none int=(grid=ultrafine) guess=(read,tcheck) s
 table=(opt,rrhf)
 ----------------------------------------------------------------------
 -----
 title
 -----
 Symbolic Z-matrix:
 Charge = -1 Multiplicity = 1

 SCF Done:  E(RHF) =  -1336.40347821     A.U. after   16 cycles
 Normal termination of Gaussian 16 at Wed Apr  9 01:50:24 2025.
 Gaussian 16:  ES64L-G16RevC.01  3-Jul-2019

 ----------------------------------------------------------------------
 #t hf aug-cc-pvdz iop(5/13=1,5/36=2,99/5=2) pseudo=read geom=check gue
 ss=(read,tcheck) scf=(maxcycle=1)
 ----------------------------------------------------------------------
 -----
 title
 -----
 Structure from the checkpoint file:  "BH10_324_forward_mol1.chk"
 Charge = -1 Multiplicity = 1

                         Standard orientation:
 ---------------------------------------------------------------------
 Center     Atomic      Atomic             Coordinates (Angstroms)
 Number     Number       Type             X           Y           Z
 ---------------------------------------------------------------------
      1         16           0        3.751951   -1.742422   -0.687728
      2          6           0        4.245893   -0.699419    0.731082
      3          6           0        4.065158    0.807748    0.498886
      4          1           0        5.304471   -0.869159    0.940525
      5          1           0        3.684215   -0.982870    1.622447
      6          7           0        4.901407    1.263099   -0.597969
      7          6           0        2.596884    1.167764    0.308115
      8          1           0        4.367680    1.322425    1.423095
      9          8           0        2.198334    1.911617   -0.570930
     10          8           0        1.798262    0.634781    1.213013
     11          6           0        1.266028   -1.913422   -0.180742
     12          8           0       -0.530597   -1.998426    0.228682
     13          1           0        1.291636   -2.925452   -0.540746
     14          1           0        1.591222   -1.710705    0.819914
     15          1           0        1.180881   -1.107764   -0.883195
     16          6           0       -1.218301   -0.932895    0.175912
     17          6           0       -2.642414   -0.942927    0.102674
     18          7           0       -0.635559    0.292247    0.172284
     19          6           0       -1.367805    1.412703   -0.010942
     20          6           0       -3.264646    0.288493   -0.037143
     21          7           0       -2.691657    1.493989   -0.121791
     22          7           0       -3.579959   -1.959418    0.109979
     23          6           0       -4.722021   -1.355071   -0.013661
     24          7           0       -4.606217    0.018308   -0.115314
     25          1           0       -5.689698   -1.835514   -0.045210
     26          6           0       -5.658335    0.997457   -0.238587
     27          1           0       -5.862991    1.483487    0.718392
     28          1           0       -6.565097    0.506554   -0.592362
     29          1           0       -5.358326    1.761642   -0.955208
     30          7           0       -0.652691    2.573920   -0.062660
     31          1           0       -1.164625    3.376535   -0.386739
     32          1           0        0.330287    2.497129   -0.319035
     33          1           0        0.847901    0.584196    0.852133
     34          1           0        4.486190    2.094845   -1.004511
     35          1           0        4.847136    0.542040   -1.317227
 ---------------------------------------------------------------------

 SCF Done:  E(RHF) =  -1337.41257017     A.U. after    2 cycles

 The electronic state is 1-A.
 Alpha  occ. eigenvalues --  -93.72362 -20.44842 -20.41554 -20.41223 -15.46549
 Alpha  occ. eigenvalues --  -15.40214 -15.40196 -15.37952 -15.37611 -15.35599
 Alpha  occ. eigenvalues --  -11.26249 -11.25042 -11.24575 -11.21314 -11.21065
 Alpha  occ. eigenvalues --  -11.20868 -11.19889 -11.14972 -11.13391 -11.11877
 Alpha  occ. eigenvalues --   -8.00446  -5.98315  -5.98055  -5.98007  -1.41562
 Alpha  occ. eigenvalues --   -1.34710  -1.32044  -1.26289  -1.20052  -1.11361
 Alpha  occ. eigenvalues --   -1.09069  -1.07139  -1.06821  -0.93562  -0.90642
 Alpha  occ. eigenvalues --   -0.90241  -0.84963  -0.80749  -0.79933  -0.78806
 Alpha  occ. eigenvalues --   -0.72702  -0.70456  -0.68746  -0.65488  -0.64905
 Alpha  occ. eigenvalues --   -0.61681  -0.60186  -0.59665  -0.58822  -0.57350
 Alpha  occ. eigenvalues --   -0.56682  -0.56543  -0.54649  -0.53880  -0.53153
 Alpha  occ. eigenvalues --   -0.51079  -0.50730  -0.50391  -0.48719  -0.48003
 Alpha  occ. eigenvalues --   -0.47870  -0.45172  -0.43792  -0.43337  -0.42861
 Alpha  occ. eigenvalues --   -0.40931  -0.38738  -0.37202  -0.36120  -0.34924
 Alpha  occ. eigenvalues --   -0.34122  -0.33318  -0.33094  -0.31258  -0.30705
 Alpha  occ. eigenvalues --   -0.28996  -0.21018  -0.16825  -0.16431
 Alpha virt. eigenvalues --    0.08839   0.10058   0.10483   0.11192   0.12532
 Alpha virt. eigenvalues --    0.13066   0.13656   0.13925   0.14095   0.14483
 Alpha virt. eigenvalues --    0.15081   0.16518   0.16701   0.16862   0.17152

 Mulliken charges:
               1
     1  S   -0.346934
     2  C   -0.135965
     3  C   -1.963707
     4  H    0.093429
     5  H    0.102889
     6  N    0.675438
     7  C    2.359980
     8  H    0.200339
     9  O   -1.567163
    10  O   -1.680114
    11  C   -0.173863
    12  O   -1.809888
    13  H   -0.024712
    14  H    0.373698
    15  H    0.306965
    16  C    1.723584
    17  C   -1.886764
    18  N    0.776471
    19  C   -2.082340
    20  C   -2.148687
    21  N    1.405358
    22  N    1.578644
    23  C   -0.975774
    24  N    1.723665
    25  H   -0.227021
    26  C   -0.176459
    27  H    0.155056
    28  H    0.032914
    29  H    0.104199
    30  N    0.878751
    31  H    0.219968
    32  H    0.013400
    33  H    0.963916
    34  H    0.180782
    35  H    0.329946
 Sum of Mulliken charges =  -1.00000

 Dipole moment (field-independent basis, Debye):
    X=            -11.7731    Y=              4.7915    Z=              1.2228  Tot=             12.7695

 Test job not archived.
 1\1\GINC-SE112\SP\RHF\Aug-CC-pVDZ\C10H15N6O3S1(1-)\OHZDE\09-Apr-2025\0
 \\#t hf aug-cc-pvdz iop(5/13=1,5/36=2,99/5=2) pseudo=read geom=check g
 uess=(read,tcheck) scf=(maxcycle=1)\\title\\-1,1\S,0,3.751951,-1.74242
 2,-0.687728\C,0,4.245893,-0.699419,0.731082\C,0,4.065158,0.807748,0.49
 8886\H,0,5.304471,-0.869159,0.940525\H,0,3.684215,-0.98287,1.622447\N,
 0,4.901407,1.263099,-0.597969\C,0,2.596884,1.167764,0.308115\H,0,4.367
 68,1.322425,1.423095\O,0,2.198334,1.911617,-0.57093\O,0,1.798262,0.634
 781,1.213013\C,0,1.266028,-1.913422,-0.180742\O,0,-0.530597,-1.998426,

 Normal termination of Gaussian 16 at Wed Apr  9 01:51:28 2025.
