 Gaussian 16, Revision C.01,

 ----------------------------------------------------------------------
 #t hf aug-cc-pvdz symm=none int=(grid=ultrafine) guess=(read,tcheck) s
 table=(opt,rrhf)
 ----------------------------------------------------------------------
 -----
 title
 -----
 Symbolic Z-matrix:
 Charge =  0 Multiplicity = 1

 SCF Done:  E(RHF) =  -920.665962571     A.U. after   16 cycles
 Normal termination of Gaussian 16 at Wed Apr  9 00:59:53 2025.
 Gaussian 16:  ES64L-G16RevC.01  3-Jul-2019

 ----------------------------------------------------------------------
 #t hf aug-cc-pvdz iop(5/13=1,5/36=2,99/5=2) pseudo=read geom=check gue
 ss=(read,tcheck) scf=(maxcycle=1)
 ----------------------------------------------------------------------
 -----
 title
 -----
 Structure from the checkpoint file:  "BH10-RE_131_mol3.chk"
 Charge =  0 Multiplicity = 1

                         Standard orientation:
 ---------------------------------------------------------------------
 Center     Atomic      Atomic             Coordinates (Angstroms)
 Number     Number       Type             X           Y           Z
 ---------------------------------------------------------------------
      1         17           0        2.814985   -0.816210   -0.995123
      2          6           0        2.007584    0.312431    0.230458
      3          6           0        0.507511    0.114292    0.128286
      4          6           0        2.475865    1.715332   -0.121152
      5          6           0        2.525266   -0.091920    1.606060
      6          6           0       -0.362669    1.165414   -0.108491
      7          6           0       -0.047444   -1.156472    0.320222
      8          1           0        2.156449    2.005229   -1.121608
      9          1           0        3.563767    1.758797   -0.082856
     10          1           0        2.080994    2.433763    0.600953
     11          1           0        2.265249   -1.122153    1.843974
     12          1           0        2.072802    0.557059    2.359990
     13          1           0        3.609656    0.013233    1.654244
     14          6           0       -1.743590    0.978887   -0.150316
     15          6           0       -2.270709   -0.288210    0.045267
     16          6           0       -1.407735   -1.360323    0.279654
     17          1           0        0.604824   -2.005906    0.480069
     18          1           0       -2.383040    1.829482   -0.338256
     19          8           0       -3.594817   -0.584798    0.024084
     20          1           0       -1.833140   -2.345752    0.420014
     21          1           0        0.016068    2.165689   -0.266953
     22          6           0       -4.510668    0.461716   -0.224097
     23          1           0       -5.499127    0.008824   -0.201349
     24          1           0       -4.341785    0.913267   -1.206430
     25          1           0       -4.449388    1.235529    0.547288
 ---------------------------------------------------------------------

 SCF Done:  E(RHF) =  -921.223002329     A.U. after    2 cycles

 The electronic state is 1-A.
 Alpha  occ. eigenvalues -- -105.53915 -20.57512 -11.31789 -11.30812 -11.29748
 Alpha  occ. eigenvalues --  -11.24996 -11.24641 -11.24437 -11.23960 -11.23943
 Alpha  occ. eigenvalues --  -11.23825 -11.23664 -10.58743  -7.75666  -7.75331
 Alpha  occ. eigenvalues --   -7.75323  -1.50441  -1.17702  -1.12560  -1.03231
 Alpha  occ. eigenvalues --   -1.01976  -0.98966  -0.95770  -0.95046  -0.85450
 Alpha  occ. eigenvalues --   -0.83836  -0.77422  -0.73315  -0.68902  -0.66948
 Alpha  occ. eigenvalues --   -0.66236  -0.64008  -0.62615  -0.61070  -0.60696
 Alpha  occ. eigenvalues --   -0.58761  -0.57774  -0.55901  -0.53925  -0.53491
 Alpha  occ. eigenvalues --   -0.52007  -0.51564  -0.49617  -0.48762  -0.46803
 Alpha  occ. eigenvalues --   -0.43563  -0.43198  -0.35446  -0.31977
 Alpha virt. eigenvalues --    0.02962   0.03380   0.03847   0.04311   0.04418
 Alpha virt. eigenvalues --    0.04983   0.05841   0.06711   0.06799   0.07398
 Alpha virt. eigenvalues --    0.08171   0.09160   0.09471   0.10308   0.10614

 Mulliken charges:
               1
     1  Cl  -0.123298
     2  C   -2.333121
     3  C    2.309586
     4  C    0.056255
     5  C   -0.132100
     6  C    0.114360
     7  C    0.420270
     8  H    0.256914
     9  H    0.064789
    10  H    0.344408
    11  H    0.155871
    12  H    0.230277
    13  H    0.151602
    14  C   -0.106036
    15  C    1.577619
    16  C    0.059576
    17  H   -0.367590
    18  H   -0.421889
    19  O   -1.905495
    20  H   -0.320335
    21  H   -0.481817
    22  C    0.137099
    23  H   -0.043551
    24  H    0.179986
    25  H    0.176619
 Sum of Mulliken charges =  -0.00000

 Dipole moment (field-independent basis, Debye):
    X=             -1.8107    Y=              2.5057    Z=              1.3831  Tot=              3.3867

 Test job not archived.
 1\1\GINC-SE103\SP\RHF\Aug-CC-pVDZ\C10H13Cl1O1\OHZDE\09-Apr-2025\0\\#t
 hf aug-cc-pvdz iop(5/13=1,5/36=2,99/5=2) pseudo=read geom=check guess=
 (read,tcheck) scf=(maxcycle=1)\\title\\0,1\Cl,0,2.814985,-0.81621,-0.9
 95123\C,0,2.007584,0.312431,0.230458\C,0,0.507511,0.114292,0.128286\C,
 0,2.475865,1.715332,-0.121152\C,0,2.525266,-0.09192,1.60606\C,0,-0.362
 669,1.165414,-0.108491\C,0,-0.047444,-1.156472,0.320222\H,0,2.156449,2
 .005229,-1.121608\H,0,3.563767,1.758797,-0.082856\H,0,2.080994,2.43376
 3,0.600953\H,0,2.265249,-1.122153,1.843974\H,0,2.072802,0.557059,2.359

 Normal termination of Gaussian 16 at Wed Apr  9 01:00:15 2025.
