 Gaussian 16, Revision C.01,

 ----------------------------------------------------------------------
 #t hf aug-cc-pvdz symm=none int=(grid=ultrafine) guess=(read,tcheck) s
 table=(opt,rrhf)
 ----------------------------------------------------------------------
 -----
 title
 -----
 Symbolic Z-matrix:
 Charge =  0 Multiplicity = 1

 SCF Done:  E(RHF) =  -764.834010574     A.U. after   14 cycles
 Normal termination of Gaussian 16 at Wed Apr  9 00:56:28 2025.
 Gaussian 16:  ES64L-G16RevC.01  3-Jul-2019

 ----------------------------------------------------------------------
 #t hf aug-cc-pvdz iop(5/13=1,5/36=2,99/5=2) pseudo=read geom=check gue
 ss=(read,tcheck) scf=(maxcycle=1)
 ----------------------------------------------------------------------
 -----
 title
 -----
 Structure from the checkpoint file:  "BH10_133_reverse_mol3.chk"
 Charge =  0 Multiplicity = 1

                         Standard orientation:
 ---------------------------------------------------------------------
 Center     Atomic      Atomic             Coordinates (Angstroms)
 Number     Number       Type             X           Y           Z
 ---------------------------------------------------------------------
      1          6           0        1.498148    0.470495    0.646023
      2          6           0        0.139108    0.858997    0.111459
      3          8           0       -0.756436   -0.105564    0.300327
      4          6           0       -2.083638    0.137828   -0.209185
      5          6           0       -2.906410   -1.094108    0.071534
      6          8           0       -0.097095    1.920658   -0.398262
      7         17           0        2.188424   -0.906068   -0.269706
      8          1           0        1.422477    0.162551    1.686300
      9          1           0        2.169792    1.315157    0.538002
     10          1           0       -2.007653    0.350080   -1.276679
     11          1           0       -2.485066    1.025721    0.281912
     12          1           0       -2.475821   -1.967683   -0.419501
     13          1           0       -3.921643   -0.952132   -0.303787
     14          1           0       -2.960301   -1.290575    1.143259
 ---------------------------------------------------------------------

 SCF Done:  E(RHF) =  -765.221626905     A.U. after    2 cycles

 The electronic state is 1-A.
 Alpha  occ. eigenvalues -- -105.57340 -20.59864 -20.54819 -11.40350 -11.32463
 Alpha  occ. eigenvalues --  -11.30548 -11.24076 -10.62131  -7.79085  -7.78688
 Alpha  occ. eigenvalues --   -7.78673  -1.56107  -1.46694  -1.13171  -1.05431
 Alpha  occ. eigenvalues --   -0.96247  -0.87600  -0.80142  -0.72287  -0.69917
 Alpha  occ. eigenvalues --   -0.69491  -0.64317  -0.61149  -0.58369  -0.56646
 Alpha  occ. eigenvalues --   -0.56135  -0.52612  -0.51959  -0.48612  -0.46652
 Alpha  occ. eigenvalues --   -0.45542  -0.44001
 Alpha virt. eigenvalues --    0.03461   0.03820   0.04558   0.04765   0.06047
 Alpha virt. eigenvalues --    0.06609   0.07795   0.08087   0.10872   0.12034
 Alpha virt. eigenvalues --    0.12198   0.13255   0.14143   0.14867   0.15320

 Mulliken charges:
               1
     1  C   -0.784463
     2  C    1.874617
     3  O   -1.160982
     4  C    0.440436
     5  C   -0.468685
     6  O   -1.151654
     7  Cl  -0.031235
     8  H    0.265695
     9  H    0.253090
    10  H    0.128246
    11  H    0.113849
    12  H    0.180252
    13  H    0.166082
    14  H    0.174753
 Sum of Mulliken charges =  -0.00000

 Dipole moment (field-independent basis, Debye):
    X=             -1.4931    Y=             -0.6175    Z=              1.5401  Tot=              2.2322

 Test job not archived.
 1\1\GINC-SE247\SP\RHF\Aug-CC-pVDZ\C4H7Cl1O2\OHZDE\09-Apr-2025\0\\#t hf
  aug-cc-pvdz iop(5/13=1,5/36=2,99/5=2) pseudo=read geom=check guess=(r
 ead,tcheck) scf=(maxcycle=1)\\title\\0,1\C,0,1.498148,0.470495,0.64602
 3\C,0,0.139108,0.858997,0.111459\O,0,-0.756436,-0.105564,0.300327\C,0,
 -2.083638,0.137828,-0.209185\C,0,-2.90641,-1.094108,0.071534\O,0,-0.09
 7095,1.920658,-0.398262\Cl,0,2.188424,-0.906068,-0.269706\H,0,1.422477
 ,0.162551,1.6863\H,0,2.169792,1.315157,0.538002\H,0,-2.007653,0.35008,
 -1.276679\H,0,-2.485066,1.025721,0.281912\H,0,-2.475821,-1.967683,-0.4

 Normal termination of Gaussian 16 at Wed Apr  9 00:56:33 2025.
