 Gaussian 16, Revision C.01,

 ----------------------------------------------------------------------
 #t hf aug-cc-pvdz symm=none int=(grid=ultrafine) guess=(read,tcheck) s
 table=opt
 ----------------------------------------------------------------------
 -----
 title
 -----
 Symbolic Z-matrix:
 Charge =  0 Multiplicity = 2

 SCF Done:  E(UHF) =  -1016.40433985     A.U. after   29 cycles
 Normal termination of Gaussian 16 at Wed Apr  9 01:02:24 2025.
 Gaussian 16:  ES64L-G16RevC.01  3-Jul-2019

 ----------------------------------------------------------------------
 #t hf aug-cc-pvdz iop(5/13=1,5/36=2,99/5=2) pseudo=read geom=check gue
 ss=(read,tcheck) scf=(maxcycle=1)
 ----------------------------------------------------------------------
 -----
 title
 -----
 Structure from the checkpoint file:  "BH10_155_forward_mol1.chk"
 Charge =  0 Multiplicity = 2

                         Standard orientation:
 ---------------------------------------------------------------------
 Center     Atomic      Atomic             Coordinates (Angstroms)
 Number     Number       Type             X           Y           Z
 ---------------------------------------------------------------------
      1          7           0       -0.512079    1.351952    0.480703
      2          1           0       -0.842680    1.304462    1.436307
      3          6           0       -1.204918    0.528197   -0.474555
      4          1           0       -1.557168    1.157674   -1.300311
      5          6           0       -0.296792   -0.540545   -1.104033
      6          6           0       -2.418197   -0.071994    0.239091
      7          1           0       -0.833554   -1.109764   -1.862520
      8          1           0        0.533565   -0.037869   -1.598290
      9         16           0        0.382110   -1.741374    0.073779
     10          8           0       -2.589711    0.076350    1.430573
     11          1           0        1.243912   -0.764897    0.902612
     12          7           0       -3.262227   -0.781752   -0.544954
     13          1           0       -3.160965   -0.831838   -1.543832
     14          1           0       -4.081471   -1.184370   -0.118422
     15          6           0        0.449618    2.223623    0.107445
     16          1           0        0.856598    2.806072    0.947799
     17          8           0        0.841091    2.352307   -1.034451
     18          8           0        2.312850   -0.056571    1.215131
     19          7           0        3.131419   -0.235870    0.282969
     20          8           0        2.817011   -0.953772   -0.634069
 ---------------------------------------------------------------------

 SCF Done:  E(UHF) =  -1017.06883216     A.U. after    2 cycles

 The electronic state is 2-A.
 Alpha  occ. eigenvalues --  -94.03569 -20.57584 -20.57205 -20.55396 -20.52672
 Alpha  occ. eigenvalues --  -15.67493 -15.56840 -15.54666 -11.40225 -11.36980
 Alpha  occ. eigenvalues --  -11.33529 -11.31818  -8.31701  -6.30824  -6.29073
 Alpha  occ. eigenvalues --   -6.28871  -1.63853  -1.50895  -1.47426  -1.46960
 Alpha  occ. eigenvalues --   -1.27966  -1.26498  -1.15204  -1.05390  -0.94085
 Alpha  occ. eigenvalues --   -0.91010  -0.89588  -0.83294  -0.82441  -0.76868
 Alpha  occ. eigenvalues --   -0.74941  -0.73287  -0.71801  -0.70341  -0.68717
 Alpha  occ. eigenvalues --   -0.67399  -0.66151  -0.63030  -0.61629  -0.61291
 Alpha  occ. eigenvalues --   -0.58250  -0.56753  -0.53086  -0.50487  -0.48037
 Alpha  occ. eigenvalues --   -0.46900  -0.45747  -0.45284  -0.44225  -0.43898
 Alpha  occ. eigenvalues --   -0.39019
 Alpha virt. eigenvalues --    0.01178   0.03549   0.03966   0.04663   0.05590
 Alpha virt. eigenvalues --    0.05884   0.06809   0.07592   0.09450   0.10158
 Alpha virt. eigenvalues --    0.10425   0.10838   0.11299   0.11592   0.12027

  Beta  occ. eigenvalues --  -94.02624 -20.57556 -20.56516 -20.55389 -20.52666
  Beta  occ. eigenvalues --  -15.67539 -15.56843 -15.54674 -11.40230 -11.36981
  Beta  occ. eigenvalues --  -11.33454 -11.31974  -8.30605  -6.28468  -6.28305
  Beta  occ. eigenvalues --   -6.26760  -1.63411  -1.50875  -1.47411  -1.46240
  Beta  occ. eigenvalues --   -1.27902  -1.26502  -1.12204  -1.02362  -0.92982
  Beta  occ. eigenvalues --   -0.89586  -0.88912  -0.82788  -0.82405  -0.76814
  Beta  occ. eigenvalues --   -0.73911  -0.72110  -0.71423  -0.70232  -0.68110
  Beta  occ. eigenvalues --   -0.67441  -0.65732  -0.62733  -0.61451  -0.60760
  Beta  occ. eigenvalues --   -0.57737  -0.56024  -0.51634  -0.48027  -0.46969
  Beta  occ. eigenvalues --   -0.45147  -0.44419  -0.44065  -0.43966  -0.37883
  Beta virt. eigenvalues --   -0.02898   0.01248   0.03594   0.04001   0.04681
  Beta virt. eigenvalues --    0.05739   0.05961   0.06839   0.07628   0.09614
  Beta virt. eigenvalues --    0.10183   0.10533   0.11003   0.11335   0.11648

 Mulliken charges and spin densities:
               1          2
     1  N    1.314198   0.006149
     2  H    0.117490   0.000180
     3  C   -1.457658  -0.025829
     4  H    0.124505  -0.001562
     5  C   -0.432547  -0.186865
     6  C    0.791265   0.001404
     7  H    0.193184  -0.007258
     8  H    0.225792   0.025645
     9  S    0.171014   1.224280
    10  O   -1.363259   0.006321
    11  H    0.908316  -0.122295
    12  N    0.920135   0.010350
    13  H    0.036422   0.002148
    14  H    0.101819  -0.001123
    15  C    0.298857   0.001051
    16  H    0.030710   0.000103
    17  O   -1.151474   0.002169
    18  O   -1.469191   0.010750
    19  N    1.787987  -0.035952
    20  O   -1.147566   0.090335
 Sum of Mulliken charges =  -0.00000   1.00000

 Dipole moment (field-independent basis, Debye):
    X=             -7.3823    Y=             -2.1784    Z=             -1.6472  Tot=              7.8713
                          Isotropic Fermi Contact Couplings
        Atom                 a.u.       MegaHertz       Gauss      10(-4) cm-1
     1  N(14)             -0.00211      -0.68147      -0.24316      -0.22731
     2  H(1)               0.00005       0.22666       0.08088       0.07561
     3  C(13)              0.01546      17.38452       6.20323       5.79885
     4  H(1)              -0.00018      -0.81140      -0.28953      -0.27065
     5  C(13)             -0.02856     -32.10147     -11.45460     -10.70790
     6  C(13)             -0.00141      -1.58514      -0.56562      -0.52875
     7  H(1)               0.00079       3.53851       1.26263       1.18032
     8  H(1)               0.01145      51.17438      18.26029      17.06994

 Normal termination of Gaussian 16 at Wed Apr  9 01:02:40 2025.
