 Gaussian 16, Revision C.01,

 ----------------------------------------------------------------------
 #t hf aug-cc-pvdz symm=none int=(grid=ultrafine) guess=(read,tcheck) s
 table=(opt,rrhf)
 ----------------------------------------------------------------------
 -----
 title
 -----
 Symbolic Z-matrix:
 Charge = -1 Multiplicity = 1

 SCF Done:  E(RHF) =  -1360.60793802     A.U. after   16 cycles
 Normal termination of Gaussian 16 at Wed Apr  9 01:31:50 2025.
 Gaussian 16:  ES64L-G16RevC.01  3-Jul-2019

 ----------------------------------------------------------------------
 #t hf aug-cc-pvdz iop(5/13=1,5/36=2,99/5=2) pseudo=read geom=check gue
 ss=(read,tcheck) scf=(maxcycle=1)
 ----------------------------------------------------------------------
 -----
 title
 -----
 Structure from the checkpoint file:  "BH10_313_forward_mol2.chk"
 Charge = -1 Multiplicity = 1

                         Standard orientation:
 ---------------------------------------------------------------------
 Center     Atomic      Atomic             Coordinates (Angstroms)
 Number     Number       Type             X           Y           Z
 ---------------------------------------------------------------------
      1          6           0       -1.089824    1.078966    0.256177
      2          6           0       -2.578367    0.770856    0.215668
      3          6           0       -2.852755   -0.704058    0.538416
      4          1           0       -2.941430    0.981401   -0.789547
      5          1           0       -3.119968    1.414519    0.907997
      6          6           0       -1.863336   -1.649986   -0.130878
      7          6           0       -0.441165   -1.189287    0.038978
      8          8           0       -0.414413    0.112741   -0.535815
      9          6           0       -0.738099    2.435454   -0.400815
     10          6           0        0.710160   -1.975771   -0.538953
     11          8           0        1.883098   -1.670923    0.200457
     12          1           0        0.844266   -1.739786   -1.597759
     13          1           0        0.531298   -3.045267   -0.425285
     14         15           0        2.677254   -0.232724   -0.001918
     15          8           0        1.935708    0.860777    0.747655
     16          8           0        3.043118   -0.068664   -1.431976
     17          8           0        3.975797   -0.578541    0.917154
     18          1           0        4.596099   -1.104302    0.404151
     19          8           0       -2.241422   -2.647914   -0.700866
     20          8           0       -4.173148   -1.056326    0.204148
     21          1           0       -2.691023   -0.859017    1.615652
     22          1           0       -4.111834   -1.893741   -0.278054
     23          8           0       -1.595494    3.183377   -0.799949
     24          8           0        0.543369    2.717809   -0.455324
     25          1           0        1.139000    1.993795   -0.085752
     26          8           0       -0.629671    1.053841    1.574355
     27          1           0        0.355799    1.014512    1.531488
     28          1           0       -0.256241   -1.117722    1.115612
 ---------------------------------------------------------------------

 SCF Done:  E(RHF) =  -1361.65813204     A.U. after    2 cycles

 The electronic state is 1-A.
 Alpha  occ. eigenvalues --  -84.29458 -20.47285 -20.46725 -20.46503 -20.45175
 Alpha  occ. eigenvalues --  -20.44907 -20.44705 -20.43992 -20.41254 -20.37296
 Alpha  occ. eigenvalues --  -20.35127 -11.26925 -11.26180 -11.25975 -11.21505
 Alpha  occ. eigenvalues --  -11.20596 -11.19672 -11.14643  -6.74171  -4.28354
 Alpha  occ. eigenvalues --   -4.27869  -4.27445  -1.43403  -1.41478  -1.40257
 Alpha  occ. eigenvalues --   -1.39149  -1.36604  -1.34164  -1.32872  -1.32762
 Alpha  occ. eigenvalues --   -1.26570  -1.21977  -0.98399  -0.97275  -0.86513
 Alpha  occ. eigenvalues --   -0.79821  -0.77543  -0.71361  -0.67871  -0.67121
 Alpha  occ. eigenvalues --   -0.66379  -0.63958  -0.62755  -0.59923  -0.58225
 Alpha  occ. eigenvalues --   -0.57729  -0.55477  -0.54018  -0.52838  -0.52019
 Alpha  occ. eigenvalues --   -0.51561  -0.49894  -0.49247  -0.47623  -0.46863
 Alpha  occ. eigenvalues --   -0.46084  -0.45189  -0.44023  -0.43109  -0.42190
 Alpha  occ. eigenvalues --   -0.41396  -0.40369  -0.39780  -0.38841  -0.38353
 Alpha  occ. eigenvalues --   -0.36495  -0.35683  -0.34363  -0.33971  -0.33467
 Alpha  occ. eigenvalues --   -0.31127  -0.30375  -0.30003  -0.28683
 Alpha virt. eigenvalues --    0.11357   0.11893   0.12283   0.12878   0.13564
 Alpha virt. eigenvalues --    0.14628   0.14950   0.15635   0.16789   0.17480
 Alpha virt. eigenvalues --    0.17900   0.19364   0.20213   0.20748   0.21307

 Mulliken charges:
               1
     1  C    1.561614
     2  C   -0.070879
     3  C    1.137650
     4  H    0.198475
     5  H    0.213221
     6  C    1.639104
     7  C   -0.118048
     8  O   -1.673041
     9  C    2.478403
    10  C    0.549904
    11  O   -1.823882
    12  H    0.216295
    13  H    0.000820
    14  P    4.581811
    15  O   -1.978712
    16  O   -1.515292
    17  O   -1.327409
    18  H    0.296563
    19  O   -1.606887
    20  O   -1.468583
    21  H    0.312049
    22  H    0.245303
    23  O   -1.395562
    24  O   -1.490635
    25  H    0.784829
    26  O   -1.664707
    27  H    0.456552
    28  H    0.461043
 Sum of Mulliken charges =  -1.00000

 Dipole moment (field-independent basis, Debye):
    X=             -2.7947    Y=             -5.6231    Z=              2.5314  Tot=              6.7703

 Test job not archived.
 1\1\GINC-SE090\SP\RHF\Aug-CC-pVDZ\C7H10O10P1(1-)\OHZDE\09-Apr-2025\0\\
 #t hf aug-cc-pvdz iop(5/13=1,5/36=2,99/5=2) pseudo=read geom=check gue
 ss=(read,tcheck) scf=(maxcycle=1)\\title\\-1,1\C,0,-1.089824,1.078966,
 0.256177\C,0,-2.578367,0.770856,0.215668\C,0,-2.852755,-0.704058,0.538
 416\H,0,-2.94143,0.981401,-0.789547\H,0,-3.119968,1.414519,0.907997\C,
 0,-1.863336,-1.649986,-0.130878\C,0,-0.441165,-1.189287,0.038978\O,0,-
 0.414413,0.112741,-0.535815\C,0,-0.738099,2.435454,-0.400815\C,0,0.710
 16,-1.975771,-0.538953\O,0,1.883098,-1.670923,0.200457\H,0,0.844266,-1

 Normal termination of Gaussian 16 at Wed Apr  9 01:32:33 2025.
