 Gaussian 16, Revision C.01,

 ----------------------------------------------------------------------
 #t hf aug-cc-pvdz symm=none int=(grid=ultrafine) guess=(read,tcheck) s
 table=(opt,rrhf)
 ----------------------------------------------------------------------
 -----
 title
 -----
 Symbolic Z-matrix:
 Charge =  0 Multiplicity = 1

 SCF Done:  E(RHF) =  -1035.23560256     A.U. after   17 cycles
 Normal termination of Gaussian 16 at Wed Apr  9 01:55:30 2025.
 Gaussian 16:  ES64L-G16RevC.01  3-Jul-2019

 ----------------------------------------------------------------------
 #t hf aug-cc-pvdz iop(5/13=1,5/36=2,99/5=2) pseudo=read geom=check gue
 ss=(read,tcheck) scf=(maxcycle=1)
 ----------------------------------------------------------------------
 -----
 title
 -----
 Structure from the checkpoint file:  "BH10_289_forward_mol1.chk"
 Charge =  0 Multiplicity = 1

                         Standard orientation:
 ---------------------------------------------------------------------
 Center     Atomic      Atomic             Coordinates (Angstroms)
 Number     Number       Type             X           Y           Z
 ---------------------------------------------------------------------
      1          6           0        2.483630   -2.560276   -0.263057
      2          1           0        2.418323   -3.648848   -0.278944
      3          1           0        0.717604   -2.651309   -1.516471
      4          6           0        1.240341   -1.608491    1.399210
      5          8           0        0.904321   -1.279538    2.497395
      6          6           0       -1.617601   -0.665576    1.181382
      7          8           0       -2.746149   -0.119147    0.677954
      8          8           0       -1.230773   -0.756397   -1.032679
      9          1           0       -4.616560   -1.729872   -0.795302
     10          1           0       -3.182121   -2.648513   -0.340941
     11          1           0       -4.189893    1.094521   -1.537550
     12          1           0       -2.510282    1.521049   -1.895838
     13          6           0       -1.855710    1.885144    2.129035
     14          1           0       -0.152038    1.641119    0.878370
     15          1           0       -2.232340    1.850267    3.145686
     16          1           0       -2.410942    2.096125    0.072906
     17          1           0        0.771985   -0.643784   -2.603518
     18          6           0        1.827959    0.609263   -1.260123
     19          6           0        1.204019    2.940198   -1.069737
     20          6           0        3.023741    2.085796    0.236279
     21          1           0        3.493030    0.022077   -0.023293
     22          1           0        2.356935    4.126620    0.300232
     23          1           0        0.209000    1.516043   -2.327246
     24          1           0        3.434083   -2.249481   -0.692080
     25          6           0        1.273019   -1.903841   -0.949418
     26          7           0        0.500314   -1.528836    0.232323
     27          8           0        2.447681   -2.134243    1.103289
     28          6           0       -0.762329   -0.985102    0.160462
     29          1           0       -1.520897   -0.906205    2.222334
     30          5           0       -2.753859   -0.496559   -0.876411
     31          6           0       -3.554368   -1.872012   -1.016508
     32          1           0       -3.486006   -2.257144   -2.038854
     33          6           0       -3.217673    0.688980   -1.834065
     34          1           0       -3.340050    0.305096   -2.851300
     35          6           0       -2.759321    1.854982    1.064562
     36          6           0       -0.555419    1.575326    1.879648
     37          1           0        0.150226    1.366752    2.672992
     38          1           0       -3.823394    1.952373    1.230333
     39          6           0        1.598272   -0.737864   -1.901929
     40          1           0        2.477747   -1.032411   -2.484216
     41          6           0        1.011498    1.679557   -1.617827
     42          6           0        2.209861    3.146586   -0.136734
     43          6           0        2.838829    0.830769   -0.326221
     44          1           0        3.809846    2.234562    0.966585
     45          1           0        0.559717    3.759574   -1.365532
 ---------------------------------------------------------------------

 SCF Done:  E(RHF) =  -1036.28378654     A.U. after    2 cycles

 The electronic state is 1-A.
 Alpha  occ. eigenvalues --  -20.60474 -20.55787 -20.53787 -20.53275 -15.56216
 Alpha  occ. eigenvalues --  -11.42435 -11.34751 -11.32491 -11.31489 -11.30975
 Alpha  occ. eigenvalues --  -11.28330 -11.25857 -11.25828 -11.25442 -11.25206
 Alpha  occ. eigenvalues --  -11.25130 -11.24976 -11.24950 -11.24724 -11.23901
 Alpha  occ. eigenvalues --  -11.17420 -11.15809  -7.58118  -1.56863  -1.50817
 Alpha  occ. eigenvalues --   -1.47345  -1.43523  -1.29074  -1.17406  -1.10577
 Alpha  occ. eigenvalues --   -1.09962  -1.04188  -1.02816  -1.00869  -0.96297
 Alpha  occ. eigenvalues --   -0.94819  -0.93552  -0.90914  -0.89202  -0.88166
 Alpha  occ. eigenvalues --   -0.84815  -0.82175  -0.79453  -0.77350  -0.75247
 Alpha  occ. eigenvalues --   -0.74133  -0.72630  -0.71339  -0.69926  -0.68234
 Alpha  occ. eigenvalues --   -0.67147  -0.66529  -0.65419  -0.64560  -0.64214
 Alpha  occ. eigenvalues --   -0.63028  -0.61554  -0.60884  -0.60553  -0.60096
 Alpha  occ. eigenvalues --   -0.58885  -0.58556  -0.57832  -0.56347  -0.55117
 Alpha  occ. eigenvalues --   -0.54276  -0.53569  -0.52428  -0.52250  -0.51673
 Alpha  occ. eigenvalues --   -0.50973  -0.50297  -0.49745  -0.49333  -0.48773
 Alpha  occ. eigenvalues --   -0.46917  -0.46333  -0.46222  -0.45399  -0.41711
 Alpha  occ. eigenvalues --   -0.37645  -0.35813  -0.35134  -0.27918
 Alpha virt. eigenvalues --    0.02438   0.02836   0.02892   0.03234   0.03718
 Alpha virt. eigenvalues --    0.03804   0.04177   0.04686   0.05172   0.05379
 Alpha virt. eigenvalues --    0.06534   0.06564   0.06960   0.07570   0.07855

 Mulliken charges:
               1
     1  C    0.570340
     2  H    0.039315
     3  H   -0.121282
     4  C    2.375265
     5  O   -1.440250
     6  C    1.309654
     7  O   -2.147817
     8  O   -2.538984
     9  H   -0.046433
    10  H    0.001616
    11  H    0.116845
    12  H    0.045440
    13  C    0.849695
    14  H   -0.442478
    15  H   -0.163502
    16  H    0.141297
    17  H    0.060283
    18  C    0.861370
    19  C   -0.056590
    20  C   -0.172870
    21  H   -0.391559
    22  H   -0.266923
    23  H   -0.262199
    24  H    0.077881
    25  C   -0.815513
    26  N    3.334559
    27  O   -1.542154
    28  C   -1.348512
    29  H   -0.279400
    30  B    2.983998
    31  C   -0.527176
    32  H    0.036501
    33  C   -0.444674
    34  H   -0.110219
    35  C    0.068717
    36  C    0.207784
    37  H   -0.180981
    38  H   -0.123147
    39  C   -0.820827
    40  H    0.077219
    41  C    0.821823
    42  C    0.363554
    43  C    0.596413
    44  H   -0.334944
    45  H   -0.361134
 Sum of Mulliken charges =  -0.00000

 Dipole moment (field-independent basis, Debye):
    X=              2.8204    Y=              1.7320    Z=             -1.2763  Tot=              3.5473

 Test job not archived.
 1\1\GINC-SE070\SP\RHF\Aug-CC-pVDZ\C17H22B1N1O4\OHZDE\09-Apr-2025\0\\#t
  hf aug-cc-pvdz iop(5/13=1,5/36=2,99/5=2) pseudo=read geom=check guess
 =(read,tcheck) scf=(maxcycle=1)\\title\\0,1\C,0,2.483629,-2.560277,-0.
 263057\H,0,2.418322,-3.648849,-0.278944\H,0,0.717603,-2.651309,-1.5164
 71\C,0,1.240341,-1.608491,1.39921\O,0,0.904321,-1.279538,2.497395\C,0,
 -1.617601,-0.665576,1.181382\O,0,-2.746149,-0.119146,0.677954\O,0,-1.2
 30773,-0.756397,-1.032679\H,0,-4.61656,-1.729871,-0.795302\H,0,-3.1821
 22,-2.648512,-0.340941\H,0,-4.189893,1.094522,-1.53755\H,0,-2.510282,1

 Normal termination of Gaussian 16 at Wed Apr  9 01:58:00 2025.
