 Gaussian 16, Revision C.01,

 ----------------------------------------------------------------------
 #t hf aug-cc-pvdz symm=none int=(grid=ultrafine) guess=(read,tcheck) s
 table=opt
 ----------------------------------------------------------------------
 -----
 title
 -----
 Symbolic Z-matrix:
 Charge =  0 Multiplicity = 2

 SCF Done:  E(UHF) =  -670.130936000     A.U. after   19 cycles

 1\1\GINC-SE083\Stability\UHF\Aug-CC-pVDZ\C7H13S1\OHZDE\09-Apr-2025\0\\
 #t hf aug-cc-pvdz symm=none int=(grid=ultrafine) guess=(read,tcheck) s
 table=opt\\title\\0,2\C,0,0.13325,-0.371573,0.250681\C,0,1.144215,-1.4
 86638,-0.099525\C,0,2.170155,-0.399295,-0.473692\H,0,0.827819,-2.06453
 2,-0.968893\H,0,1.399409,-2.171639,0.709499\C,0,1.013967,0.632272,-0.6
 06145\H,0,2.774855,-0.560967,-1.365517\H,0,2.832462,-0.150316,0.35693\
 S,0,-1.528844,-0.722882,-0.402102\C,0,-2.358168,0.864129,-0.125846\H,0
 ,-3.324771,0.80538,-0.624551\H,0,-1.786135,1.680786,-0.566869\H,0,-2.5

 Normal termination of Gaussian 16 at Wed Apr  9 01:03:52 2025.
 Gaussian 16:  ES64L-G16RevC.01  3-Jul-2019

 ----------------------------------------------------------------------
 #t hf aug-cc-pvdz iop(5/13=1,5/36=2,99/5=2) pseudo=read geom=check gue
 ss=(read,tcheck) scf=(maxcycle=1)
 ----------------------------------------------------------------------
 -----
 title
 -----
 Structure from the checkpoint file:  "BH10_22_reverse_mol2.chk"
 Charge =  0 Multiplicity = 2

                         Standard orientation:
 ---------------------------------------------------------------------
 Center     Atomic      Atomic             Coordinates (Angstroms)
 Number     Number       Type             X           Y           Z
 ---------------------------------------------------------------------
      1          6           0        0.133250   -0.371573    0.250681
      2          6           0        1.144215   -1.486638   -0.099525
      3          6           0        2.170155   -0.399295   -0.473692
      4          1           0        0.827819   -2.064532   -0.968893
      5          1           0        1.399409   -2.171639    0.709499
      6          6           0        1.013967    0.632272   -0.606145
      7          1           0        2.774855   -0.560967   -1.365517
      8          1           0        2.832462   -0.150316    0.356930
      9         16           0       -1.528844   -0.722882   -0.402102
     10          6           0       -2.358168    0.864129   -0.125846
     11          1           0       -3.324771    0.805380   -0.624551
     12          1           0       -1.786135    1.680786   -0.566869
     13          1           0       -2.523166    1.059102    0.932838
     14          6           0        0.118507   -0.052584    1.736424
     15          1           0       -0.339540   -0.873947    2.289831
     16          1           0       -0.435873    0.862706    1.948671
     17          1           0        1.135521    0.087564    2.112257
     18          6           0        1.224305    2.013494   -0.152659
     19          1           0        0.883293    2.860889   -0.732829
     20          1           0        1.711977    2.216665    0.793262
     21          1           0        0.628271    0.615591   -1.626420
 ---------------------------------------------------------------------

 SCF Done:  E(UHF) =  -670.487670095     A.U. after    2 cycles

 The electronic state is 2-A.
 Alpha  occ. eigenvalues --  -93.92957 -11.26985 -11.25675 -11.24165 -11.23655
 Alpha  occ. eigenvalues --  -11.23313 -11.23130 -11.22873  -8.21092  -6.18914
 Alpha  occ. eigenvalues --   -6.18756  -6.18550  -1.16762  -1.05741  -1.00299
 Alpha  occ. eigenvalues --   -0.97863  -0.89731  -0.85374  -0.82168  -0.72206
 Alpha  occ. eigenvalues --   -0.65499  -0.64053  -0.61837  -0.60131  -0.58768
 Alpha  occ. eigenvalues --   -0.57699  -0.55323  -0.54437  -0.53450  -0.50920
 Alpha  occ. eigenvalues --   -0.48226  -0.45761  -0.44107  -0.42797  -0.36536
 Alpha  occ. eigenvalues --   -0.32322
 Alpha virt. eigenvalues --    0.03323   0.03693   0.03747   0.04191   0.05499
 Alpha virt. eigenvalues --    0.05649   0.05987   0.06359   0.06911   0.08628
 Alpha virt. eigenvalues --    0.09122   0.09302   0.10210   0.11637   0.12249

  Beta  occ. eigenvalues --  -93.92956 -11.26651 -11.25665 -11.24085 -11.23158
  Beta  occ. eigenvalues --  -11.23088 -11.22886 -11.21791  -8.21092  -6.18917
  Beta  occ. eigenvalues --   -6.18756  -6.18541  -1.16142  -1.05472  -0.98218
  Beta  occ. eigenvalues --   -0.95612  -0.89518  -0.83145  -0.80404  -0.71712
  Beta  occ. eigenvalues --   -0.65170  -0.63546  -0.61165  -0.59661  -0.58243
  Beta  occ. eigenvalues --   -0.57357  -0.55295  -0.54193  -0.52940  -0.49565
  Beta  occ. eigenvalues --   -0.47579  -0.45407  -0.43710  -0.41553  -0.33738
  Beta virt. eigenvalues --    0.03342   0.03602   0.03725   0.04195   0.05446
  Beta virt. eigenvalues --    0.05647   0.05987   0.06294   0.06589   0.08610
  Beta virt. eigenvalues --    0.09119   0.09228   0.09956   0.10334   0.11724

 Mulliken charges and spin densities:
               1          2
     1  C   -0.992796   0.076221
     2  C    0.510592  -0.030372
     3  C   -0.091562   0.094624
     4  H    0.042749   0.001446
     5  H    0.060344  -0.001195
     6  C    0.472076  -0.369243
     7  H   -0.002862  -0.001354
     8  H    0.036741  -0.008446
     9  S    0.343411   0.006200
    10  C   -0.653787   0.009036
    11  H    0.091859   0.000755
    12  H    0.172470  -0.007824
    13  H    0.189362   0.003657
    14  C   -0.426462   0.002862
    15  H    0.172619   0.001682
    16  H    0.191221  -0.011869
    17  H    0.191223   0.003826
    18  C   -0.025785   1.433271
    19  H   -0.145339  -0.101906
    20  H   -0.072429  -0.096383
    21  H   -0.063644  -0.004988
 Sum of Mulliken charges =  -0.00000   1.00000

 Dipole moment (field-independent basis, Debye):
    X=              0.8016    Y=              1.3674    Z=              0.6419  Tot=              1.7101
                          Isotropic Fermi Contact Couplings
        Atom                 a.u.       MegaHertz       Gauss      10(-4) cm-1
     1  C(13)              0.06978      78.44508      27.99115      26.16646
     2  C(13)             -0.00714      -8.02852      -2.86477      -2.67802
     3  C(13)              0.05089      57.21367      20.41526      19.08443
     4  H(1)               0.00018       0.78271       0.27929       0.26109
     5  H(1)              -0.00010      -0.44082      -0.15730      -0.14704
     6  C(13)             -0.07609     -85.54383     -30.52416     -28.53435
     7  H(1)              -0.00113      -5.03227      -1.79564      -1.67858
     8  H(1)              -0.00148      -6.63424      -2.36726      -2.21294

 Normal termination of Gaussian 16 at Wed Apr  9 01:04:07 2025.
