 Gaussian 16, Revision C.01,

 ----------------------------------------------------------------------
 #t hf aug-cc-pvdz symm=none int=(grid=ultrafine) guess=(read,tcheck) s
 table=(opt,rrhf)
 ----------------------------------------------------------------------
 -----
 title
 -----
 Symbolic Z-matrix:
 Charge =  0 Multiplicity = 1

 SCF Done:  E(RHF) =  -1310.51841596     A.U. after   15 cycles
 Normal termination of Gaussian 16 at Wed Apr  9 02:27:37 2025.
 Gaussian 16:  ES64L-G16RevC.01  3-Jul-2019

 ----------------------------------------------------------------------
 #t hf aug-cc-pvdz iop(5/13=1,5/36=2,99/5=2) pseudo=read geom=check gue
 ss=(read,tcheck) scf=(maxcycle=1)
 ----------------------------------------------------------------------
 -----
 title
 -----
 Structure from the checkpoint file:  "BH10_88_reverse_mol2.chk"
 Charge =  0 Multiplicity = 1

                         Standard orientation:
 ---------------------------------------------------------------------
 Center     Atomic      Atomic             Coordinates (Angstroms)
 Number     Number       Type             X           Y           Z
 ---------------------------------------------------------------------
      1          6           0        0.178413   -0.823932   -0.251321
      2          6           0        0.500657   -0.272352    1.130337
      3          6           0       -0.564110   -2.225417   -0.101967
      4          8           0       -1.366366   -2.245085   -1.271389
      5          6           0       -1.602871   -2.057438    0.990328
      6          6           0       -2.559970   -1.317695    0.447685
      7          6           0       -2.113499   -1.063430   -0.978505
      8          6           0       -0.942530   -0.033538   -0.995351
      9          6           0       -1.204798    1.374631   -0.526340
     10          8           0       -2.427548    1.543859   -0.036993
     11          8           0       -0.417906    2.282477   -0.669853
     12          8           0       -0.130481    0.600147    1.670003
     13          8           0        1.488552   -0.938219    1.712770
     14          6           0        1.927608   -0.413504    2.970391
     15          6           0       -2.710640    2.842510    0.498822
     16         16           0        1.657913   -1.140659   -1.282432
     17          6           0        2.179990    0.504161   -1.853826
     18          6           0        2.969451    1.333536   -0.854407
     19          8           0        2.228455    1.668188    0.297614
     20          1           0        2.736767   -1.064048    3.290772
     21          1           0        1.113307   -0.423203    3.694574
     22          1           0        2.281880    0.606383    2.825380
     23          1           0       -3.737290    2.795994    0.851167
     24          1           0       -2.599565    3.604287   -0.271600
     25          1           0       -2.027689    3.050810    1.321518
     26          1           0        1.312237    1.062419   -2.209276
     27          1           0        2.806519    0.292878   -2.723904
     28          1           0        3.329212    2.238006   -1.363973
     29          1           0        3.839884    0.774028   -0.508613
     30          1           0        1.413353    2.117914    0.030295
     31          1           0       -3.433059   -0.891018    0.914570
     32          1           0       -1.497128   -2.382814    2.014391
     33          1           0        0.106321   -3.077919   -0.056420
     34          1           0       -2.881053   -0.889682   -1.726354
     35          1           0       -0.634177    0.060390   -2.035895
 ---------------------------------------------------------------------

 SCF Done:  E(RHF) =  -1311.48865604     A.U. after    2 cycles

 The electronic state is 1-A.
 Alpha  occ. eigenvalues --  -93.94486 -20.59956 -20.58760 -20.55856 -20.53728
 Alpha  occ. eigenvalues --  -20.53159 -20.53091 -11.40172 -11.39053 -11.31733
 Alpha  occ. eigenvalues --  -11.31097 -11.30400 -11.29952 -11.28899 -11.28218
 Alpha  occ. eigenvalues --  -11.27289 -11.26487 -11.24813 -11.24555  -8.22563
 Alpha  occ. eigenvalues --   -6.20387  -6.20214  -6.20006  -1.56098  -1.55163
 Alpha  occ. eigenvalues --   -1.49998  -1.46214  -1.45355  -1.43838  -1.14889
 Alpha  occ. eigenvalues --   -1.09390  -1.06192  -1.04237  -0.98367  -0.97698
 Alpha  occ. eigenvalues --   -0.94083  -0.87984  -0.84300  -0.82807  -0.79876
 Alpha  occ. eigenvalues --   -0.78179  -0.77084  -0.75247  -0.73375  -0.70225
 Alpha  occ. eigenvalues --   -0.68973  -0.68060  -0.68050  -0.67417  -0.65604
 Alpha  occ. eigenvalues --   -0.65092  -0.63025  -0.62815  -0.61040  -0.59161
 Alpha  occ. eigenvalues --   -0.58775  -0.57538  -0.57256  -0.56043  -0.55578
 Alpha  occ. eigenvalues --   -0.54350  -0.53572  -0.53263  -0.51980  -0.51840
 Alpha  occ. eigenvalues --   -0.50016  -0.47501  -0.47186  -0.46270  -0.45684
 Alpha  occ. eigenvalues --   -0.45015  -0.44188  -0.43282  -0.41830  -0.37435
 Alpha  occ. eigenvalues --   -0.34979
 Alpha virt. eigenvalues --    0.02973   0.03192   0.03696   0.03911   0.04439
 Alpha virt. eigenvalues --    0.04678   0.04919   0.05516   0.06135   0.06966
 Alpha virt. eigenvalues --    0.07301   0.07662   0.08191   0.08665   0.09541

 Mulliken charges:
               1
     1  C   -0.033808
     2  C    2.396239
     3  C    1.561412
     4  O   -1.836967
     5  C    0.535994
     6  C    0.589382
     7  C    1.083653
     8  C   -1.499304
     9  C    3.348102
    10  O   -1.625571
    11  O   -1.553941
    12  O   -1.497493
    13  O   -1.936768
    14  C    0.077136
    15  C    0.127327
    16  S    0.413076
    17  C   -0.662459
    18  C    0.516786
    19  O   -1.441607
    20  H    0.001158
    21  H    0.168060
    22  H    0.193057
    23  H   -0.014799
    24  H    0.159625
    25  H    0.200315
    26  H    0.192963
    27  H    0.151044
    28  H    0.078575
    29  H    0.099608
    30  H    0.691391
    31  H   -0.194224
    32  H   -0.222774
    33  H   -0.124483
    34  H   -0.012557
    35  H    0.071851
 Sum of Mulliken charges =  -0.00000

 Dipole moment (field-independent basis, Debye):
    X=             -1.4978    Y=              1.0032    Z=              0.6996  Tot=              1.9337

 Test job not archived.
 1\1\GINC-SE424\SP\RHF\Aug-CC-pVDZ\C12H16O6S1\OHZDE\09-Apr-2025\0\\#t h
 f aug-cc-pvdz iop(5/13=1,5/36=2,99/5=2) pseudo=read geom=check guess=(
 read,tcheck) scf=(maxcycle=1)\\title\\0,1\C,0,0.178413,-0.823932,-0.25
 1321\C,0,0.500657,-0.272352,1.130337\C,0,-0.56411,-2.225417,-0.101967\
 O,0,-1.366366,-2.245085,-1.271389\C,0,-1.602871,-2.057438,0.990328\C,0
 ,-2.55997,-1.317695,0.447685\C,0,-2.113499,-1.06343,-0.978505\C,0,-0.9
 4253,-0.033538,-0.995351\C,0,-1.204798,1.374631,-0.52634\O,0,-2.427548
 ,1.543859,-0.036993\O,0,-0.417906,2.282477,-0.669853\O,0,-0.130481,0.6

 Normal termination of Gaussian 16 at Wed Apr  9 02:28:50 2025.
