 Gaussian 16, Revision C.01,

 ----------------------------------------------------------------------
 #t hf aug-cc-pvdz symm=none int=(grid=ultrafine) guess=(read,tcheck) s
 table=(opt,rrhf)
 ----------------------------------------------------------------------
 -----
 title
 -----
 Symbolic Z-matrix:
 Charge =  0 Multiplicity = 1

 SCF Done:  E(RHF) =  -1375.46180421     A.U. after   17 cycles
 Normal termination of Gaussian 16 at Wed Apr  9 03:16:42 2025.
 Gaussian 16:  ES64L-G16RevC.01  3-Jul-2019

 ----------------------------------------------------------------------
 #t hf aug-cc-pvdz iop(5/13=1,5/36=2,99/5=2) pseudo=read geom=check gue
 ss=(read,tcheck) scf=(maxcycle=1)
 ----------------------------------------------------------------------
 -----
 title
 -----
 Structure from the checkpoint file:  "BH10_395_reverse_mol2.chk"
 Charge =  0 Multiplicity = 1

                         Standard orientation:
 ---------------------------------------------------------------------
 Center     Atomic      Atomic             Coordinates (Angstroms)
 Number     Number       Type             X           Y           Z
 ---------------------------------------------------------------------
      1          6           0       -0.102494   -2.590145    1.067154
      2          7           0        1.119239   -2.169892    0.414155
      3          6           0       -1.320783   -1.870288    0.575100
      4          6           0        0.097070   -0.278243   -0.665035
      5          1           0        0.345638   -0.644576   -1.665733
      6          1           0        0.075197    0.805568   -0.725510
      7          6           0       -2.499782   -0.145241   -0.648672
      8          6           0       -2.654481   -2.365031    1.067303
      9          6           0       -3.678031   -0.761293   -0.514771
     10          6           0       -3.757652   -2.164718    0.026852
     11          6           0       -1.242037   -0.803207   -0.226688
     12          6           0       -3.673768   -3.185044   -1.115259
     13          1           0       -2.713804   -3.108463   -1.629908
     14          1           0       -3.779714   -4.203402   -0.732330
     15          1           0       -4.463978   -3.015103   -1.849204
     16          1           0       -0.042804   -2.453544    2.167807
     17          6           0        1.186235   -0.717345    0.308694
     18          1           0       -0.229479   -3.665735    0.902603
     19         16           0       -2.464727    1.449318   -1.443430
     20          6           0        2.296096   -2.765497    1.013060
     21          6           0        2.554696   -0.219502   -0.106675
     22          1           0        0.957803   -0.261626    1.292180
     23          6           0        3.645771   -1.079377   -0.219689
     24          6           0        3.489740   -2.541994    0.103602
     25          1           0        4.401676   -2.915736    0.576310
     26          1           0        3.341667   -3.113842   -0.817540
     27          1           0        2.112292   -3.834692    1.142427
     28          1           0        2.497452   -2.345264    2.015932
     29          6           0        2.734370    1.142810   -0.349326
     30          6           0        4.882856   -0.565935   -0.605559
     31          6           0        5.048337    0.782414   -0.868930
     32          6           0        3.966582    1.643770   -0.731019
     33          1           0        4.084859    2.704599   -0.916434
     34          1           0        1.899581    1.823956   -0.229618
     35          1           0        5.728640   -1.240379   -0.689766
     36          1           0        6.017599    1.163896   -1.166856
     37          6           0       -1.656356    2.451251   -0.211115
     38          6           0       -0.899062    3.537417   -0.643697
     39          6           0       -1.756035    2.179773    1.149796
     40          6           0       -1.085598    2.978246    2.065240
     41          6           0       -0.331503    4.061985    1.636435
     42          6           0       -0.248688    4.343060    0.279037
     43          1           0       -2.349189    1.340691    1.489751
     44          1           0       -1.158824    2.752804    3.122539
     45          1           0       -0.807060    3.738704   -1.704488
     46          1           0        0.189543    4.682609    2.354782
     47          1           0        0.338284    5.185363   -0.067230
     48          1           0       -2.915542   -1.821566    1.985550
     49          1           0       -2.590482   -3.421894    1.342418
     50          1           0       -4.723736   -2.289514    0.523494
     51          1           0       -4.587563   -0.269903   -0.840407
 ---------------------------------------------------------------------

 SCF Done:  E(RHF) =  -1376.53051127     A.U. after    2 cycles

 The electronic state is 1-A.
 Alpha  occ. eigenvalues --  -93.95233 -15.48619 -11.27443 -11.26675 -11.26173
 Alpha  occ. eigenvalues --  -11.26040 -11.25478 -11.24791 -11.24767 -11.24599
 Alpha  occ. eigenvalues --  -11.24437 -11.24436 -11.24334 -11.24263 -11.23754
 Alpha  occ. eigenvalues --  -11.23630 -11.23590 -11.23461 -11.23424 -11.23230
 Alpha  occ. eigenvalues --  -11.23105 -11.23037 -11.22988 -11.22960 -11.22609
 Alpha  occ. eigenvalues --  -11.22149  -8.23310  -6.21139  -6.20976  -6.20768
 Alpha  occ. eigenvalues --   -1.25216  -1.17770  -1.15898  -1.15203  -1.08795
 Alpha  occ. eigenvalues --   -1.08106  -1.05374  -1.04462  -1.02798  -1.02293
 Alpha  occ. eigenvalues --   -0.99439  -0.98026  -0.94851  -0.93702  -0.89415
 Alpha  occ. eigenvalues --   -0.87173  -0.85282  -0.84511  -0.83158  -0.81801
 Alpha  occ. eigenvalues --   -0.80173  -0.77667  -0.75247  -0.71752  -0.70736
 Alpha  occ. eigenvalues --   -0.68738  -0.67962  -0.66639  -0.66023  -0.65229
 Alpha  occ. eigenvalues --   -0.64215  -0.63179  -0.63088  -0.62320  -0.61378
 Alpha  occ. eigenvalues --   -0.60574  -0.60426  -0.59809  -0.58766  -0.58412
 Alpha  occ. eigenvalues --   -0.57274  -0.56503  -0.55649  -0.54504  -0.53666
 Alpha  occ. eigenvalues --   -0.53183  -0.53064  -0.52354  -0.51842  -0.51238
 Alpha  occ. eigenvalues --   -0.51183  -0.50250  -0.49008  -0.48510  -0.48108
 Alpha  occ. eigenvalues --   -0.47102  -0.45927  -0.44463  -0.42958  -0.39497
 Alpha  occ. eigenvalues --   -0.38663  -0.35365  -0.33300  -0.32647  -0.32348
 Alpha  occ. eigenvalues --   -0.30058
 Alpha virt. eigenvalues --    0.02430   0.02707   0.02972   0.03260   0.03590
 Alpha virt. eigenvalues --    0.03944   0.04152   0.04424   0.04611   0.05533
 Alpha virt. eigenvalues --    0.05795   0.06184   0.06399   0.06856   0.07174

 Mulliken charges:
               1
     1  C   -2.205521
     2  N    2.125418
     3  C    0.729745
     4  C   -1.154777
     5  H    0.249826
     6  H    0.257002
     7  C   -0.284595
     8  C   -0.194255
     9  C    0.204893
    10  C   -0.951775
    11  C    1.726873
    12  C   -0.242477
    13  H    0.278676
    14  H    0.158739
    15  H    0.126247
    16  H    0.291233
    17  C   -3.052020
    18  H    0.029163
    19  S    0.596186
    20  C   -0.364605
    21  C    1.850290
    22  H    0.070568
    23  C    0.782192
    24  C   -0.324051
    25  H    0.138562
    26  H    0.238474
    27  H   -0.010508
    28  H    0.073421
    29  C    0.496787
    30  C    0.369671
    31  C   -0.138154
    32  C   -0.489250
    33  H   -0.323567
    34  H   -0.239109
    35  H   -0.337764
    36  H   -0.248868
    37  C   -0.182709
    38  C    0.398085
    39  C    0.374108
    40  C   -0.023434
    41  C    0.310117
    42  C    0.179584
    43  H   -0.205081
    44  H   -0.346301
    45  H   -0.304742
    46  H   -0.278988
    47  H   -0.277863
    48  H    0.159494
    49  H    0.136240
    50  H    0.102807
    51  H   -0.273989
 Sum of Mulliken charges =  -0.00000

 Dipole moment (field-independent basis, Debye):
    X=             -0.0163    Y=             -1.1882    Z=              2.3007  Tot=              2.5895

 Test job not archived.
 1\1\GINC-SE072\SP\RHF\Aug-CC-pVDZ\C24H25N1S1\OHZDE\09-Apr-2025\0\\#t h
 f aug-cc-pvdz iop(5/13=1,5/36=2,99/5=2) pseudo=read geom=check guess=(
 read,tcheck) scf=(maxcycle=1)\\title\\0,1\C,0,-0.102494,-2.590145,1.06
 7154\N,0,1.119239,-2.169892,0.414155\C,0,-1.320783,-1.870288,0.5751\C,
 0,0.09707,-0.278243,-0.665035\H,0,0.345638,-0.644576,-1.665733\H,0,0.0
 75197,0.805568,-0.72551\C,0,-2.499782,-0.145241,-0.648672\C,0,-2.65448
 1,-2.365031,1.067303\C,0,-3.678031,-0.761293,-0.514771\C,0,-3.757652,-
 2.164718,0.026852\C,0,-1.242037,-0.803207,-0.226688\C,0,-3.673768,-3.1

 Normal termination of Gaussian 16 at Wed Apr  9 03:20:16 2025.
