 Gaussian 16, Revision C.01,

 ----------------------------------------------------------------------
 #t hf aug-cc-pvdz symm=none int=(grid=ultrafine) guess=(read,tcheck) s
 table=(opt,rrhf)
 ----------------------------------------------------------------------
 -----
 title
 -----
 Symbolic Z-matrix:
 Charge =  0 Multiplicity = 1

 SCF Done:  E(RHF) =  -1125.22989660     A.U. after   14 cycles
 Normal termination of Gaussian 16 at Wed Apr  9 01:59:33 2025.
 Gaussian 16:  ES64L-G16RevC.01  3-Jul-2019

 ----------------------------------------------------------------------
 #t hf aug-cc-pvdz iop(5/13=1,5/36=2,99/5=2) pseudo=read geom=check gue
 ss=(read,tcheck) scf=(maxcycle=1)
 ----------------------------------------------------------------------
 -----
 title
 -----
 Structure from the checkpoint file:  "BH10_300_forward_mol1.chk"
 Charge =  0 Multiplicity = 1

                         Standard orientation:
 ---------------------------------------------------------------------
 Center     Atomic      Atomic             Coordinates (Angstroms)
 Number     Number       Type             X           Y           Z
 ---------------------------------------------------------------------
      1          6           0        0.672391    2.879273   -0.664082
      2          6           0        0.995994    1.686039    0.260341
      3          6           0       -2.022595    1.177180   -0.170494
      4          1           0        0.881588    2.597284   -1.703591
      5          6           0        0.530323    1.902184    1.719124
      6          1           0        1.325573    1.566860    2.389722
      7          1           0        0.403684    2.970691    1.923013
      8          1           0       -3.037444    0.852513   -0.418168
      9          1           0        2.092824    1.638815    0.285983
     10          6           0       -0.731326    1.138121    2.129393
     11          1           0       -0.510130    0.069092    2.078764
     12          1           0       -0.926555    1.341900    3.187325
     13          6           0       -2.026495    1.406436    1.358984
     14          1           0       -2.791053    0.761569    1.803158
     15          1           0       -2.365280    2.429145    1.556172
     16          6           0       -1.868862    2.489482   -0.965448
     17          1           0       -1.774176    2.237216   -2.028008
     18          6           0       -0.742944    3.437502   -0.570519
     19          1           0       -0.806915    4.323441   -1.210593
     20          1           0       -0.919661    3.801844    0.445406
     21          1           0       -2.809901    3.043229   -0.870953
     22          1           0        1.364698    3.695986   -0.427969
     23          6           0       -1.059600    0.059276   -0.659652
     24          1           0       -1.055061    0.141133   -1.760246
     25         14           0       -1.822057   -1.664026   -0.492634
     26          6           0       -0.839253   -2.913235   -1.508528
     27          1           0        0.166298   -3.105556   -1.130927
     28          1           0       -1.366436   -3.871055   -1.529381
     29          1           0       -0.739241   -2.569062   -2.541106
     30          6           0       -3.561438   -1.639967   -1.215606
     31          1           0       -3.953874   -2.658101   -1.286300
     32          1           0       -4.258945   -1.063974   -0.603746
     33          1           0       -3.570218   -1.211807   -2.221530
     34          6           0       -1.971649   -2.278997    1.281878
     35          1           0       -2.602922   -1.614024    1.875276
     36          1           0       -2.435553   -3.269299    1.292568
     37          1           0       -1.012853   -2.360277    1.795048
     38          5           0        0.476057    0.298580   -0.326479
     39          6           0        1.525759   -1.114639    0.582927
     40          1           0        0.716508   -1.818508    0.455687
     41          6           0        2.247108   -1.165809    1.854816
     42          1           0        3.157537   -0.575191    1.909140
     43          6           0        1.854286   -1.836480    2.934097
     44          1           0        0.958238   -2.446863    2.934526
     45          1           0        2.416939   -1.792660    3.857644
     46          6           0        2.179143   -0.778145   -0.612949
     47          8           0        1.403117   -0.219947   -1.475716
     48          8           0        3.478616   -0.771750   -0.776623
     49          6           0        4.002878   -0.062845   -1.914384
     50          1           0        3.732008   -0.579983   -2.833333
     51          1           0        3.612142    0.953213   -1.934647
     52          1           0        5.080514   -0.062791   -1.780349
 ---------------------------------------------------------------------

 SCF Done:  E(RHF) =  -1126.14262384     A.U. after    2 cycles

 The electronic state is 1-A.
 Alpha  occ. eigenvalues --  -69.49633 -20.62305 -20.57803 -11.41617 -11.31828
 Alpha  occ. eigenvalues --  -11.24429 -11.22494 -11.22427 -11.21960 -11.21193
 Alpha  occ. eigenvalues --  -11.21136 -11.20999 -11.20976 -11.20878 -11.20853
 Alpha  occ. eigenvalues --  -11.19966 -11.19959 -11.19729 -11.19027 -11.17720
 Alpha  occ. eigenvalues --   -7.60723  -6.16693  -3.92032  -3.92030  -3.92001
 Alpha  occ. eigenvalues --   -1.58697  -1.50077  -1.11153  -1.09687  -1.04068
 Alpha  occ. eigenvalues --   -1.03333  -1.02158  -0.98115  -0.96416  -0.94685
 Alpha  occ. eigenvalues --   -0.92073  -0.91754  -0.90629  -0.87305  -0.83091
 Alpha  occ. eigenvalues --   -0.80025  -0.78940  -0.77815  -0.73224  -0.72935
 Alpha  occ. eigenvalues --   -0.71090  -0.69749  -0.66647  -0.64885  -0.63384
 Alpha  occ. eigenvalues --   -0.62933  -0.62518  -0.62273  -0.59806  -0.59052
 Alpha  occ. eigenvalues --   -0.58065  -0.57562  -0.57173  -0.56746  -0.56463
 Alpha  occ. eigenvalues --   -0.55965  -0.55400  -0.54614  -0.54058  -0.53731
 Alpha  occ. eigenvalues --   -0.53253  -0.52861  -0.51355  -0.51189  -0.49886
 Alpha  occ. eigenvalues --   -0.48918  -0.48124  -0.47826  -0.46630  -0.46280
 Alpha  occ. eigenvalues --   -0.45801  -0.43737  -0.43076  -0.42581  -0.41847
 Alpha  occ. eigenvalues --   -0.41356  -0.40132  -0.37989  -0.31451
 Alpha virt. eigenvalues --    0.02123   0.02549   0.02785   0.03434   0.04122
 Alpha virt. eigenvalues --    0.04195   0.04370   0.04552   0.04727   0.06272
 Alpha virt. eigenvalues --    0.06476   0.06769   0.06899   0.07123   0.07479

 Mulliken charges:
               1
     1  C   -0.629413
     2  C    0.180477
     3  C    0.324294
     4  H    0.153902
     5  C   -0.635136
     6  H    0.063527
     7  H    0.077752
     8  H    0.126531
     9  H   -0.236042
    10  C   -0.015352
    11  H    0.268105
    12  H   -0.059005
    13  C   -0.628498
    14  H    0.022782
    15  H    0.108158
    16  C   -0.431830
    17  H    0.134132
    18  C   -0.164726
    19  H    0.019103
    20  H    0.318744
    21  H    0.053127
    22  H    0.016228
    23  C   -1.024790
    24  H    0.115831
    25  Si   2.164216
    26  C   -0.338918
    27  H    0.024925
    28  H   -0.154118
    29  H    0.044488
    30  C   -0.515033
    31  H   -0.212353
    32  H    0.000393
    33  H   -0.027503
    34  C   -0.135127
    35  H    0.007557
    36  H   -0.155052
    37  H   -0.268762
    38  B    3.350491
    39  C   -0.460022
    40  H   -0.389573
    41  C    1.111550
    42  H   -0.372474
    43  C   -0.191401
    44  H   -0.150102
    45  H   -0.227796
    46  C    2.486487
    47  O   -2.122581
    48  O   -1.882909
    49  C   -0.033315
    50  H    0.170420
    51  H    0.129510
    52  H   -0.010899
 Sum of Mulliken charges =  -0.00000

 Dipole moment (field-independent basis, Debye):
    X=              2.2787    Y=              0.1943    Z=             -1.4819  Tot=              2.7251

 Test job not archived.
 1\1\GINC-SE345\SP\RHF\Aug-CC-pVDZ\C17H31B1O2Si1\OHZDE\09-Apr-2025\0\\#
 t hf aug-cc-pvdz iop(5/13=1,5/36=2,99/5=2) pseudo=read geom=check gues
 s=(read,tcheck) scf=(maxcycle=1)\\title\\0,1\C,0,0.672391,2.879273,-0.
 664082\C,0,0.995994,1.686039,0.260341\C,0,-2.022595,1.17718,-0.170494\
 H,0,0.881588,2.597284,-1.703591\C,0,0.530323,1.902184,1.719124\H,0,1.3
 25573,1.56686,2.389722\H,0,0.403684,2.970691,1.923013\H,0,-3.037444,0.
 852513,-0.418168\H,0,2.092824,1.638815,0.285983\C,0,-0.731326,1.138121
 ,2.129393\H,0,-0.51013,0.069092,2.078764\H,0,-0.926555,1.3419,3.187325

 Normal termination of Gaussian 16 at Wed Apr  9 02:02:36 2025.
