 Gaussian 16, Revision C.01,

 ----------------------------------------------------------------------
 #t hf aug-cc-pvdz symm=none int=(grid=ultrafine) guess=(read,tcheck) s
 table=(opt,rrhf)
 ----------------------------------------------------------------------
 -----
 title
 -----
 Symbolic Z-matrix:
 Charge =  0 Multiplicity = 1

 SCF Done:  E(RHF) =  -1155.50155955     A.U. after   17 cycles
 Normal termination of Gaussian 16 at Wed Apr  9 02:52:35 2025.
 Gaussian 16:  ES64L-G16RevC.01  3-Jul-2019

 ----------------------------------------------------------------------
 #t hf aug-cc-pvdz iop(5/13=1,5/36=2,99/5=2) pseudo=read geom=check gue
 ss=(read,tcheck) scf=(maxcycle=1)
 ----------------------------------------------------------------------
 -----
 title
 -----
 Structure from the checkpoint file:  "BH10_401_forward_mol1.chk"
 Charge =  0 Multiplicity = 1

                         Standard orientation:
 ---------------------------------------------------------------------
 Center     Atomic      Atomic             Coordinates (Angstroms)
 Number     Number       Type             X           Y           Z
 ---------------------------------------------------------------------
      1          6           0        0.042101   -2.587548    0.080725
      2          1           0       -0.342214   -3.365581   -0.604927
      3          6           0        1.209212   -1.865766   -0.567011
      4          6           0       -0.252545    0.130975   -0.872163
      5          1           0       -0.433107    0.962437   -0.194101
      6          1           0       -0.298884    0.538236   -1.886670
      7          6           0       -1.389281   -0.874823   -0.672618
      8          1           0       -1.466923   -1.516964   -1.571687
      9          7           0       -1.029808   -1.698491    0.474422
     10          6           0        2.168392    0.374131   -0.212731
     11          6           0        2.344053   -2.627079   -0.819169
     12          1           0        2.803882   -2.593054   -1.788499
     13          1           0        2.390339   -3.615829   -0.360766
     14          6           0        3.430399   -0.138298    0.115077
     15          6           0        4.043953   -1.206936   -0.513844
     16          6           0        1.122059   -0.461696   -0.657160
     17          1           0        3.991809   -1.196159   -1.590511
     18          1           0        3.924453    0.265913    0.996970
     19          6           0        5.274645   -1.860390    0.050219
     20          1           0        5.355032   -2.899025   -0.275958
     21          1           0        6.180007   -1.345683   -0.288317
     22          1           0        5.264757   -1.850936    1.141284
     23          6           0       -2.150903   -2.416299    1.047555
     24          1           0       -2.652134   -3.052360    0.294600
     25          1           0       -1.770881   -3.078249    1.828873
     26          6           0       -2.716980   -0.166065   -0.504762
     27          6           0       -3.540590   -0.406332    0.593714
     28          6           0       -3.138104   -1.422685    1.629167
     29          1           0       -2.670966   -0.920356    2.481815
     30          1           0       -4.024323   -1.942146    2.002371
     31          1           0        0.421964   -3.106687    0.967859
     32          6           0       -4.744233    0.287209    0.708812
     33          1           0       -5.382166    0.093197    1.564738
     34          6           0       -3.129291    0.746401   -1.475976
     35          1           0       -2.503531    0.922632   -2.343352
     36          6           0       -5.138059    1.204520   -0.249319
     37          1           0       -6.077576    1.733337   -0.143208
     38          6           0       -4.326001    1.430623   -1.354078
     39          1           0       -4.626987    2.136036   -2.119177
     40         14           0        1.855281    2.160866    0.358359
     41          6           0        0.744917    2.231245    1.877027
     42          1           0        1.187514    1.649126    2.689333
     43          1           0        0.646193    3.263884    2.223817
     44          1           0       -0.258577    1.839919    1.705567
     45          6           0        3.501642    2.931500    0.842634
     46          1           0        4.229459    2.874396    0.030261
     47          1           0        3.352601    3.987388    1.084873
     48          1           0        3.943426    2.456626    1.721360
     49          6           0        1.147778    3.209809   -1.034737
     50          1           0        0.114282    2.960100   -1.276460
     51          1           0        1.175539    4.265742   -0.751651
     52          1           0        1.742745    3.096400   -1.944585
 ---------------------------------------------------------------------

 SCF Done:  E(RHF) =  -1156.44554778     A.U. after    2 cycles

 The electronic state is 1-A.
 Alpha  occ. eigenvalues --  -69.50228 -15.48606 -11.26338 -11.25698 -11.25453
 Alpha  occ. eigenvalues --  -11.25057 -11.23922 -11.23869 -11.23857 -11.23580
 Alpha  occ. eigenvalues --  -11.23507 -11.23488 -11.23464 -11.23385 -11.23367
 Alpha  occ. eigenvalues --  -11.23119 -11.23047 -11.22614 -11.22040 -11.21516
 Alpha  occ. eigenvalues --  -11.19959 -11.19838 -11.19743  -6.17233  -3.92582
 Alpha  occ. eigenvalues --   -3.92569  -3.92559  -1.25332  -1.15743  -1.12595
 Alpha  occ. eigenvalues --   -1.07490  -1.06089  -1.05046  -1.01664  -0.99731
 Alpha  occ. eigenvalues --   -0.97448  -0.96335  -0.93046  -0.91911  -0.91702
 Alpha  occ. eigenvalues --   -0.89285  -0.86794  -0.84599  -0.82664  -0.81860
 Alpha  occ. eigenvalues --   -0.77382  -0.75468  -0.71042  -0.69057  -0.68276
 Alpha  occ. eigenvalues --   -0.66775  -0.65704  -0.65215  -0.64225  -0.61972
 Alpha  occ. eigenvalues --   -0.61485  -0.60497  -0.59989  -0.59419  -0.57900
 Alpha  occ. eigenvalues --   -0.57608  -0.56871  -0.56775  -0.56085  -0.55833
 Alpha  occ. eigenvalues --   -0.55308  -0.54315  -0.54243  -0.53588  -0.53345
 Alpha  occ. eigenvalues --   -0.53038  -0.52864  -0.52428  -0.51851  -0.50881
 Alpha  occ. eigenvalues --   -0.49493  -0.48391  -0.47262  -0.46792  -0.44600
 Alpha  occ. eigenvalues --   -0.43072  -0.42949  -0.42068  -0.39187  -0.33741
 Alpha  occ. eigenvalues --   -0.33063  -0.30572  -0.28732
 Alpha virt. eigenvalues --    0.02708   0.02834   0.03017   0.03341   0.03583
 Alpha virt. eigenvalues --    0.03730   0.04046   0.04322   0.04408   0.05473
 Alpha virt. eigenvalues --    0.05792   0.06352   0.06467   0.06856   0.07295

 Mulliken charges:
               1
     1  C   -1.801487
     2  H    0.337537
     3  C    1.429630
     4  C   -1.362438
     5  H   -0.187624
     6  H    0.256752
     7  C   -2.587839
     8  H    0.143915
     9  N    2.119069
    10  C   -1.175853
    11  C   -0.521265
    12  H    0.070627
    13  H   -0.201097
    14  C    1.029079
    15  C   -0.435233
    16  C    0.925982
    17  H    0.034716
    18  H   -0.349635
    19  C   -0.549605
    20  H    0.158282
    21  H    0.252327
    22  H    0.149603
    23  C   -0.100897
    24  H    0.075776
    25  H   -0.008314
    26  C    1.544709
    27  C    0.761114
    28  C   -0.530118
    29  H    0.214623
    30  H    0.134937
    31  H   -0.042563
    32  C    0.495528
    33  H   -0.352169
    34  C    0.192913
    35  H   -0.361112
    36  C   -0.041575
    37  H   -0.257417
    38  C   -0.331117
    39  H   -0.309047
    40  Si   2.697586
    41  C   -0.299651
    42  H   -0.082401
    43  H   -0.025618
    44  H   -0.041851
    45  C   -0.544416
    46  H   -0.006760
    47  H   -0.189969
    48  H    0.005685
    49  C   -0.262546
    50  H   -0.076519
    51  H    0.004257
    52  H    0.001489
 Sum of Mulliken charges =  -0.00000

 Dipole moment (field-independent basis, Debye):
    X=              0.2026    Y=             -1.2130    Z=             -0.1611  Tot=              1.2403

 Test job not archived.
 1\1\GINC-SE457\SP\RHF\Aug-CC-pVDZ\C21H29N1Si1\OHZDE\09-Apr-2025\0\\#t
 hf aug-cc-pvdz iop(5/13=1,5/36=2,99/5=2) pseudo=read geom=check guess=
 (read,tcheck) scf=(maxcycle=1)\\title\\0,1\C,0,0.042101,-2.587548,0.08
 0725\H,0,-0.342214,-3.365581,-0.604927\C,0,1.209212,-1.865766,-0.56701
 1\C,0,-0.252545,0.130975,-0.872163\H,0,-0.433107,0.962437,-0.194101\H,
 0,-0.298884,0.538236,-1.88667\C,0,-1.389281,-0.874823,-0.672618\H,0,-1
 .466923,-1.516964,-1.571687\N,0,-1.029808,-1.698491,0.474422\C,0,2.168
 392,0.374131,-0.212731\C,0,2.344053,-2.627079,-0.819169\H,0,2.803882,-

 Normal termination of Gaussian 16 at Wed Apr  9 02:55:34 2025.
