 Gaussian 16, Revision C.01,

 ----------------------------------------------------------------------
 #t hf aug-cc-pvdz symm=none int=(grid=ultrafine) guess=(read,tcheck) s
 table=(opt,rrhf)
 ----------------------------------------------------------------------
 -----
 title
 -----
 Symbolic Z-matrix:
 Charge = -1 Multiplicity = 1

 SCF Done:  E(RHF) =  -1360.55472592     A.U. after   15 cycles
 Normal termination of Gaussian 16 at Wed Apr  9 01:32:23 2025.
 Gaussian 16:  ES64L-G16RevC.01  3-Jul-2019

 ----------------------------------------------------------------------
 #t hf aug-cc-pvdz iop(5/13=1,5/36=2,99/5=2) pseudo=read geom=check gue
 ss=(read,tcheck) scf=(maxcycle=1)
 ----------------------------------------------------------------------
 -----
 title
 -----
 Structure from the checkpoint file:  "BH10_313_reverse_mol2.chk"
 Charge = -1 Multiplicity = 1

                         Standard orientation:
 ---------------------------------------------------------------------
 Center     Atomic      Atomic             Coordinates (Angstroms)
 Number     Number       Type             X           Y           Z
 ---------------------------------------------------------------------
      1          6           0       -1.338214    0.951634    0.207348
      2          6           0       -2.627850    0.166180    0.096681
      3          6           0       -2.371471   -1.258855    0.551374
      4          1           0       -2.953904    0.167287   -0.944820
      5          1           0       -3.404044    0.641878    0.696003
      6          6           0       -1.145265   -1.873864   -0.136652
      7          6           0       -0.124080   -1.025923   -0.523983
      8          8           0       -0.329921    0.407702   -0.590916
      9          6           0       -1.481029    2.391377   -0.303241
     10          6           0        1.014977   -1.428364   -1.352937
     11          1           0        0.966826   -0.778702    1.167608
     12          8           0        2.358363   -1.297360   -0.733946
     13          1           0        1.072677   -0.848784   -2.279101
     14          1           0        0.927931   -2.488754   -1.571244
     15         15           0        2.760906   -0.082396    0.211192
     16          8           0        4.170692   -0.064605    0.605792
     17          8           0        1.715967   -0.195515    1.439659
     18          8           0        2.327753    1.260636   -0.553441
     19          1           0        1.362371    1.324929   -0.671367
     20          8           0       -1.165119   -3.125155   -0.258923
     21          8           0       -3.485560   -2.081010    0.282249
     22          1           0       -2.166597   -1.256021    1.629022
     23          1           0       -3.065088   -2.931739    0.051813
     24          8           0       -2.501105    2.930034   -0.630409
     25          8           0       -0.289007    3.015190   -0.311030
     26          1           0       -0.429783    3.919349   -0.621233
     27          8           0       -0.962793    1.005892    1.566416
     28          1           0       -0.000558    1.106930    1.620285
 ---------------------------------------------------------------------

 SCF Done:  E(RHF) =  -1361.60614766     A.U. after    2 cycles

 The electronic state is 1-A.
 Alpha  occ. eigenvalues --  -84.32906 -20.52569 -20.47142 -20.46823 -20.46552
 Alpha  occ. eigenvalues --  -20.46096 -20.45946 -20.45059 -20.42315 -20.37772
 Alpha  occ. eigenvalues --  -20.35832 -11.31334 -11.27608 -11.19211 -11.18414
 Alpha  occ. eigenvalues --  -11.17304 -11.13627 -11.13262  -6.77666  -4.31882
 Alpha  occ. eigenvalues --   -4.31250  -4.31084  -1.48072  -1.42903  -1.41611
 Alpha  occ. eigenvalues --   -1.38187  -1.35008  -1.34243  -1.33828  -1.33536
 Alpha  occ. eigenvalues --   -1.27844  -1.26133  -0.97536  -0.94830  -0.86879
 Alpha  occ. eigenvalues --   -0.80802  -0.75876  -0.72588  -0.69859  -0.66624
 Alpha  occ. eigenvalues --   -0.65008  -0.63697  -0.62072  -0.61188  -0.58882
 Alpha  occ. eigenvalues --   -0.56772  -0.56210  -0.54870  -0.54172  -0.53812
 Alpha  occ. eigenvalues --   -0.52794  -0.51760  -0.49347  -0.48404  -0.48189
 Alpha  occ. eigenvalues --   -0.45622  -0.44801  -0.44150  -0.43703  -0.43150
 Alpha  occ. eigenvalues --   -0.41048  -0.40752  -0.40236  -0.40059  -0.39330
 Alpha  occ. eigenvalues --   -0.38081  -0.36516  -0.35654  -0.34857  -0.33978
 Alpha  occ. eigenvalues --   -0.33661  -0.32352  -0.26522  -0.17656
 Alpha virt. eigenvalues --    0.10534   0.12350   0.12744   0.13472   0.13886
 Alpha virt. eigenvalues --    0.14538   0.14916   0.15658   0.15910   0.17528
 Alpha virt. eigenvalues --    0.18438   0.19172   0.19877   0.20253   0.20811

 Mulliken charges:
               1
     1  C    1.097097
     2  C   -0.243788
     3  C    1.123973
     4  H    0.204414
     5  H    0.203998
     6  C    1.293190
     7  C    0.814709
     8  O   -2.164512
     9  C    3.005275
    10  C    0.300358
    11  H    0.958819
    12  O   -1.628757
    13  H    0.103215
    14  H    0.023279
    15  P    4.106013
    16  O   -1.543609
    17  O   -1.571058
    18  O   -1.441472
    19  H    0.735168
    20  O   -1.880499
    21  O   -1.508509
    22  H    0.303030
    23  H    0.277582
    24  O   -1.360282
    25  O   -1.535646
    26  H    0.501552
    27  O   -1.562354
    28  H    0.388812
 Sum of Mulliken charges =  -1.00000

 Dipole moment (field-independent basis, Debye):
    X=             -2.9205    Y=              5.5135    Z=             -1.6342  Tot=              6.4497

 Test job not archived.
 1\1\GINC-SE131\SP\RHF\Aug-CC-pVDZ\C7H10O10P1(1-)\OHZDE\09-Apr-2025\0\\
 #t hf aug-cc-pvdz iop(5/13=1,5/36=2,99/5=2) pseudo=read geom=check gue
 ss=(read,tcheck) scf=(maxcycle=1)\\title\\-1,1\C,0,-1.338214,0.951634,
 0.207348\C,0,-2.62785,0.16618,0.096681\C,0,-2.371471,-1.258855,0.55137
 4\H,0,-2.953904,0.167288,-0.94482\H,0,-3.404044,0.641879,0.696003\C,0,
 -1.145265,-1.873864,-0.136652\C,0,-0.12408,-1.025923,-0.523983\O,0,-0.
 329921,0.407702,-0.590916\C,0,-1.481029,2.391377,-0.303241\C,0,1.01497
 7,-1.428364,-1.352937\H,0,0.966826,-0.778702,1.167608\O,0,2.358363,-1.

 Normal termination of Gaussian 16 at Wed Apr  9 01:33:07 2025.
