 Gaussian 16, Revision C.01,

 ----------------------------------------------------------------------
 #t hf aug-cc-pvdz symm=none int=(grid=ultrafine) guess=(read,tcheck) s
 table=opt
 ----------------------------------------------------------------------
 -----
 title
 -----
 Symbolic Z-matrix:
 Charge =  0 Multiplicity = 2

 SCF Done:  E(UHF) =  -782.931202668     A.U. after   20 cycles
 Normal termination of Gaussian 16 at Wed Apr  9 00:59:02 2025.
 Gaussian 16:  ES64L-G16RevC.01  3-Jul-2019

 ----------------------------------------------------------------------
 #t hf aug-cc-pvdz iop(5/13=1,5/36=2,99/5=2) pseudo=read geom=check gue
 ss=(read,tcheck) scf=(maxcycle=1)
 ----------------------------------------------------------------------
 -----
 title
 -----
 Structure from the checkpoint file:  "BH10-RE_128_mol1.chk"
 Charge =  0 Multiplicity = 2

                         Standard orientation:
 ---------------------------------------------------------------------
 Center     Atomic      Atomic             Coordinates (Angstroms)
 Number     Number       Type             X           Y           Z
 ---------------------------------------------------------------------
      1          6           0        3.200838    0.401652   -0.050926
      2          6           0        2.777169   -0.851885    0.633600
      3          6           0        2.192984    1.478916   -0.255847
      4          6           0        1.425170   -1.366906    0.120386
      5          6           0        0.393408   -0.241251    0.108821
      6          6           0        0.852220    0.926769   -0.759184
      7          6           0       -2.326383    0.277813    0.264722
      8          6           0       -3.773988    0.037907   -0.077811
      9          8           0       -1.953528    1.195607    0.947022
     10          1           0        2.681918   -0.665595    1.717302
     11          1           0        3.536882   -1.629991    0.529413
     12          1           0        2.567668    2.238422   -0.945870
     13          1           0        2.010156    2.001597    0.698563
     14          1           0        1.076610   -2.193007    0.744069
     15          1           0        1.548586   -1.756119   -0.895482
     16          1           0        0.215699    0.113021    1.127030
     17          1           0        0.097169    1.713845   -0.751095
     18          1           0        0.961269    0.579453   -1.791142
     19          1           0       -4.378570    0.201668    0.814162
     20          1           0       -3.948210   -0.962100   -0.473045
     21          1           0       -4.072391    0.771778   -0.829783
     22         16           0       -1.210812   -0.911155   -0.453980
     23          1           0        4.255919    0.622553   -0.159191
 ---------------------------------------------------------------------

 SCF Done:  E(UHF) =  -783.394872430     A.U. after    2 cycles

 The electronic state is 2-A.
 Alpha  occ. eigenvalues --  -93.95553 -20.54148 -11.36873 -11.26799 -11.25313
 Alpha  occ. eigenvalues --  -11.23838 -11.23493 -11.23361 -11.23046 -11.22937
 Alpha  occ. eigenvalues --   -8.23843  -6.21646  -6.21467  -6.21299  -1.48607
 Alpha  occ. eigenvalues --   -1.14795  -1.08098  -1.03049  -1.01751  -0.96202
 Alpha  occ. eigenvalues --   -0.85248  -0.82846  -0.75839  -0.74381  -0.67131
 Alpha  occ. eigenvalues --   -0.66218  -0.64015  -0.62402  -0.61759  -0.60980
 Alpha  occ. eigenvalues --   -0.58926  -0.56779  -0.55205  -0.54238  -0.53193
 Alpha  occ. eigenvalues --   -0.51794  -0.50043  -0.47880  -0.46507  -0.44050
 Alpha  occ. eigenvalues --   -0.40423  -0.37172  -0.33480
 Alpha virt. eigenvalues --    0.03278   0.03545   0.03723   0.04042   0.05069
 Alpha virt. eigenvalues --    0.05390   0.05858   0.06364   0.06582   0.07488
 Alpha virt. eigenvalues --    0.08186   0.08995   0.09671   0.11224   0.12513

  Beta  occ. eigenvalues --  -93.95551 -20.54148 -11.36872 -11.26820 -11.25312
  Beta  occ. eigenvalues --  -11.23743 -11.23682 -11.23256 -11.22948 -11.21032
  Beta  occ. eigenvalues --   -8.23839  -6.21641  -6.21463  -6.21297  -1.48607
  Beta  occ. eigenvalues --   -1.14094  -1.07116  -1.01897  -1.01624  -0.94650
  Beta  occ. eigenvalues --   -0.85118  -0.80974  -0.74362  -0.73392  -0.66747
  Beta  occ. eigenvalues --   -0.65772  -0.63868  -0.62273  -0.61254  -0.59870
  Beta  occ. eigenvalues --   -0.57444  -0.56137  -0.54992  -0.53651  -0.52606
  Beta  occ. eigenvalues --   -0.51679  -0.49363  -0.47373  -0.46057  -0.43770
  Beta  occ. eigenvalues --   -0.40397  -0.37146
  Beta virt. eigenvalues --    0.03303   0.03537   0.03718   0.04071   0.05008
  Beta virt. eigenvalues --    0.05363   0.05853   0.06256   0.06596   0.07497
  Beta virt. eigenvalues --    0.08168   0.08730   0.09677   0.10723   0.11717

 Mulliken charges and spin densities:
               1          2
     1  C    0.643225   1.544120
     2  C   -0.543908  -0.291942
     3  C   -0.566722  -0.284806
     4  C   -0.079922   0.019862
     5  C   -0.770342  -0.008321
     6  C   -0.264018   0.010025
     7  C    0.799679  -0.000520
     8  C   -0.509731   0.000282
     9  O   -1.328735  -0.000251
    10  H    0.208085   0.041955
    11  H    0.108105   0.001177
    12  H    0.104177   0.001561
    13  H    0.211028   0.041000
    14  H    0.091671   0.002755
    15  H    0.189842  -0.002178
    16  H    0.200326  -0.001923
    17  H    0.117389   0.002673
    18  H    0.165955  -0.003716
    19  H    0.208833   0.000006
    20  H    0.190932  -0.000049
    21  H    0.284085   0.000017
    22  S    0.724916   0.002672
    23  H   -0.184869  -0.074399
 Sum of Mulliken charges =  -0.00000   1.00000

 Dipole moment (field-independent basis, Debye):
    X=              0.1832    Y=             -0.7761    Z=             -0.5772  Tot=              0.9844
                          Isotropic Fermi Contact Couplings
        Atom                 a.u.       MegaHertz       Gauss      10(-4) cm-1
     1  C(13)              0.22604     254.11076      90.67304      84.76223
     2  C(13)             -0.05752     -64.66859     -23.07536     -21.57112
     3  C(13)             -0.05703     -64.11722     -22.87862     -21.38720
     4  C(13)              0.02140      24.05264       8.58258       8.02310
     5  C(13)             -0.00422      -4.74730      -1.69395      -1.58353
     6  C(13)              0.02096      23.56785       8.40959       7.86139
     7  C(13)              0.00008       0.08769       0.03129       0.02925
     8  C(13)              0.00012       0.13757       0.04909       0.04589

 Normal termination of Gaussian 16 at Wed Apr  9 00:59:20 2025.
