 Gaussian 16, Revision C.01,

 ----------------------------------------------------------------------
 #t hf aug-cc-pvdz symm=none int=(grid=ultrafine) guess=(read,tcheck) s
 table=(opt,rrhf)
 ----------------------------------------------------------------------
 -----
 title
 -----
 Symbolic Z-matrix:
 Charge =  0 Multiplicity = 1

 SCF Done:  E(RHF) =  -726.925290567     A.U. after   16 cycles
 Normal termination of Gaussian 16 at Wed Apr  9 01:21:02 2025.
 Gaussian 16:  ES64L-G16RevC.01  3-Jul-2019

 ----------------------------------------------------------------------
 #t hf aug-cc-pvdz iop(5/13=1,5/36=2,99/5=2) pseudo=read geom=check gue
 ss=(read,tcheck) scf=(maxcycle=1)
 ----------------------------------------------------------------------
 -----
 title
 -----
 Structure from the checkpoint file:  "BH10_312_forward_mol2.chk"
 Charge =  0 Multiplicity = 1

                         Standard orientation:
 ---------------------------------------------------------------------
 Center     Atomic      Atomic             Coordinates (Angstroms)
 Number     Number       Type             X           Y           Z
 ---------------------------------------------------------------------
      1          6           0       -2.213986   -1.203885   -0.333360
      2          6           0       -3.565481   -0.911798   -0.414154
      3          6           0       -4.044454    0.331828   -0.016588
      4          6           0       -3.147538    1.285128    0.446950
      5          6           0       -1.788604    1.010047    0.490426
      6          6           0       -1.290355   -0.241691    0.098845
      7          1           0       -1.849725   -2.187778   -0.604558
      8          1           0       -4.256302   -1.667887   -0.770291
      9          1           0       -5.104784    0.549991   -0.057608
     10          1           0       -3.508145    2.256024    0.768617
     11          1           0       -1.095838    1.762897    0.848955
     12          6           0        0.128714   -0.563614    0.163929
     13          6           0        0.973926    0.254547   -0.493646
     14          1           0        0.730874    1.109924   -1.137236
     15          1           0        3.196946   -0.855607   -1.454233
     16         15           0        2.673589   -0.145144   -0.352329
     17          6           0        3.004636   -1.191317    1.071456
     18          1           0        2.871834   -0.603408    1.979327
     19          1           0        2.250720   -1.977752    1.072716
     20          1           0        4.015558   -1.597320    1.025315
     21          6           0        3.742096    1.317192   -0.279317
     22          1           0        3.563329    1.941359   -1.155616
     23          1           0        3.493119    1.892520    0.612827
     24          1           0        4.794836    1.035588   -0.250524
 ---------------------------------------------------------------------

 SCF Done:  E(RHF) =  -727.379694118     A.U. after    2 cycles

 The electronic state is 1-A.
 Alpha  occ. eigenvalues --  -84.35372 -11.27741 -11.26266 -11.21561 -11.21478
 Alpha  occ. eigenvalues --  -11.21432 -11.20869 -11.20740 -11.20723 -11.20535
 Alpha  occ. eigenvalues --  -11.18438  -6.82274  -4.35286  -4.34937  -4.34875
 Alpha  occ. eigenvalues --   -1.12996  -1.09195  -1.02762  -0.98869  -0.98739
 Alpha  occ. eigenvalues --   -0.95885  -0.84564  -0.80478  -0.78658  -0.71508
 Alpha  occ. eigenvalues --   -0.67111  -0.64602  -0.63052  -0.62316  -0.61297
 Alpha  occ. eigenvalues --   -0.60142  -0.59712  -0.57561  -0.56875  -0.53365
 Alpha  occ. eigenvalues --   -0.51739  -0.51228  -0.48949  -0.47665  -0.46411
 Alpha  occ. eigenvalues --   -0.36641  -0.33349  -0.31962  -0.26056
 Alpha virt. eigenvalues --    0.02015   0.02981   0.03216   0.04375   0.04720
 Alpha virt. eigenvalues --    0.05035   0.05694   0.06160   0.06506   0.06716
 Alpha virt. eigenvalues --    0.07324   0.08505   0.09543   0.10453   0.10903

 Mulliken charges:
               1
     1  C    0.067996
     2  C    0.124917
     3  C    0.013585
     4  C   -0.117340
     5  C    0.104308
     6  C    1.646144
     7  H   -0.265822
     8  H   -0.227712
     9  H   -0.230811
    10  H   -0.237801
    11  H   -0.314201
    12  C   -1.310187
    13  C   -0.099686
    14  H   -0.398377
    15  H    1.085035
    16  P    0.742478
    17  C   -0.641753
    18  H    0.187584
    19  H    0.155053
    20  H    0.078348
    21  C   -0.710023
    22  H    0.101804
    23  H    0.165374
    24  H    0.081088
 Sum of Mulliken charges =  -0.00000

 Dipole moment (field-independent basis, Debye):
    X=              7.3682    Y=              1.3779    Z=             -0.7672  Tot=              7.5351

 Test job not archived.
 1\1\GINC-SE396\SP\RHF\Aug-CC-pVDZ\C10H13P1\OHZDE\09-Apr-2025\0\\#t hf
 aug-cc-pvdz iop(5/13=1,5/36=2,99/5=2) pseudo=read geom=check guess=(re
 ad,tcheck) scf=(maxcycle=1)\\title\\0,1\C,0,-2.213986,-1.203885,-0.333
 36\C,0,-3.565481,-0.911798,-0.414154\C,0,-4.044454,0.331828,-0.016588\
 C,0,-3.147538,1.285128,0.44695\C,0,-1.788604,1.010047,0.490426\C,0,-1.
 290355,-0.241691,0.098845\H,0,-1.849725,-2.187778,-0.604558\H,0,-4.256
 302,-1.667887,-0.770291\H,0,-5.104784,0.549991,-0.057608\H,0,-3.508145
 ,2.256024,0.768617\H,0,-1.095838,1.762897,0.848955\C,0,0.128714,-0.563

 Normal termination of Gaussian 16 at Wed Apr  9 01:21:19 2025.
