 Gaussian 16, Revision C.01,

 ----------------------------------------------------------------------
 #t hf aug-cc-pvdz symm=none int=(grid=ultrafine) guess=(read,tcheck) s
 table=opt
 ----------------------------------------------------------------------
 -----
 title
 -----
 Symbolic Z-matrix:
 Charge =  0 Multiplicity = 2

 SCF Done:  E(UHF) =  -1001.56823640     A.U. after   27 cycles
 Normal termination of Gaussian 16 at Wed Apr  9 01:05:05 2025.
 Gaussian 16:  ES64L-G16RevC.01  3-Jul-2019

 ----------------------------------------------------------------------
 #t hf aug-cc-pvdz iop(5/13=1,5/36=2,99/5=2) pseudo=read geom=check gue
 ss=(read,tcheck) scf=(maxcycle=1)
 ----------------------------------------------------------------------
 -----
 title
 -----
 Structure from the checkpoint file:  "BH10_165_forward_mol1.chk"
 Charge =  0 Multiplicity = 2

                         Standard orientation:
 ---------------------------------------------------------------------
 Center     Atomic      Atomic             Coordinates (Angstroms)
 Number     Number       Type             X           Y           Z
 ---------------------------------------------------------------------
      1          7           0       -0.461848    1.011770   -0.267501
      2          1           0        0.522059    0.949599   -0.034495
      3          6           0       -1.165155   -0.193404   -0.681548
      4          1           0       -1.845775    0.100144   -1.488238
      5          6           0       -0.197727   -1.229519   -1.227240
      6          6           0       -2.044007   -0.803540    0.428985
      7          1           0       -0.757935   -2.097743   -1.567518
      8          1           0        0.344136   -0.820079   -2.080522
      9         16           0        1.022884   -1.844711   -0.026759
     10          8           0       -1.924639   -1.966815    0.760190
     11          1           0        2.151526   -0.922688   -0.445558
     12          7           0       -2.954186    0.041197    0.953222
     13          1           0       -3.074828    0.974304    0.575066
     14          1           0       -3.583079   -0.316582    1.654015
     15          6           0       -1.034243    2.226629   -0.254776
     16          1           0       -0.325350    3.035149   -0.020333
     17          8           0       -2.215917    2.440849   -0.469682
     18          8           0        2.896485    0.043736   -0.758317
     19          8           0        2.568129    1.066540    0.074630
     20          6           0        3.297289    0.955797    1.300109
     21          1           0        3.053760    1.857242    1.860034
     22          1           0        2.967893    0.067253    1.842033
     23          1           0        4.364286    0.907732    1.085872
 ---------------------------------------------------------------------

 SCF Done:  E(UHF) =  -1002.22863739     A.U. after    2 cycles

 The electronic state is 2-A.
 Alpha  occ. eigenvalues --  -93.96279 -20.69221 -20.66376 -20.52964 -20.51088
 Alpha  occ. eigenvalues --  -15.54507 -15.51696 -11.37330 -11.35829 -11.32179
 Alpha  occ. eigenvalues --  -11.30394 -11.28425  -8.24306  -6.22912  -6.21855
 Alpha  occ. eigenvalues --   -6.21593  -1.69026  -1.47797  -1.46274  -1.31689
 Alpha  occ. eigenvalues --   -1.27075  -1.21775  -1.10578  -1.01141  -0.96623
 Alpha  occ. eigenvalues --   -0.88982  -0.87594  -0.81969  -0.79550  -0.77324
 Alpha  occ. eigenvalues --   -0.75728  -0.71923  -0.71504  -0.70555  -0.68618
 Alpha  occ. eigenvalues --   -0.65012  -0.63168  -0.62678  -0.60030  -0.59544
 Alpha  occ. eigenvalues --   -0.58418  -0.57011  -0.56796  -0.53006  -0.51677
 Alpha  occ. eigenvalues --   -0.48811  -0.46517  -0.44732  -0.44352  -0.42818
 Alpha  occ. eigenvalues --   -0.41237  -0.37668
 Alpha virt. eigenvalues --    0.02746   0.03775   0.04177   0.04429   0.05107
 Alpha virt. eigenvalues --    0.05940   0.06147   0.06393   0.07714   0.08628
 Alpha virt. eigenvalues --    0.09345   0.09917   0.11017   0.11336   0.12181

  Beta  occ. eigenvalues --  -93.95787 -20.66090 -20.65969 -20.52964 -20.51048
  Beta  occ. eigenvalues --  -15.54502 -15.51695 -11.37330 -11.35834 -11.32205
  Beta  occ. eigenvalues --  -11.30393 -11.28473  -8.23754  -6.21623  -6.21300
  Beta  occ. eigenvalues --   -6.20618  -1.64421  -1.47793  -1.46197  -1.27060
  Beta  occ. eigenvalues --   -1.25192  -1.21764  -1.09491  -0.99105  -0.96006
  Beta  occ. eigenvalues --   -0.87751  -0.87088  -0.81780  -0.77413  -0.75867
  Beta  occ. eigenvalues --   -0.72279  -0.70614  -0.70440  -0.69449  -0.68107
  Beta  occ. eigenvalues --   -0.63280  -0.62636  -0.60300  -0.59588  -0.58063
  Beta  occ. eigenvalues --   -0.56745  -0.56718  -0.55326  -0.50767  -0.49568
  Beta  occ. eigenvalues --   -0.46258  -0.44670  -0.44175  -0.43024  -0.41167
  Beta  occ. eigenvalues --   -0.36787
  Beta virt. eigenvalues --    0.00152   0.02768   0.03805   0.04230   0.04442
  Beta virt. eigenvalues --    0.05157   0.05984   0.06159   0.06407   0.07741
  Beta virt. eigenvalues --    0.08679   0.09385   0.09954   0.11147   0.11367

 Mulliken charges and spin densities:
               1          2
     1  N    1.354397  -0.001438
     2  H    0.118147   0.000400
     3  C   -1.227053  -0.020439
     4  H    0.142402   0.000423
     5  C   -0.210623  -0.056844
     6  C    0.302794   0.016231
     7  H    0.075780   0.003845
     8  H    0.065442   0.013309
     9  S    0.020263   0.570535
    10  O   -1.271127   0.001572
    11  H    0.845426  -0.277919
    12  N    0.851790  -0.000518
    13  H    0.012042  -0.000194
    14  H    0.099769   0.000334
    15  C    0.529850  -0.003078
    16  H    0.052944  -0.000169
    17  O   -1.208536   0.000066
    18  O   -0.602051   0.760704
    19  O   -0.680941  -0.004387
    20  C    0.360022  -0.006019
    21  H    0.093466  -0.000666
    22  H    0.192747   0.003708
    23  H    0.083050   0.000543
 Sum of Mulliken charges =   0.00000   1.00000

 Dipole moment (field-independent basis, Debye):
    X=              3.1321    Y=              2.5930    Z=              0.5747  Tot=              4.1066
                          Isotropic Fermi Contact Couplings
        Atom                 a.u.       MegaHertz       Gauss      10(-4) cm-1
     1  N(14)              0.00022       0.07165       0.02556       0.02390
     2  H(1)              -0.00016      -0.71297      -0.25441      -0.23782
     3  C(13)              0.00002       0.01833       0.00654       0.00611
     4  H(1)              -0.00020      -0.90347      -0.32238      -0.30136
     5  C(13)             -0.00910     -10.23402      -3.65175      -3.41370
     6  C(13)             -0.00068      -0.76775      -0.27395      -0.25609
     7  H(1)               0.00409      18.29866       6.52942       6.10377
     8  H(1)               0.00448      20.02177       7.14426       6.67854

 1\1\GINC-SE419\SP\UHF\Aug-CC-pVDZ\C5H11N2O4S1(2)\OHZDE\09-Apr-2025\0\\
 #t hf aug-cc-pvdz iop(5/13=1,5/36=2,99/5=2) pseudo=read geom=check gue
 ss=(read,tcheck) scf=(maxcycle=1)\\title\\0,2\N,0,-0.461848,1.01177,-0
 .267501\H,0,0.522059,0.949599,-0.034495\C,0,-1.165155,-0.193404,-0.681
 548\H,0,-1.845775,0.100144,-1.488238\C,0,-0.197727,-1.229519,-1.22724\
 C,0,-2.044007,-0.80354,0.428985\H,0,-0.757935,-2.097743,-1.567518\H,0,
 0.344136,-0.820079,-2.080522\S,0,1.022884,-1.844711,-0.026759\O,0,-1.9
 24639,-1.966815,0.76019\H,0,2.151526,-0.922688,-0.445558\N,0,-2.954186

 Normal termination of Gaussian 16 at Wed Apr  9 01:05:25 2025.
