 Gaussian 16, Revision C.01,

 ----------------------------------------------------------------------
 #t hf aug-cc-pvdz symm=none int=(grid=ultrafine) guess=(read,tcheck) s
 table=(opt,rrhf)
 ----------------------------------------------------------------------
 -----
 title
 -----
 Symbolic Z-matrix:
 Charge =  0 Multiplicity = 1

 SCF Done:  E(RHF) =  -1155.61047624     A.U. after   15 cycles
 Normal termination of Gaussian 16 at Wed Apr  9 02:07:18 2025.
 Gaussian 16:  ES64L-G16RevC.01  3-Jul-2019

 ----------------------------------------------------------------------
 #t hf aug-cc-pvdz iop(5/13=1,5/36=2,99/5=2) pseudo=read geom=check gue
 ss=(read,tcheck) scf=(maxcycle=1)
 ----------------------------------------------------------------------
 -----
 title
 -----
 Structure from the checkpoint file:  "BH10-RE_402_mol1.chk"
 Charge =  0 Multiplicity = 1

                         Standard orientation:
 ---------------------------------------------------------------------
 Center     Atomic      Atomic             Coordinates (Angstroms)
 Number     Number       Type             X           Y           Z
 ---------------------------------------------------------------------
      1          6           0        0.321519   -2.549670    0.399329
      2          1           0        0.265980   -3.481021   -0.173753
      3          1           0        0.428913   -2.849216    1.463297
      4          6           0       -0.963722   -1.797296    0.240716
      5          6           0        0.284683    0.286311   -0.170231
      6          1           0        0.506455    0.474981   -1.225572
      7          1           0        0.178544    1.260968    0.304854
      8          6           0        1.467662   -0.446564    0.459517
      9          1           0        1.304076   -0.471247    1.555566
     10          7           0        1.477868   -1.807378   -0.059271
     11          6           0       -2.302916    0.209790   -0.163228
     12          6           0       -2.242955   -2.562230    0.450574
     13          6           0       -3.399141   -0.537206   -0.363708
     14          6           0       -3.348690   -2.039869   -0.459323
     15          6           0       -0.998406   -0.488634   -0.029731
     16          6           0       -4.696088   -2.685401   -0.156135
     17          1           0       -4.647096   -3.771087   -0.267639
     18          1           0       -5.008811   -2.466012    0.868490
     19          1           0       -5.472153   -2.314054   -0.829705
     20          6           0        2.777110    0.278834    0.214741
     21          6           0        2.716633   -2.512301    0.201136
     22          1           0        2.593151   -3.551463   -0.111984
     23          1           0        2.956642   -2.523161    1.280585
     24          6           0        3.840346   -1.857021   -0.577963
     25          1           0        3.668977   -2.019111   -1.646484
     26          6           0        3.898023   -0.380690   -0.288277
     27          1           0        4.797772   -2.320979   -0.327159
     28          6           0        5.076113    0.334099   -0.497733
     29          1           0        5.943827   -0.187671   -0.887714
     30          6           0        2.875073    1.635794    0.523906
     31          1           0        2.020006    2.153822    0.941939
     32          6           0        5.157744    1.684587   -0.208256
     33          1           0        6.082459    2.223220   -0.376714
     34          6           0        4.048916    2.338314    0.314256
     35          1           0        4.100271    3.392022    0.560526
     36         14           0       -2.493790    2.082456   -0.033313
     37          6           0       -1.909997    2.673609    1.655770
     38          1           0       -0.855337    2.460077    1.840245
     39          1           0       -2.049749    3.753559    1.754705
     40          1           0       -2.485525    2.189273    2.448500
     41          6           0       -1.546977    2.977583   -1.389834
     42          1           0       -0.466074    2.858686   -1.303920
     43          1           0       -1.843632    2.608370   -2.374736
     44          1           0       -1.766602    4.048439   -1.357689
     45          6           0       -4.309762    2.530885   -0.207636
     46          1           0       -4.924533    2.064007    0.565029
     47          1           0       -4.428395    3.613597   -0.112820
     48          1           0       -4.711529    2.242120   -1.181577
     49          1           0       -3.072708   -2.286339   -1.496427
     50          1           0       -2.559721   -2.459285    1.499196
     51          1           0       -2.086224   -3.630498    0.276495
     52          1           0       -4.372010   -0.072280   -0.491591
 ---------------------------------------------------------------------

 SCF Done:  E(RHF) =  -1156.55619207     A.U. after    2 cycles

 The electronic state is 1-A.
 Alpha  occ. eigenvalues --  -69.50472 -15.48581 -11.26309 -11.25733 -11.25427
 Alpha  occ. eigenvalues --  -11.23831 -11.23767 -11.23494 -11.23453 -11.23430
 Alpha  occ. eigenvalues --  -11.23378 -11.23268 -11.23266 -11.23043 -11.22889
 Alpha  occ. eigenvalues --  -11.22672 -11.22616 -11.22519 -11.22478 -11.21185
 Alpha  occ. eigenvalues --  -11.20387 -11.20331 -11.20141  -6.17498  -3.92847
 Alpha  occ. eigenvalues --   -3.92841  -3.92830  -1.25113  -1.15674  -1.14293
 Alpha  occ. eigenvalues --   -1.07971  -1.05857  -1.04346  -1.02108  -0.99562
 Alpha  occ. eigenvalues --   -0.97755  -0.96795  -0.93376  -0.92359  -0.92215
 Alpha  occ. eigenvalues --   -0.88571  -0.87042  -0.85102  -0.82309  -0.81895
 Alpha  occ. eigenvalues --   -0.77273  -0.75099  -0.70959  -0.69333  -0.68201
 Alpha  occ. eigenvalues --   -0.66684  -0.65728  -0.64966  -0.63389  -0.63072
 Alpha  occ. eigenvalues --   -0.61051  -0.60791  -0.60349  -0.59284  -0.58658
 Alpha  occ. eigenvalues --   -0.57440  -0.56759  -0.56551  -0.56187  -0.55527
 Alpha  occ. eigenvalues --   -0.54583  -0.54415  -0.54100  -0.53809  -0.53569
 Alpha  occ. eigenvalues --   -0.53143  -0.52856  -0.52103  -0.51342  -0.50653
 Alpha  occ. eigenvalues --   -0.49292  -0.48829  -0.48347  -0.46947  -0.44643
 Alpha  occ. eigenvalues --   -0.44377  -0.43430  -0.41893  -0.40047  -0.38881
 Alpha  occ. eigenvalues --   -0.33623  -0.32894  -0.30010
 Alpha virt. eigenvalues --    0.02700   0.02856   0.02956   0.03276   0.03573
 Alpha virt. eigenvalues --    0.03601   0.04237   0.04463   0.04603   0.05322
 Alpha virt. eigenvalues --    0.05436   0.06407   0.06665   0.07106   0.07276

 Mulliken charges:
               1
     1  C   -1.862794
     2  H    0.078848
     3  H    0.304666
     4  C    0.853991
     5  C   -1.114194
     6  H    0.162704
     7  H   -0.139045
     8  C   -2.668027
     9  H    0.107765
    10  N    1.970504
    11  C   -1.234264
    12  C   -0.274413
    13  C    0.437294
    14  C   -0.781905
    15  C    1.263721
    16  C   -0.242626
    17  H    0.160074
    18  H    0.237933
    19  H    0.164708
    20  C    1.534922
    21  C   -0.314070
    22  H   -0.027715
    23  H    0.065454
    24  C   -0.433928
    25  H    0.257458
    26  C    0.794486
    27  H    0.153884
    28  C    0.343979
    29  H   -0.322371
    30  C    0.508230
    31  H   -0.248811
    32  C    0.012537
    33  H   -0.246149
    34  C   -0.398251
    35  H   -0.311647
    36  Si   2.804548
    37  C   -0.284875
    38  H   -0.086165
    39  H   -0.036244
    40  H   -0.066244
    41  C   -0.251150
    42  H   -0.098862
    43  H   -0.047594
    44  H   -0.017860
    45  C   -0.550227
    46  H    0.015072
    47  H   -0.216031
    48  H    0.013635
    49  H    0.193881
    50  H    0.216832
    51  H    0.085578
    52  H   -0.467241
 Sum of Mulliken charges =   0.00000

 Dipole moment (field-independent basis, Debye):
    X=             -0.2756    Y=             -0.9693    Z=              0.4848  Tot=              1.1183

 Test job not archived.
 1\1\GINC-SE253\SP\RHF\Aug-CC-pVDZ\C21H29N1Si1\OHZDE\09-Apr-2025\0\\#t
 hf aug-cc-pvdz iop(5/13=1,5/36=2,99/5=2) pseudo=read geom=check guess=
 (read,tcheck) scf=(maxcycle=1)\\title\\0,1\C,0,0.321519,-2.54967,0.399
 329\H,0,0.26598,-3.481021,-0.173753\H,0,0.428913,-2.849216,1.463297\C,
 0,-0.963722,-1.797296,0.240716\C,0,0.284683,0.286311,-0.170231\H,0,0.5
 06455,0.474981,-1.225572\H,0,0.178544,1.260968,0.304854\C,0,1.467662,-
 0.446564,0.459517\H,0,1.304076,-0.471247,1.555566\N,0,1.477868,-1.8073
 78,-0.059271\C,0,-2.302916,0.20979,-0.163228\C,0,-2.242955,-2.56223,0.

 Normal termination of Gaussian 16 at Wed Apr  9 02:10:15 2025.
