 Gaussian 16, Revision C.01,

 ----------------------------------------------------------------------
 #t hf aug-cc-pvdz symm=none int=(grid=ultrafine) guess=(read,tcheck) s
 table=(opt,rrhf)
 ----------------------------------------------------------------------
 -----
 title
 -----
 Symbolic Z-matrix:
 Charge =  0 Multiplicity = 1

 SCF Done:  E(RHF) =  -997.714412644     A.U. after   16 cycles
 Normal termination of Gaussian 16 at Wed Apr  9 02:16:00 2025.
 Gaussian 16:  ES64L-G16RevC.01  3-Jul-2019

 ----------------------------------------------------------------------
 #t hf aug-cc-pvdz iop(5/13=1,5/36=2,99/5=2) pseudo=read geom=check gue
 ss=(read,tcheck) scf=(maxcycle=1)
 ----------------------------------------------------------------------
 -----
 title
 -----
 Structure from the checkpoint file:  "BH10_82_reverse_mol2.chk"
 Charge =  0 Multiplicity = 1

                         Standard orientation:
 ---------------------------------------------------------------------
 Center     Atomic      Atomic             Coordinates (Angstroms)
 Number     Number       Type             X           Y           Z
 ---------------------------------------------------------------------
      1          6           0       -0.014285   -0.112511    2.016472
      2          6           0       -1.920039   -0.370631    0.602299
      3          6           0        0.500411    1.053005    1.201300
      4          6           0       -1.580044    0.755934   -0.065234
      5          6           0       -2.601022    1.009616   -1.132694
      6          6           0       -1.123228   -0.794882    1.726801
      7          6           0       -3.145130   -0.899349    0.041109
      8          6           0        1.889278    0.790829    0.567977
      9          6           0        2.949553    0.685135    1.673936
     10          1           0        2.836848   -0.224972    2.266132
     11          1           0        2.888149    1.534855    2.361730
     12          1           0        2.138359    1.688782   -0.011990
     13          1           0        3.957941    0.678303    1.257675
     14          7           0       -0.497727    1.497909    0.200214
     15          6           0       -0.229067    2.734471   -0.501819
     16          1           0        0.213676    3.453329    0.191594
     17          1           0        0.460328    2.598351   -1.340325
     18          1           0       -1.155515    3.162572   -0.882743
     19          8           0       -3.798368   -1.859390    0.331384
     20          8           0       -3.522668   -0.061418   -1.003094
     21          1           0       -2.162296    0.992599   -2.134057
     22          1           0       -3.131659    1.955346   -0.992929
     23         14           0        2.065693   -0.647341   -0.678612
     24          6           0        0.736712   -0.614439   -2.005974
     25          6           0        3.730433   -0.394508   -1.519421
     26          6           0        2.055236   -2.319409    0.169863
     27          1           0        1.000992   -1.315205   -2.802417
     28          1           0       -0.235367   -0.916670   -1.614373
     29          1           0        0.635781    0.372960   -2.463716
     30          1           0        3.790602    0.582378   -2.007055
     31          1           0        4.562935   -0.466971   -0.815983
     32          1           0        3.887835   -1.154701   -2.289016
     33          1           0        2.819271   -2.385935    0.947949
     34          1           0        1.088127   -2.528882    0.628435
     35          1           0        2.260432   -3.109104   -0.558054
     36          1           0        0.639847    1.907340    1.883022
     37          1           0        0.588430   -0.383558    2.873577
     38          1           0       -1.444893   -1.636503    2.327605
 ---------------------------------------------------------------------

 SCF Done:  E(RHF) =  -998.481727911     A.U. after    2 cycles

 The electronic state is 1-A.
 Alpha  occ. eigenvalues --  -69.51130 -20.57646 -20.50664 -15.55184 -11.37006
 Alpha  occ. eigenvalues --  -11.32186 -11.31720 -11.30019 -11.29655 -11.25169
 Alpha  occ. eigenvalues --  -11.24158 -11.24007 -11.23041 -11.22223 -11.21229
 Alpha  occ. eigenvalues --  -11.21184 -11.20663  -6.18213  -3.93549  -3.93540
 Alpha  occ. eigenvalues --   -3.93533  -1.52503  -1.43785  -1.30298  -1.12420
 Alpha  occ. eigenvalues --   -1.10538  -1.03907  -0.99569  -0.98533  -0.97913
 Alpha  occ. eigenvalues --   -0.94167  -0.93073  -0.92881  -0.84939  -0.83340
 Alpha  occ. eigenvalues --   -0.79829  -0.73415  -0.71790  -0.70972  -0.70128
 Alpha  occ. eigenvalues --   -0.66733  -0.66060  -0.65498  -0.62854  -0.61716
 Alpha  occ. eigenvalues --   -0.61357  -0.59914  -0.58792  -0.57937  -0.57555
 Alpha  occ. eigenvalues --   -0.56788  -0.56318  -0.56178  -0.54707  -0.54609
 Alpha  occ. eigenvalues --   -0.54530  -0.54215  -0.53265  -0.52631  -0.50820
 Alpha  occ. eigenvalues --   -0.48730  -0.44450  -0.44187  -0.43907  -0.42772
 Alpha  occ. eigenvalues --   -0.42233  -0.41876  -0.29997
 Alpha virt. eigenvalues --    0.01960   0.02493   0.02557   0.03326   0.04001
 Alpha virt. eigenvalues --    0.04057   0.04603   0.05055   0.05788   0.06800
 Alpha virt. eigenvalues --    0.07032   0.07261   0.07664   0.07814   0.08131

 Mulliken charges:
               1
     1  C    0.437970
     2  C    1.265946
     3  C   -1.261344
     4  C   -2.460005
     5  C    0.679261
     6  C    0.536828
     7  C    1.192511
     8  C   -0.790755
     9  C   -0.270850
    10  H    0.144071
    11  H    0.168547
    12  H   -0.006070
    13  H    0.158612
    14  N    2.928937
    15  C   -0.410737
    16  H    0.141326
    17  H    0.249369
    18  H   -0.108307
    19  O   -1.567724
    20  O   -1.509035
    21  H    0.186823
    22  H    0.214420
    23  Si   2.131895
    24  C   -0.237593
    25  C   -0.495790
    26  C   -0.401174
    27  H   -0.156449
    28  H    0.038705
    29  H   -0.027247
    30  H    0.023133
    31  H   -0.041533
    32  H   -0.037727
    33  H    0.044246
    34  H    0.038719
    35  H   -0.098174
    36  H   -0.049900
    37  H   -0.359977
    38  H   -0.290927
 Sum of Mulliken charges =  -0.00000

 Dipole moment (field-independent basis, Debye):
    X=              5.4317    Y=              5.2803    Z=             -0.4667  Tot=              7.5897

 Test job not archived.
 1\1\GINC-SE340\SP\RHF\Aug-CC-pVDZ\C13H21N1O2Si1\OHZDE\09-Apr-2025\0\\#
 t hf aug-cc-pvdz iop(5/13=1,5/36=2,99/5=2) pseudo=read geom=check gues
 s=(read,tcheck) scf=(maxcycle=1)\\title\\0,1\C,0,-0.014285,-0.112511,2
 .016472\C,0,-1.920039,-0.370631,0.602299\C,0,0.500411,1.053005,1.2013\
 C,0,-1.580044,0.755934,-0.065234\C,0,-2.601022,1.009616,-1.132694\C,0,
 -1.123228,-0.794882,1.726801\C,0,-3.14513,-0.899349,0.041109\C,0,1.889
 278,0.790829,0.567977\C,0,2.949553,0.685135,1.673936\H,0,2.836848,-0.2
 24972,2.266132\H,0,2.888149,1.534855,2.36173\H,0,2.138359,1.688782,-0.

 Normal termination of Gaussian 16 at Wed Apr  9 02:17:03 2025.
