 Gaussian 16, Revision C.01,

 ----------------------------------------------------------------------
 #t hf aug-cc-pvdz symm=none int=(grid=ultrafine) guess=(read,tcheck) s
 table=opt
 ----------------------------------------------------------------------
 -----
 title
 -----
 Symbolic Z-matrix:
 Charge =  0 Multiplicity = 2

 SCF Done:  E(UHF) =  -2205.48188782     A.U. after   18 cycles
 Normal termination of Gaussian 16 at Wed Apr  9 03:53:33 2025.
 Gaussian 16:  ES64L-G16RevC.01  3-Jul-2019

 ----------------------------------------------------------------------
 #t hf aug-cc-pvdz iop(5/13=1,5/36=2,99/5=2) pseudo=read geom=check gue
 ss=(read,tcheck) scf=(maxcycle=1)
 ----------------------------------------------------------------------
 -----
 title
 -----
 Structure from the checkpoint file:  "BH10_305_forward_mol1.chk"
 Charge =  0 Multiplicity = 2

                         Standard orientation:
 ---------------------------------------------------------------------
 Center     Atomic      Atomic             Coordinates (Angstroms)
 Number     Number       Type             X           Y           Z
 ---------------------------------------------------------------------
      1         14           0        0.593541    0.073766    0.009590
      2         14           0        1.684500   -1.381940   -1.468667
      3         14           0        1.259569   -0.279522    2.225814
      4         14           0        0.895663    2.303306   -0.649017
      5          6           0        0.647963    2.471429   -2.510743
      6          1           0        0.768731    3.512589   -2.823460
      7          1           0        1.373818    1.872507   -3.065301
      8          1           0       -0.349670    2.146542   -2.815335
      9          6           0       -0.300475    3.472793    0.221525
     10          1           0       -0.238532    3.377340    1.307624
     11          1           0       -0.063613    4.509465   -0.035390
     12          1           0       -1.336380    3.289817   -0.069711
     13          6           0        2.649938    2.846504   -0.220443
     14          1           0        3.397425    2.186671   -0.665646
     15          1           0        2.838305    3.860748   -0.584417
     16          1           0        2.809983    2.848351    0.860393
     17          6           0        0.569814    1.077373    3.339053
     18          1           0        0.838168    0.893973    4.383401
     19          1           0        0.963179    2.058715    3.063761
     20          1           0       -0.520145    1.127555    3.279707
     21          6           0        0.636209   -1.946506    2.839068
     22          1           0        1.036592   -2.765420    2.238456
     23          1           0        0.939510   -2.110479    3.877291
     24          1           0       -0.452360   -2.014077    2.791970
     25          6           0        3.141802   -0.259818    2.340491
     26          1           0        3.557170    0.687226    1.989239
     27          1           0        3.468569   -0.405831    3.374167
     28          1           0        3.582597   -1.058050    1.738410
     29          6           0        1.922018   -3.076722   -0.684716
     30          1           0        2.378006   -3.768438   -1.398941
     31          1           0        2.574870   -3.025871    0.189776
     32          1           0        0.966706   -3.499670   -0.368224
     33          6           0        0.655775   -1.571278   -3.034788
     34          1           0        0.451831   -0.604977   -3.501844
     35          1           0        1.174853   -2.195038   -3.768230
     36          1           0       -0.301194   -2.046953   -2.809231
     37          6           0        3.380868   -0.692378   -1.923551
     38          1           0        3.912294   -1.385168   -2.582532
     39          1           0        3.302813    0.264683   -2.444296
     40          1           0        3.998838   -0.538160   -1.035692
     41          1           0       -0.968623   -0.334178   -0.061846
     42          6           0       -2.422452   -0.977154   -0.089286
     43          6           0       -3.032077   -0.524899    1.202569
     44         17           0       -2.064551   -2.709973   -0.131683
     45          6           0       -3.023926   -0.460494   -1.360704
     46          6           0       -3.212510    0.994593    1.218664
     47          6           0       -3.944230    1.485725   -0.028643
     48          6           0       -3.214699    1.056933   -1.299967
     49          1           0       -2.412081   -0.850023    2.041240
     50          1           0       -4.008807   -1.014769    1.327530
     51          1           0       -3.996815   -0.948724   -1.518330
     52          1           0       -2.394526   -0.737130   -2.209797
     53          1           0       -2.230208    1.472215    1.272811
     54          1           0       -3.754378    1.286111    2.121486
     55          1           0       -4.043049    2.574034   -0.001580
     56          1           0       -4.962302    1.078833   -0.037898
     57          1           0       -2.234776    1.540404   -1.333489
     58          1           0       -3.759363    1.389570   -2.186718
 ---------------------------------------------------------------------

 SCF Done:  E(UHF) =  -2206.34057592     A.U. after    2 cycles

 The electronic state is 2-A.
 Alpha  occ. eigenvalues -- -105.55519 -69.50535 -69.50240 -69.50062 -69.47599
 Alpha  occ. eigenvalues --  -11.30435 -11.24037 -11.23989 -11.23536 -11.23464
 Alpha  occ. eigenvalues --  -11.23332 -11.20894 -11.20857 -11.20793 -11.20778
 Alpha  occ. eigenvalues --  -11.20630 -11.20537 -11.20233 -11.20212 -11.20105
 Alpha  occ. eigenvalues --  -10.60324  -7.77205  -7.76969  -7.76923  -6.17607
 Alpha  occ. eigenvalues --   -6.17325  -6.17140  -6.15231  -3.92929  -3.92927
 Alpha  occ. eigenvalues --   -3.92913  -3.92645  -3.92642  -3.92634  -3.92460
 Alpha  occ. eigenvalues --   -3.92457  -3.92449  -3.90807  -3.90375  -3.90370
 Alpha  occ. eigenvalues --   -1.16464  -1.07832  -1.02417  -0.98388  -0.97471
 Alpha  occ. eigenvalues --   -0.97373  -0.97109  -0.92930  -0.92751  -0.92421
 Alpha  occ. eigenvalues --   -0.92200  -0.92084  -0.91762  -0.85836  -0.82597
 Alpha  occ. eigenvalues --   -0.77305  -0.73548  -0.67278  -0.64330  -0.64015
 Alpha  occ. eigenvalues --   -0.63726  -0.62832  -0.62324  -0.59925  -0.57920
 Alpha  occ. eigenvalues --   -0.57832  -0.57689  -0.57235  -0.56887  -0.56656
 Alpha  occ. eigenvalues --   -0.56203  -0.56090  -0.56065  -0.55509  -0.55342
 Alpha  occ. eigenvalues --   -0.55258  -0.54800  -0.54602  -0.54361  -0.54170
 Alpha  occ. eigenvalues --   -0.54007  -0.53690  -0.53530  -0.53128  -0.53108
 Alpha  occ. eigenvalues --   -0.50655  -0.50511  -0.47300  -0.47175  -0.46076
 Alpha  occ. eigenvalues --   -0.44942  -0.44302  -0.44030  -0.43840  -0.43673
 Alpha  occ. eigenvalues --   -0.43332  -0.43153  -0.42457  -0.35403  -0.35190
 Alpha  occ. eigenvalues --   -0.28759
 Alpha virt. eigenvalues --    0.02235   0.02343   0.02503   0.03325   0.03909
 Alpha virt. eigenvalues --    0.04058   0.04354   0.04569   0.04757   0.06103
 Alpha virt. eigenvalues --    0.06208   0.06375   0.06522   0.06564   0.07055

  Beta  occ. eigenvalues -- -105.55535 -69.50540 -69.50248 -69.50071 -69.47336
  Beta  occ. eigenvalues --  -11.27904 -11.24236 -11.24188 -11.23513 -11.23442
  Beta  occ. eigenvalues --  -11.23341 -11.20897 -11.20861 -11.20782 -11.20761
  Beta  occ. eigenvalues --  -11.20603 -11.20512 -11.20234 -11.20214 -11.20107
  Beta  occ. eigenvalues --  -10.60340  -7.77376  -7.76932  -7.76874  -6.17615
  Beta  occ. eigenvalues --   -6.17337  -6.17152  -6.14845  -3.92938  -3.92930
  Beta  occ. eigenvalues --   -3.92927  -3.92666  -3.92651  -3.92644  -3.92483
  Beta  occ. eigenvalues --   -3.92465  -3.92461  -3.90182  -3.90176  -3.89776
  Beta  occ. eigenvalues --   -1.14423  -1.07124  -1.02404  -0.98322  -0.97372
  Beta  occ. eigenvalues --   -0.97093  -0.96781  -0.92888  -0.92747  -0.92418
  Beta  occ. eigenvalues --   -0.92149  -0.92047  -0.91762  -0.85682  -0.81166
  Beta  occ. eigenvalues --   -0.74494  -0.71763  -0.66433  -0.64306  -0.64007
  Beta  occ. eigenvalues --   -0.62382  -0.62291  -0.60659  -0.59225  -0.57894
  Beta  occ. eigenvalues --   -0.57753  -0.57204  -0.57143  -0.56878  -0.56583
  Beta  occ. eigenvalues --   -0.56082  -0.56040  -0.56004  -0.55287  -0.55028
  Beta  occ. eigenvalues --   -0.54793  -0.54631  -0.54478  -0.54166  -0.54111
  Beta  occ. eigenvalues --   -0.53975  -0.53664  -0.53509  -0.53114  -0.53090
  Beta  occ. eigenvalues --   -0.50233  -0.48803  -0.47028  -0.46770  -0.45864
  Beta  occ. eigenvalues --   -0.44483  -0.44296  -0.44018  -0.43673  -0.43516
  Beta  occ. eigenvalues --   -0.43228  -0.43126  -0.40941  -0.35140  -0.34953
  Beta virt. eigenvalues --    0.02236   0.02347   0.02505   0.03277   0.03911
  Beta virt. eigenvalues --    0.03985   0.04200   0.04564   0.04735   0.06105
  Beta virt. eigenvalues --    0.06211   0.06318   0.06526   0.06552   0.07032

 Mulliken charges and spin densities:
               1          2
     1  Si   1.880087   0.462488
     2  Si   1.259190  -0.001910
     3  Si   1.885792  -0.002764
     4  Si   1.609198   0.007334
     5  C   -0.324020  -0.005944
     6  H   -0.167548  -0.000244
     7  H   -0.145975   0.002455
     8  H   -0.098917   0.000349
     9  C   -0.215132  -0.006972
    10  H   -0.124446   0.001542
    11  H   -0.188154   0.000008
    12  H   -0.177196  -0.001129
    13  C   -0.396314   0.011183
    14  H   -0.125047  -0.005650
    15  H   -0.195362   0.003196
    16  H   -0.092461  -0.002386
    17  C   -0.367411  -0.004524
    18  H   -0.159206  -0.000890
    19  H   -0.122924   0.003866
    20  H   -0.099194  -0.000073
    21  C   -0.289929  -0.003743
    22  H   -0.110775   0.002936
    23  H   -0.135990  -0.001163
    24  H   -0.167117  -0.000800
    25  C   -0.367779   0.011631
    26  H   -0.123302  -0.003442
    27  H   -0.168405   0.003038
    28  H   -0.114854  -0.001881
    29  C   -0.365761  -0.001376
    30  H   -0.183160  -0.000676
    31  H   -0.122806   0.003279
    32  H    0.003354   0.002205
    33  C   -0.293902  -0.004105
    34  H   -0.094276   0.001826
    35  H   -0.163511  -0.000711
    36  H   -0.091145  -0.000855
    37  C   -0.344594   0.012448
    38  H   -0.156490   0.002609
    39  H   -0.120999  -0.000575
    40  H   -0.070296  -0.003404
    41  H    0.286342  -0.469433
    42  C    0.126294   1.305031
    43  C   -0.398338  -0.188081
    44  Cl  -0.285759  -0.022563
    45  C   -0.300858  -0.210528
    46  C   -0.283564   0.026014
    47  C   -0.247812  -0.025809
    48  C   -0.243793   0.031833
    49  H    0.061916   0.004596
    50  H    0.170209   0.032460
    51  H    0.169635   0.030387
    52  H    0.092581   0.004562
    53  H    0.134674   0.004841
    54  H    0.109159   0.001038
    55  H    0.142535  -0.000933
    56  H    0.124928  -0.000067
    57  H    0.091326  -0.001630
    58  H    0.097302   0.001108
 Sum of Mulliken charges =  -0.00000   1.00000

 Dipole moment (field-independent basis, Debye):
    X=             -0.7955    Y=              1.9179    Z=              0.0580  Tot=              2.0772
                          Isotropic Fermi Contact Couplings
        Atom                 a.u.       MegaHertz       Gauss      10(-4) cm-1
     1  Si(29)             0.22715    -201.87092     -72.03256     -67.33689
     2  Si(29)            -0.00859       7.63803       2.72544       2.54777
     3  Si(29)            -0.00817       7.26152       2.59109       2.42218
     4  Si(29)            -0.00514       4.57227       1.63150       1.52515
     5  C(13)             -0.00088      -0.98477      -0.35139      -0.32848
     6  H(1)              -0.00015      -0.69054      -0.24640      -0.23034
     7  H(1)               0.00004       0.19613       0.06998       0.06542
     8  H(1)              -0.00004      -0.16594      -0.05921      -0.05535

 Normal termination of Gaussian 16 at Wed Apr  9 03:58:11 2025.
