 Gaussian 16, Revision C.01,

 ----------------------------------------------------------------------
 #t hf aug-cc-pvdz symm=none int=(grid=ultrafine) guess=(read,tcheck) s
 table=(opt,rrhf)
 ----------------------------------------------------------------------
 -----
 title
 -----
 Symbolic Z-matrix:
 Charge =  0 Multiplicity = 1

 SCF Done:  E(RHF) =  -806.769950196     A.U. after   16 cycles
 Normal termination of Gaussian 16 at Wed Apr  9 00:58:41 2025.
 Gaussian 16:  ES64L-G16RevC.01  3-Jul-2019

 ----------------------------------------------------------------------
 #t hf aug-cc-pvdz iop(5/13=1,5/36=2,99/5=2) pseudo=read geom=check gue
 ss=(read,tcheck) scf=(maxcycle=1)
 ----------------------------------------------------------------------
 -----
 title
 -----
 Structure from the checkpoint file:  "BH10_139_reverse_mol3.chk"
 Charge =  0 Multiplicity = 1

                         Standard orientation:
 ---------------------------------------------------------------------
 Center     Atomic      Atomic             Coordinates (Angstroms)
 Number     Number       Type             X           Y           Z
 ---------------------------------------------------------------------
      1         17           0       -2.016113   -0.928519   -0.875565
      2          6           0       -1.193310    0.295319    0.236868
      3          6           0        0.309892    0.134905    0.077056
      4          6           0       -1.626458   -0.037142    1.660290
      5          6           0       -1.722903    1.659502   -0.175187
      6          6           0        0.902493   -1.111219    0.285852
      7          6           0        1.132898    1.214417   -0.223414
      8          1           0       -1.324266   -1.043987    1.944029
      9          1           0       -2.709463    0.043481    1.759283
     10          1           0       -1.154825    0.667966    2.349236
     11          1           0       -1.452444    1.900565   -1.202697
     12          1           0       -1.326538    2.431879    0.487715
     13          1           0       -2.809319    1.669110   -0.094862
     14          6           0        2.273973   -1.271492    0.198308
     15          6           0        3.087575   -0.184455   -0.099415
     16          6           0        2.511900    1.056567   -0.310297
     17          1           0        0.710750    2.194750   -0.395117
     18          1           0        2.710895   -2.249942    0.357530
     19          1           0        4.161321   -0.308682   -0.169687
     20          1           0        3.133080    1.911982   -0.547147
     21          1           0        0.278373   -1.970705    0.495960
 ---------------------------------------------------------------------

 SCF Done:  E(RHF) =  -807.212698680     A.U. after    2 cycles

 The electronic state is 1-A.
 Alpha  occ. eigenvalues -- -105.54286 -11.32068 -11.25480 -11.24617 -11.24550
 Alpha  occ. eigenvalues --  -11.24492 -11.24424 -11.24284 -11.24130 -11.24082
 Alpha  occ. eigenvalues --  -10.59114  -7.76039  -7.75701  -7.75693  -1.17991
 Alpha  occ. eigenvalues --   -1.12872  -1.02579  -1.01880  -0.99040  -0.95862
 Alpha  occ. eigenvalues --   -0.86081  -0.83911  -0.77540  -0.71745  -0.65940
 Alpha  occ. eigenvalues --   -0.65108  -0.63267  -0.62720  -0.60619  -0.59220
 Alpha  occ. eigenvalues --   -0.56567  -0.54849  -0.52819  -0.52764  -0.50558
 Alpha  occ. eigenvalues --   -0.50315  -0.48850  -0.44027  -0.43494  -0.35193
 Alpha  occ. eigenvalues --   -0.34478
 Alpha virt. eigenvalues --    0.03152   0.03362   0.03771   0.04540   0.04772
 Alpha virt. eigenvalues --    0.05206   0.06604   0.07449   0.07525   0.08005
 Alpha virt. eigenvalues --    0.09304   0.09717   0.10383   0.11673   0.12000

 Mulliken charges:
               1
     1  Cl  -0.119007
     2  C   -2.338863
     3  C    2.541367
     4  C   -0.155034
     5  C    0.061701
     6  C    0.008858
     7  C    0.068732
     8  H    0.149713
     9  H    0.164077
    10  H    0.232496
    11  H    0.248979
    12  H    0.341921
    13  H    0.070759
    14  C    0.082421
    15  C   -0.004306
    16  C    0.134164
    17  H   -0.445565
    18  H   -0.241882
    19  H   -0.227622
    20  H   -0.247732
    21  H   -0.325175
 Sum of Mulliken charges =  -0.00000

 Dipole moment (field-independent basis, Debye):
    X=              1.0745    Y=              1.5189    Z=              1.4785  Tot=              2.3765

 Test job not archived.
 1\1\GINC-SE049\SP\RHF\Aug-CC-pVDZ\C9H11Cl1\OHZDE\09-Apr-2025\0\\#t hf
 aug-cc-pvdz iop(5/13=1,5/36=2,99/5=2) pseudo=read geom=check guess=(re
 ad,tcheck) scf=(maxcycle=1)\\title\\0,1\Cl,0,-2.016113,-0.928519,-0.87
 5565\C,0,-1.19331,0.295319,0.236868\C,0,0.309892,0.134905,0.077056\C,0
 ,-1.626458,-0.037142,1.66029\C,0,-1.722903,1.659502,-0.175187\C,0,0.90
 2493,-1.111219,0.285852\C,0,1.132898,1.214417,-0.223414\H,0,-1.324266,
 -1.043987,1.944029\H,0,-2.709463,0.043481,1.759283\H,0,-1.154825,0.667
 966,2.349236\H,0,-1.452444,1.900565,-1.202697\H,0,-1.326538,2.431879,0

 Normal termination of Gaussian 16 at Wed Apr  9 00:58:55 2025.
