 Gaussian 16, Revision C.01,

 ----------------------------------------------------------------------
 #t hf aug-cc-pvdz symm=none int=(grid=ultrafine) guess=(read,tcheck) s
 table=(opt,rrhf)
 ----------------------------------------------------------------------
 -----
 title
 -----
 Symbolic Z-matrix:
 Charge =  0 Multiplicity = 1

 SCF Done:  E(RHF) =  -654.097008071     A.U. after   14 cycles

 1\1\GINC-SE341\Stability\RHF\Aug-CC-pVDZ\C5H9Cl1\OHZDE\09-Apr-2025\0\\
 #t hf aug-cc-pvdz symm=none int=(grid=ultrafine) guess=(read,tcheck) s
 table=(opt,rrhf)\\title\\0,1\C,0,-0.654023,0.390951,0.344167\C,0,0.678
 54,0.161465,-0.280003\C,0,1.791859,-0.030783,0.413891\C,0,3.147715,-0.
 23836,-0.17924\C,0,-1.322427,1.672125,-0.115931\H,0,0.702521,0.169561,
 -1.367364\H,0,1.731284,-0.046611,1.50063\H,0,3.115207,-0.209841,-1.269
 334\H,0,3.560542,-1.20392,0.12614\H,0,3.847491,0.528846,0.163676\H,0,-
 1.441504,1.676967,-1.200693\H,0,-0.700172,2.524282,0.167758\H,0,-2.305

 Normal termination of Gaussian 16 at Wed Apr  9 00:54:53 2025.
 Gaussian 16:  ES64L-G16RevC.01  3-Jul-2019

 ----------------------------------------------------------------------
 #t hf aug-cc-pvdz iop(5/13=1,5/36=2,99/5=2) pseudo=read geom=check gue
 ss=(read,tcheck) scf=(maxcycle=1)
 ----------------------------------------------------------------------
 -----
 title
 -----
 Structure from the checkpoint file:  "BH10-RE_130_mol2.chk"
 Charge =  0 Multiplicity = 1

                         Standard orientation:
 ---------------------------------------------------------------------
 Center     Atomic      Atomic             Coordinates (Angstroms)
 Number     Number       Type             X           Y           Z
 ---------------------------------------------------------------------
      1          6           0       -0.654023    0.390951    0.344167
      2          6           0        0.678540    0.161465   -0.280003
      3          6           0        1.791859   -0.030783    0.413891
      4          6           0        3.147715   -0.238360   -0.179240
      5          6           0       -1.322427    1.672125   -0.115931
      6          1           0        0.702521    0.169561   -1.367364
      7          1           0        1.731284   -0.046611    1.500630
      8          1           0        3.115207   -0.209841   -1.269334
      9          1           0        3.560542   -1.203920    0.126140
     10          1           0        3.847491    0.528847    0.163676
     11          1           0       -1.441504    1.676967   -1.200693
     12          1           0       -0.700172    2.524282    0.167758
     13          1           0       -2.305614    1.787264    0.340431
     14          1           0       -0.570461    0.365859    1.429212
     15         17           0       -1.752310   -1.019106   -0.058103
 ---------------------------------------------------------------------

 SCF Done:  E(RHF) =  -654.387258996     A.U. after    2 cycles

 The electronic state is 1-A.
 Alpha  occ. eigenvalues -- -105.54334 -11.30895 -11.25097 -11.24293 -11.24101
 Alpha  occ. eigenvalues --  -11.23981 -10.59156  -7.76083  -7.75731  -7.75726
 Alpha  occ. eigenvalues --   -1.13907  -1.06518  -0.98507  -0.94961  -0.83100
 Alpha  occ. eigenvalues --   -0.77532  -0.66535  -0.63457  -0.59779  -0.58437
 Alpha  occ. eigenvalues --   -0.57720  -0.55916  -0.53267  -0.51641  -0.50264
 Alpha  occ. eigenvalues --   -0.43995  -0.43516  -0.37071
 Alpha virt. eigenvalues --    0.03434   0.03647   0.03994   0.04790   0.05685
 Alpha virt. eigenvalues --    0.06160   0.06713   0.08293   0.08810   0.10185
 Alpha virt. eigenvalues --    0.10909   0.12741   0.13845   0.14311   0.14943

 Mulliken charges:
               1
     1  C   -0.873328
     2  C    1.017615
     3  C    0.156657
     4  C   -0.764770
     5  C   -0.258774
     6  H   -0.182182
     7  H   -0.196227
     8  H    0.108281
     9  H    0.241444
    10  H    0.235350
    11  H    0.216657
    12  H    0.199381
    13  H    0.127183
    14  H    0.088195
    15  Cl  -0.115482
 Sum of Mulliken charges =   0.00000

 Dipole moment (field-independent basis, Debye):
    X=              1.9837    Y=              1.8338    Z=              0.5017  Tot=              2.7477

 Test job not archived.
 1\1\GINC-SE341\SP\RHF\Aug-CC-pVDZ\C5H9Cl1\OHZDE\09-Apr-2025\0\\#t hf a
 ug-cc-pvdz iop(5/13=1,5/36=2,99/5=2) pseudo=read geom=check guess=(rea
 d,tcheck) scf=(maxcycle=1)\\title\\0,1\C,0,-0.654023,0.390951,0.344167
 \C,0,0.67854,0.161465,-0.280003\C,0,1.791859,-0.030783,0.413891\C,0,3.
 147715,-0.23836,-0.17924\C,0,-1.322427,1.672125,-0.115931\H,0,0.702521
 ,0.169561,-1.367364\H,0,1.731284,-0.046611,1.50063\H,0,3.115207,-0.209
 841,-1.269334\H,0,3.560542,-1.20392,0.12614\H,0,3.847491,0.528846,0.16
 3676\H,0,-1.441504,1.676967,-1.200693\H,0,-0.700172,2.524282,0.167758\

 Normal termination of Gaussian 16 at Wed Apr  9 00:54:58 2025.
