 Gaussian 16, Revision C.01,

 ----------------------------------------------------------------------
 #t hf aug-cc-pvdz symm=none int=(grid=ultrafine) guess=(read,tcheck) s
 table=(opt,rrhf)
 ----------------------------------------------------------------------
 -----
 title
 -----
 Symbolic Z-matrix:
 Charge =  0 Multiplicity = 1

 SCF Done:  E(RHF) =  -1123.51163890     A.U. after   18 cycles
 Normal termination of Gaussian 16 at Wed Apr  9 01:54:34 2025.
 Gaussian 16:  ES64L-G16RevC.01  3-Jul-2019

 ----------------------------------------------------------------------
 #t hf aug-cc-pvdz iop(5/13=1,5/36=2,99/5=2) pseudo=read geom=check gue
 ss=(read,tcheck) scf=(maxcycle=1)
 ----------------------------------------------------------------------
 -----
 title
 -----
 Structure from the checkpoint file:  "BH10_330_reverse_mol3.chk"
 Charge =  0 Multiplicity = 1

                         Standard orientation:
 ---------------------------------------------------------------------
 Center     Atomic      Atomic             Coordinates (Angstroms)
 Number     Number       Type             X           Y           Z
 ---------------------------------------------------------------------
      1          6           0        1.724889   -1.255180   -0.000010
      2          6           0        1.397623    0.106163    0.000000
      3          6           0        2.422339    1.055301    0.000000
      4          6           0        3.748632    0.662845   -0.000008
      5          6           0        4.047088   -0.708937   -0.000023
      6          6           0        3.054236   -1.667878   -0.000023
      7          1           0        2.176561    2.111535    0.000002
      8          1           0        5.085361   -1.022510   -0.000037
      9          1           0        3.307299   -2.721006   -0.000038
     10          6           0       -0.038729    0.319260    0.000004
     11          6           0       -0.735205    1.537033    0.000012
     12          6           0       -0.728670   -0.887971   -0.000003
     13          6           0       -2.114649    1.501936    0.000014
     14          1           0       -0.190869    2.469381    0.000016
     15          6           0       -2.128515   -0.911377   -0.000001
     16          6           0       -2.815977    0.283582    0.000008
     17          1           0       -3.894956    0.326608    0.000013
     18         16           0        0.312618   -2.296874   -0.000015
     19          8           0       -2.699691   -2.138058   -0.000005
     20          8           0       -2.910043    2.605571    0.000022
     21          6           0        4.862358    1.674900    0.000033
     22          1           0        5.499638    1.560292   -0.880299
     23          1           0        4.471428    2.693015   -0.000336
     24          1           0        5.499148    1.560750    0.880783
     25          6           0       -4.111741   -2.219052   -0.000049
     26          1           0       -4.351011   -3.279647   -0.000081
     27          1           0       -4.533219   -1.749567    0.893334
     28          1           0       -4.533166   -1.749523   -0.893433
     29          6           0       -2.287918    3.872861    0.000048
     30          1           0       -1.670951    4.012712   -0.893005
     31          1           0       -3.092899    4.604263    0.000065
     32          1           0       -1.670949    4.012673    0.893106
 ---------------------------------------------------------------------

 SCF Done:  E(RHF) =  -1124.30696573     A.U. after    2 cycles

 The electronic state is 1-A.
 Alpha  occ. eigenvalues --  -93.96219 -20.57928 -20.57405 -11.31677 -11.31067
 Alpha  occ. eigenvalues --  -11.29707 -11.29572 -11.26868 -11.25756 -11.25555
 Alpha  occ. eigenvalues --  -11.24764 -11.24724 -11.24703 -11.24216 -11.24143
 Alpha  occ. eigenvalues --  -11.23576 -11.23275 -11.23182  -8.24352  -6.22138
 Alpha  occ. eigenvalues --   -6.22047  -6.21794  -1.50951  -1.50248  -1.20831
 Alpha  occ. eigenvalues --   -1.15219  -1.10487  -1.05531  -1.04064  -1.00120
 Alpha  occ. eigenvalues --   -0.99782  -0.95712  -0.94127  -0.92325  -0.86566
 Alpha  occ. eigenvalues --   -0.81861  -0.80821  -0.79564  -0.73377  -0.71731
 Alpha  occ. eigenvalues --   -0.68557  -0.68230  -0.66693  -0.66090  -0.65864
 Alpha  occ. eigenvalues --   -0.64346  -0.63484  -0.61866  -0.60344  -0.58858
 Alpha  occ. eigenvalues --   -0.58492  -0.56789  -0.56257  -0.55145  -0.54065
 Alpha  occ. eigenvalues --   -0.52514  -0.51859  -0.51443  -0.50782  -0.50267
 Alpha  occ. eigenvalues --   -0.49568  -0.46906  -0.46039  -0.42264  -0.37747
 Alpha  occ. eigenvalues --   -0.33724  -0.30446  -0.28431
 Alpha virt. eigenvalues --    0.02858   0.03246   0.03638   0.03867   0.04414
 Alpha virt. eigenvalues --    0.04570   0.05315   0.05543   0.06125   0.06190
 Alpha virt. eigenvalues --    0.07112   0.07551   0.08170   0.08388   0.09224

 Mulliken charges:
               1
     1  C   -0.774489
     2  C   -1.043920
     3  C    0.910839
     4  C    0.249697
     5  C    0.800800
     6  C    0.082938
     7  H   -0.179881
     8  H   -0.339837
     9  H   -0.254516
    10  C    0.799309
    11  C    0.636503
    12  C   -0.585847
    13  C    1.499904
    14  H   -0.345754
    15  C    1.326700
    16  C    0.356088
    17  H   -0.481989
    18  S    0.664043
    19  O   -2.016684
    20  O   -2.037036
    21  C   -0.744241
    22  H    0.252550
    23  H    0.003956
    24  H    0.252725
    25  C    0.166152
    26  H   -0.058506
    27  H    0.201164
    28  H    0.201162
    29  C    0.151078
    30  H    0.194198
    31  H   -0.081302
    32  H    0.194197
 Sum of Mulliken charges =  -0.00000

 Dipole moment (field-independent basis, Debye):
    X=             -0.2209    Y=              2.2010    Z=              0.0000  Tot=              2.2121

 Test job not archived.
 1\1\GINC-SE219\SP\RHF\Aug-CC-pVDZ\C15H14O2S1\OHZDE\09-Apr-2025\0\\#t h
 f aug-cc-pvdz iop(5/13=1,5/36=2,99/5=2) pseudo=read geom=check guess=(
 read,tcheck) scf=(maxcycle=1)\\title\\0,1\C,0,1.724889,-1.25518,-0.000
 01\C,0,1.397623,0.106163,0.\C,0,2.422339,1.055301,0.\C,0,3.748632,0.66
 2845,-0.000008\C,0,4.047088,-0.708937,-0.000023\C,0,3.054236,-1.667878
 ,-0.000023\H,0,2.176561,2.111535,0.000002\H,0,5.085361,-1.02251,-0.000
 037\H,0,3.307299,-2.721006,-0.000038\C,0,-0.038729,0.31926,0.000004\C,
 0,-0.735205,1.537033,0.000012\C,0,-0.72867,-0.887971,-0.000003\C,0,-2.

 Normal termination of Gaussian 16 at Wed Apr  9 01:55:27 2025.
