 Gaussian 16, Revision C.01,

 ----------------------------------------------------------------------
 #t hf aug-cc-pvdz symm=none int=(grid=ultrafine) guess=(read,tcheck) s
 table=(opt,rrhf)
 ----------------------------------------------------------------------
 -----
 title
 -----
 Symbolic Z-matrix:
 Charge =  0 Multiplicity = 1

 SCF Done:  E(RHF) =  -628.258435845     A.U. after   15 cycles
 Normal termination of Gaussian 16 at Wed Apr  9 00:59:27 2025.
 Gaussian 16:  ES64L-G16RevC.01  3-Jul-2019

 ----------------------------------------------------------------------
 #t hf aug-cc-pvdz iop(5/13=1,5/36=2,99/5=2) pseudo=read geom=check gue
 ss=(read,tcheck) scf=(maxcycle=1)
 ----------------------------------------------------------------------
 -----
 title
 -----
 Structure from the checkpoint file:  "BH10_174_reverse_mol3.chk"
 Charge =  0 Multiplicity = 1

                         Standard orientation:
 ---------------------------------------------------------------------
 Center     Atomic      Atomic             Coordinates (Angstroms)
 Number     Number       Type             X           Y           Z
 ---------------------------------------------------------------------
      1          6           0        2.284159    0.005656   -0.000508
      2          6           0        1.586465   -1.194551    0.001167
      3          6           0        0.200280   -1.202467    0.003772
      4          6           0       -0.504142   -0.001277    0.002097
      5          6           0        0.193273    1.202966   -0.002724
      6          6           0        1.580506    1.201488   -0.001293
      7         16           0       -2.279257   -0.083009   -0.006248
      8          1           0        3.366837    0.008667   -0.000780
      9          1           0        2.123446   -2.135460    0.002492
     10          1           0       -0.336095   -2.143950    0.009423
     11          1           0       -0.342556    2.144570   -0.007542
     12          1           0        2.112389    2.145370   -0.002953
     13          1           0       -2.499156    1.238056    0.084272
 ---------------------------------------------------------------------

 SCF Done:  E(RHF) =  -628.556193531     A.U. after    2 cycles

 The electronic state is 1-A.
 Alpha  occ. eigenvalues --  -93.96408 -11.28416 -11.25140 -11.25089 -11.25000
 Alpha  occ. eigenvalues --  -11.24841 -11.24399  -8.24537  -6.22396  -6.22244
 Alpha  occ. eigenvalues --   -6.22007  -1.17513  -1.07595  -1.02865  -0.97228
 Alpha  occ. eigenvalues --   -0.84893  -0.82308  -0.71858  -0.66350  -0.64766
 Alpha  occ. eigenvalues --   -0.61074  -0.59300  -0.53839  -0.53455  -0.51496
 Alpha  occ. eigenvalues --   -0.48039  -0.42634  -0.35699  -0.31812
 Alpha virt. eigenvalues --    0.03412   0.03569   0.04034   0.05186   0.05718
 Alpha virt. eigenvalues --    0.07798   0.08686   0.09646   0.10319   0.11528
 Alpha virt. eigenvalues --    0.11802   0.13027   0.13653   0.13775   0.14128

 Mulliken charges:
               1
     1  C   -0.093755
     2  C    0.286826
     3  C   -0.366659
     4  C    0.422598
     5  C    0.193963
     6  C    0.513501
     7  S   -0.117652
     8  H   -0.208287
     9  H   -0.216061
    10  H   -0.214473
    11  H   -0.284904
    12  H   -0.218720
    13  H    0.303624
 Sum of Mulliken charges =  -0.00000

 Dipole moment (field-independent basis, Debye):
    X=              1.0252    Y=              0.8634    Z=              0.0604  Tot=              1.3417

 Test job not archived.
 1\1\GINC-SE227\SP\RHF\Aug-CC-pVDZ\C6H6S1\OHZDE\09-Apr-2025\0\\#t hf au
 g-cc-pvdz iop(5/13=1,5/36=2,99/5=2) pseudo=read geom=check guess=(read
 ,tcheck) scf=(maxcycle=1)\\title\\0,1\C,0,2.284159,0.005656,-0.000508\
 C,0,1.586465,-1.194551,0.001167\C,0,0.20028,-1.202467,0.003772\C,0,-0.
 504142,-0.001277,0.002097\C,0,0.193273,1.202966,-0.002724\C,0,1.580506
 ,1.201488,-0.001293\S,0,-2.279257,-0.083009,-0.006248\H,0,3.366837,0.0
 08667,-0.00078\H,0,2.123446,-2.13546,0.002492\H,0,-0.336095,-2.14395,0
 .009423\H,0,-0.342556,2.14457,-0.007542\H,0,2.112389,2.14537,-0.002953

 Normal termination of Gaussian 16 at Wed Apr  9 00:59:32 2025.
