 Gaussian 16, Revision C.01,

 ----------------------------------------------------------------------
 #t hf aug-cc-pvdz symm=none int=(grid=ultrafine) guess=(read,tcheck) s
 table=(opt,rrhf)
 ----------------------------------------------------------------------
 -----
 title
 -----
 Symbolic Z-matrix:
 Charge = -1 Multiplicity = 1

 SCF Done:  E(RHF) =  -1619.45428218     A.U. after   15 cycles
 Normal termination of Gaussian 16 at Wed Apr  9 02:06:50 2025.
 Gaussian 16:  ES64L-G16RevC.01  3-Jul-2019

 ----------------------------------------------------------------------
 #t hf aug-cc-pvdz iop(5/13=1,5/36=2,99/5=2) pseudo=read geom=check gue
 ss=(read,tcheck) scf=(maxcycle=1)
 ----------------------------------------------------------------------
 -----
 title
 -----
 Structure from the checkpoint file:  "BH10_326_forward_mol1.chk"
 Charge = -1 Multiplicity = 1

                         Standard orientation:
 ---------------------------------------------------------------------
 Center     Atomic      Atomic             Coordinates (Angstroms)
 Number     Number       Type             X           Y           Z
 ---------------------------------------------------------------------
      1          7           0       -3.362127   -1.690786    1.455408
      2          6           0       -2.219146   -1.173149    1.886744
      3          7           0       -1.649336   -0.201174    1.122562
      4          6           0       -2.515961   -0.088520    0.086329
      5          6           0       -3.564054   -0.999668    0.290448
      6          6           0       -4.565027   -1.049066   -0.668263
      7          7           0       -2.466252    0.717948   -0.995735
      8          6           0       -3.481847    0.572368   -1.832222
      9          7           0       -4.522851   -0.263572   -1.729576
     10          6           0        0.763493   -0.334856    0.591134
     11          6           0        1.224458    0.535101    1.735791
     12          8           0        0.747555    0.254781   -0.526972
     13          1           0        0.462831   -1.365051    0.637997
     14          6           0        1.248611    1.948932    1.081424
     15          6           0        1.314399    1.627731   -0.413814
     16          6           0        0.558933    2.509836   -1.380040
     17          1           0        2.351468    1.493478   -0.736958
     18          8           0        2.769334   -1.426034    0.428693
     19         15           0        3.884546   -1.076932   -0.512864
     20          8           0        3.966966    0.291910   -1.126765
     21          8           0        5.266897   -1.430261    0.277144
     22          8           0        3.936865   -2.164259   -1.744958
     23          8           0       -0.767263    2.786945   -0.993686
     24          1           0        0.598365    2.044199   -2.370824
     25          1           0        1.090762    3.462936   -1.441904
     26          1           0       -1.354212    1.978383   -1.081018
     27          8           0        0.144128    2.712326    1.491977
     28          1           0        2.159508    2.473132    1.377623
     29          1           0       -0.445837    2.848272    0.726100
     30          8           0        0.463673    0.434299    2.888936
     31          1           0        2.235126    0.198430    1.961187
     32          1           0       -0.427511    0.723706    2.635538
     33          1           0       -1.744592   -1.502029    2.802473
     34          1           0       -3.475618    1.210488   -2.710231
     35          1           0        6.022331   -1.082885   -0.205330
     36          1           0        3.777257   -1.693939   -2.567595
     37          8           0       -5.606443   -1.894429   -0.549331
     38          1           0       -5.470953   -2.386554    0.271809
 ---------------------------------------------------------------------

 SCF Done:  E(RHF) =  -1620.76661306     A.U. after    2 cycles

 The electronic state is 1-A.
 Alpha  occ. eigenvalues --  -84.30257 -20.53800 -20.49639 -20.45765 -20.45589
 Alpha  occ. eigenvalues --  -20.45222 -20.44576 -20.44372 -20.37261 -20.36974
 Alpha  occ. eigenvalues --  -15.40481 -15.39503 -15.37824 -15.37706 -11.30552
 Alpha  occ. eigenvalues --  -11.25323 -11.21781 -11.21576 -11.21327 -11.21113
 Alpha  occ. eigenvalues --  -11.20880 -11.19014 -11.18796 -11.13922  -6.75029
 Alpha  occ. eigenvalues --   -4.29185  -4.28658  -4.28287  -1.48903  -1.42041
 Alpha  occ. eigenvalues --   -1.39777  -1.37872  -1.36309  -1.34052  -1.33216
 Alpha  occ. eigenvalues --   -1.26913  -1.23086  -1.22691  -1.18103  -1.09722
 Alpha  occ. eigenvalues --   -1.03472  -0.98915  -0.95658  -0.93623  -0.83830
 Alpha  occ. eigenvalues --   -0.81777  -0.79109  -0.75982  -0.73370  -0.72541
 Alpha  occ. eigenvalues --   -0.69691  -0.68157  -0.67251  -0.64632  -0.63789
 Alpha  occ. eigenvalues --   -0.62483  -0.60871  -0.59668  -0.59417  -0.56427
 Alpha  occ. eigenvalues --   -0.55991  -0.55131  -0.54982  -0.54338  -0.52901
 Alpha  occ. eigenvalues --   -0.52465  -0.51935  -0.50647  -0.49979  -0.49280
 Alpha  occ. eigenvalues --   -0.48957  -0.48432  -0.47889  -0.46162  -0.45727
 Alpha  occ. eigenvalues --   -0.44531  -0.42971  -0.42417  -0.41882  -0.41080
 Alpha  occ. eigenvalues --   -0.40113  -0.39193  -0.38656  -0.38327  -0.36657
 Alpha  occ. eigenvalues --   -0.35816  -0.35524  -0.34613  -0.34252  -0.33584
 Alpha  occ. eigenvalues --   -0.32806  -0.31952  -0.29976  -0.28748  -0.22265
 Alpha virt. eigenvalues --    0.10794   0.11150   0.11432   0.11830   0.12211
 Alpha virt. eigenvalues --    0.12840   0.12985   0.13435   0.14360   0.15025
 Alpha virt. eigenvalues --    0.15277   0.15820   0.16282   0.17134   0.17773

 Mulliken charges:
               1
     1  N    1.208869
     2  C   -1.378146
     3  N    1.830554
     4  C   -2.457174
     5  C   -0.349633
     6  C   -0.243820
     7  N    1.628665
     8  C   -0.722187
     9  N    1.535671
    10  C    1.397510
    11  C    1.466825
    12  O   -1.609409
    13  H   -0.162322
    14  C    1.497049
    15  C   -0.680436
    16  C    0.941688
    17  H    0.073201
    18  O   -1.870113
    19  P    4.739783
    20  O   -1.761536
    21  O   -1.231648
    22  O   -1.328991
    23  O   -1.723414
    24  H    0.230714
    25  H    0.116836
    26  H    0.973059
    27  O   -1.599750
    28  H    0.204835
    29  H    0.507828
    30  O   -1.708190
    31  H    0.180050
    32  H    0.432706
    33  H   -0.297360
    34  H   -0.187508
    35  H    0.275736
    36  H    0.320997
    37  O   -1.543794
    38  H    0.292854
 Sum of Mulliken charges =  -1.00000

 Dipole moment (field-independent basis, Debye):
    X=              1.5715    Y=              2.6327    Z=             -1.7283  Tot=              3.5196

 Test job not archived.
 1\1\GINC-SE128\SP\RHF\Aug-CC-pVDZ\C10H14N4O9P1(1-)\OHZDE\09-Apr-2025\0
 \\#t hf aug-cc-pvdz iop(5/13=1,5/36=2,99/5=2) pseudo=read geom=check g
 uess=(read,tcheck) scf=(maxcycle=1)\\title\\-1,1\N,0,-3.362127,-1.6907
 86,1.455408\C,0,-2.219146,-1.173149,1.886744\N,0,-1.649336,-0.201174,1
 .122562\C,0,-2.515961,-0.08852,0.086329\C,0,-3.564054,-0.999668,0.2904
 48\C,0,-4.565027,-1.049066,-0.668263\N,0,-2.466252,0.717948,-0.995735\
 C,0,-3.481847,0.572368,-1.832222\N,0,-4.522851,-0.263572,-1.729576\C,0
 ,0.763493,-0.334856,0.591134\C,0,1.224458,0.535101,1.735791\O,0,0.7475

 Normal termination of Gaussian 16 at Wed Apr  9 02:08:29 2025.
