 Gaussian 16, Revision C.01,

 ----------------------------------------------------------------------
 #t hf aug-cc-pvdz symm=none int=(grid=ultrafine) guess=(read,tcheck) s
 table=(opt,rrhf)
 ----------------------------------------------------------------------
 -----
 title
 -----
 Symbolic Z-matrix:
 Charge =  0 Multiplicity = 1

 SCF Done:  E(RHF) =  -404.463937047     A.U. after   15 cycles
 Normal termination of Gaussian 16 at Wed Apr  9 00:59:31 2025.
 Gaussian 16:  ES64L-G16RevC.01  3-Jul-2019

 ----------------------------------------------------------------------
 #t hf aug-cc-pvdz iop(5/13=1,5/36=2,99/5=2) pseudo=read geom=check gue
 ss=(read,tcheck) scf=(maxcycle=1)
 ----------------------------------------------------------------------
 -----
 title
 -----
 Structure from the checkpoint file:  "BH10_173_forward_mol2.chk"
 Charge =  0 Multiplicity = 1

                         Standard orientation:
 ---------------------------------------------------------------------
 Center     Atomic      Atomic             Coordinates (Angstroms)
 Number     Number       Type             X           Y           Z
 ---------------------------------------------------------------------
      1          1           0        3.116786   -0.788260    0.000560
      2          8           0        2.735639    0.093683    0.000440
      3          6           0        1.373199    0.017748    0.000224
      4          6           0        0.668712    1.215805    0.000100
      5          6           0       -0.716148    1.204908   -0.000127
      6          6           0       -1.376998   -0.007949   -0.000224
      7          6           0       -0.698956   -1.207093   -0.000104
      8          6           0        0.690067   -1.191393    0.000121
      9          1           0        1.238308   -2.127366    0.000215
     10          1           0       -1.285478    2.125134   -0.000227
     11          1           0        1.218927    2.147554    0.000183
     12          1           0       -1.250748   -2.137793   -0.000186
     13          9           0       -2.729130   -0.017877   -0.000445
 ---------------------------------------------------------------------

 SCF Done:  E(RHF) =  -404.864800903     A.U. after    2 cycles

 The electronic state is 1-A.
 Alpha  occ. eigenvalues --  -26.47065 -20.58610 -11.32726 -11.31490 -11.25907
 Alpha  occ. eigenvalues --  -11.25772 -11.25658 -11.25117  -1.59978  -1.50127
 Alpha  occ. eigenvalues --   -1.16967  -1.04360  -1.01817  -0.88340  -0.84687
 Alpha  occ. eigenvalues --   -0.75979  -0.74107  -0.70923  -0.66942  -0.64543
 Alpha  occ. eigenvalues --   -0.62708  -0.62210  -0.59718  -0.58909  -0.56016
 Alpha  occ. eigenvalues --   -0.51814  -0.49516  -0.36888  -0.32743
 Alpha virt. eigenvalues --    0.02844   0.03900   0.04156   0.05442   0.06310
 Alpha virt. eigenvalues --    0.08913   0.10136   0.10632   0.12112   0.12898
 Alpha virt. eigenvalues --    0.13404   0.13583   0.13795   0.13917   0.14736

 Mulliken charges:
               1
     1  H    0.406440
     2  O   -1.744966
     3  C    1.758967
     4  C    0.284727
     5  C    0.074136
     6  C    1.122347
     7  C   -0.098309
     8  C    0.052853
     9  H   -0.305002
    10  H   -0.179514
    11  H   -0.210327
    12  H   -0.172983
    13  F   -0.988369
 Sum of Mulliken charges =  -0.00000

 Dipole moment (field-independent basis, Debye):
    X=              1.5282    Y=             -1.3049    Z=              0.0003  Tot=              2.0095

 Test job not archived.
 1\1\GINC-SE099\SP\RHF\Aug-CC-pVDZ\C6H5F1O1\OHZDE\09-Apr-2025\0\\#t hf
 aug-cc-pvdz iop(5/13=1,5/36=2,99/5=2) pseudo=read geom=check guess=(re
 ad,tcheck) scf=(maxcycle=1)\\title\\0,1\H,0,3.116786,-0.78826,0.00056\
 O,0,2.735639,0.093683,0.00044\C,0,1.373199,0.017748,0.000224\C,0,0.668
 712,1.215805,0.0001\C,0,-0.716148,1.204908,-0.000127\C,0,-1.376998,-0.
 007949,-0.000224\C,0,-0.698956,-1.207093,-0.000104\C,0,0.690067,-1.191
 393,0.000121\H,0,1.238308,-2.127366,0.000215\H,0,-1.285478,2.125134,-0
 .000227\H,0,1.218927,2.147554,0.000183\H,0,-1.250748,-2.137793,-0.0001

 Normal termination of Gaussian 16 at Wed Apr  9 00:59:35 2025.
