 Gaussian 16, Revision C.01,

 ----------------------------------------------------------------------
 #t hf aug-cc-pvdz symm=none int=(grid=ultrafine) guess=(read,tcheck) s
 table=(opt,rrhf)
 ----------------------------------------------------------------------
 -----
 title
 -----
 Symbolic Z-matrix:
 Charge =  1 Multiplicity = 1

 SCF Done:  E(RHF) =  -730.113031817     A.U. after   16 cycles
 Normal termination of Gaussian 16 at Wed Apr  9 01:06:34 2025.
 Gaussian 16:  ES64L-G16RevC.01  3-Jul-2019

 ----------------------------------------------------------------------
 #t hf aug-cc-pvdz iop(5/13=1,5/36=2,99/5=2) pseudo=read geom=check gue
 ss=(read,tcheck) scf=(maxcycle=1)
 ----------------------------------------------------------------------
 -----
 title
 -----
 Structure from the checkpoint file:  "BH10_267_reverse_mol2.chk"
 Charge =  1 Multiplicity = 1

                         Standard orientation:
 ---------------------------------------------------------------------
 Center     Atomic      Atomic             Coordinates (Angstroms)
 Number     Number       Type             X           Y           Z
 ---------------------------------------------------------------------
      1          6           0       -2.375677    1.221038    0.000211
      2          6           0       -3.756506    1.210191    0.000151
      3          6           0       -4.442594    0.000101    0.000123
      4          6           0       -3.758683   -1.211205    0.000153
      5          6           0       -2.377862   -1.224512    0.000223
      6          6           0       -1.692664   -0.002367    0.000274
      7          1           0       -1.828303    2.154740    0.000238
      8          1           0       -4.301392    2.144944    0.000113
      9          1           0       -5.525544    0.001073    0.000069
     10          1           0       -4.305247   -2.144969    0.000124
     11          1           0       -1.832226   -2.159207    0.000243
     12          6           0       -0.283384   -0.003410    0.000401
     13          7           0        0.865286   -0.003691    0.000446
     14         14           0        2.728636    0.000191   -0.000030
     15          6           0        3.146979   -0.814678    1.606683
     16          1           0        2.765603   -1.836276    1.656250
     17          1           0        4.233734   -0.865843    1.716400
     18          1           0        2.757432   -0.255838    2.459514
     19          6           0        3.144478   -0.981034   -1.511624
     20          1           0        2.753911   -0.515857   -2.418514
     21          1           0        4.231074   -1.043979   -1.616657
     22          1           0        2.762992   -2.002046   -1.451735
     23          6           0        3.122459    1.805039   -0.096409
     24          1           0        2.732563    2.353224    0.763235
     25          1           0        4.207607    1.939239   -0.104622
     26          1           0        2.730613    2.258998   -1.008475
 ---------------------------------------------------------------------

 SCF Done:  E(RHF) =  -730.603991647     A.U. after    2 cycles

 The electronic state is 1-A.
 Alpha  occ. eigenvalues --  -69.69760 -15.72614 -11.52555 -11.43319 -11.41686
 Alpha  occ. eigenvalues --  -11.41681 -11.40204 -11.38881 -11.38863 -11.34685
 Alpha  occ. eigenvalues --  -11.34603 -11.34591  -6.36545  -4.11981  -4.11747
 Alpha  occ. eigenvalues --   -4.11743  -1.46877  -1.32827  -1.21090  -1.18219
 Alpha  occ. eigenvalues --   -1.13067  -1.07113  -1.07046  -1.04858  -0.99923
 Alpha  occ. eigenvalues --   -0.97835  -0.91235  -0.83936  -0.81946  -0.77897
 Alpha  occ. eigenvalues --   -0.77140  -0.76265  -0.74748  -0.74663  -0.70802
 Alpha  occ. eigenvalues --   -0.70489  -0.68846  -0.68382  -0.68102  -0.67777
 Alpha  occ. eigenvalues --   -0.67442  -0.66587  -0.66250  -0.59301  -0.59238
 Alpha  occ. eigenvalues --   -0.51386  -0.50266
 Alpha virt. eigenvalues --   -0.10290  -0.07319  -0.05632  -0.05103  -0.04640
 Alpha virt. eigenvalues --   -0.04547  -0.04315  -0.04035  -0.03986  -0.03564
 Alpha virt. eigenvalues --   -0.02502  -0.02109  -0.01988  -0.01603  -0.01472

 Mulliken charges:
               1
     1  C    0.302562
     2  C    0.124041
     3  C    0.211063
     4  C    0.074680
     5  C    0.152514
     6  C    2.952075
     7  H   -0.281593
     8  H   -0.203796
     9  H   -0.187361
    10  H   -0.207763
    11  H   -0.278752
    12  C   -3.829370
    13  N    1.348901
    14  Si   2.505811
    15  C   -0.620131
    16  H    0.029677
    17  H   -0.005579
    18  H    0.033924
    19  C   -0.618195
    20  H    0.031936
    21  H   -0.003734
    22  H    0.029342
    23  C   -0.622564
    24  H    0.036231
    25  H   -0.009990
    26  H    0.036069
 Sum of Mulliken charges =   1.00000

 Dipole moment (field-independent basis, Debye):
    X=             -1.0508    Y=              0.0018    Z=             -0.0006  Tot=              1.0508

 Test job not archived.
 1\1\GINC-SE159\SP\RHF\Aug-CC-pVDZ\C10H14N1Si1(1+)\OHZDE\09-Apr-2025\0\
 \#t hf aug-cc-pvdz iop(5/13=1,5/36=2,99/5=2) pseudo=read geom=check gu
 ess=(read,tcheck) scf=(maxcycle=1)\\title\\1,1\C,0,2.37557,1.21093,-0.
 15906\C,0,3.7564,1.20031,-0.1576\C,0,4.4426,0.00055,-0.00031\C,0,3.758
 8,-1.20055,0.15709\C,0,2.37798,-1.21388,0.15876\C,0,1.69267,-0.00217,-
 0.00012\H,0,1.82811,2.13666,-0.28043\H,0,4.3012,2.12719,-0.27905\H,0,5
 .52555,0.00162,-0.00039\H,0,4.30545,-2.12634,0.27847\H,0,1.83243,-2.14
 07,0.28022\C,0,0.28339,-0.00335,-0.0001\N,0,-0.86528,-0.00374,-0.0001\

 Normal termination of Gaussian 16 at Wed Apr  9 01:06:55 2025.
