 Gaussian 16, Revision C.01,

 ----------------------------------------------------------------------
 #t hf aug-cc-pvdz symm=none int=(grid=ultrafine) guess=(read,tcheck) s
 table=(opt,rrhf)
 ----------------------------------------------------------------------
 -----
 title
 -----
 Symbolic Z-matrix:
 Charge =  0 Multiplicity = 1

 SCF Done:  E(RHF) =  -683.303179116     A.U. after   15 cycles
 Normal termination of Gaussian 16 at Wed Apr  9 01:00:46 2025.
 Gaussian 16:  ES64L-G16RevC.01  3-Jul-2019

 ----------------------------------------------------------------------
 #t hf aug-cc-pvdz iop(5/13=1,5/36=2,99/5=2) pseudo=read geom=check gue
 ss=(read,tcheck) scf=(maxcycle=1)
 ----------------------------------------------------------------------
 -----
 title
 -----
 Structure from the checkpoint file:  "BH10_184_reverse_mol3.chk"
 Charge =  0 Multiplicity = 1

                         Standard orientation:
 ---------------------------------------------------------------------
 Center     Atomic      Atomic             Coordinates (Angstroms)
 Number     Number       Type             X           Y           Z
 ---------------------------------------------------------------------
      1          6           0       -1.835649   -0.000000    0.013038
      2          6           0       -1.121767   -1.200378    0.005299
      3          6           0        0.261928   -1.196702   -0.010276
      4          6           0        0.971284    0.000000   -0.007298
      5          6           0        0.261928    1.196702   -0.010276
      6          6           0       -1.121767    1.200378    0.005298
      7         16           0        2.759815    0.000000   -0.077669
      8          1           0       -1.657916   -2.142940    0.011042
      9          1           0        0.801714   -2.135223   -0.025071
     10          1           0        0.801714    2.135223   -0.025070
     11          1           0       -1.657916    2.142940    0.011041
     12          7           0       -3.222700   -0.000000    0.073403
     13          1           0       -3.684799    0.840892   -0.233378
     14          1           0       -3.684799   -0.840890   -0.233385
     15          1           0        2.988126   -0.000005    1.248995
 ---------------------------------------------------------------------

 SCF Done:  E(RHF) =  -683.658294615     A.U. after    2 cycles

 The electronic state is 1-A.
 Alpha  occ. eigenvalues --  -93.94885 -15.51701 -11.29343 -11.25868 -11.25175
 Alpha  occ. eigenvalues --  -11.25174 -11.23743 -11.23739  -8.22914  -6.20769
 Alpha  occ. eigenvalues --   -6.20626  -6.20412  -1.23597  -1.15180  -1.04832
 Alpha  occ. eigenvalues --   -1.02676  -0.95273  -0.85716  -0.82267  -0.73839
 Alpha  occ. eigenvalues --   -0.73199  -0.65504  -0.63331  -0.61987  -0.60418
 Alpha  occ. eigenvalues --   -0.56787  -0.55525  -0.51151  -0.49154  -0.46095
 Alpha  occ. eigenvalues --   -0.37039  -0.35630  -0.31814
 Alpha virt. eigenvalues --    0.02651   0.03871   0.04364   0.05263   0.05305
 Alpha virt. eigenvalues --    0.06573   0.08697   0.08820   0.09740   0.10253
 Alpha virt. eigenvalues --    0.10905   0.11984   0.13104   0.13327   0.13679

 Mulliken charges:
               1
     1  C   -1.716488
     2  C    0.874397
     3  C   -0.166802
     4  C    0.102537
     5  C   -0.166803
     6  C    0.874393
     7  S    0.013886
     8  H   -0.300380
     9  H   -0.203189
    10  H   -0.203189
    11  H   -0.300381
    12  N    0.862053
    13  H   -0.003798
    14  H   -0.003796
    15  H    0.337560
 Sum of Mulliken charges =  -0.00000

 Dipole moment (field-independent basis, Debye):
    X=             -2.7614    Y=             -0.0000    Z=             -0.0378  Tot=              2.7617

 Test job not archived.
 1\1\GINC-SE109\SP\RHF\Aug-CC-pVDZ\C6H7N1S1\OHZDE\09-Apr-2025\0\\#t hf
 aug-cc-pvdz iop(5/13=1,5/36=2,99/5=2) pseudo=read geom=check guess=(re
 ad,tcheck) scf=(maxcycle=1)\\title\\0,1\C,0,-1.835649,0.,0.013038\C,0,
 -1.121767,-1.200378,0.005299\C,0,0.261928,-1.196702,-0.010276\C,0,0.97
 1284,0.,-0.007298\C,0,0.261928,1.196702,-0.010276\C,0,-1.121767,1.2003
 78,0.005298\S,0,2.759815,0.,-0.077669\H,0,-1.657916,-2.14294,0.011042\
 H,0,0.801714,-2.135223,-0.025071\H,0,0.801714,2.135223,-0.02507\H,0,-1
 .657916,2.14294,0.011041\N,0,-3.2227,0.,0.073403\H,0,-3.684799,0.84089

 Normal termination of Gaussian 16 at Wed Apr  9 01:00:53 2025.
