 Gaussian 16, Revision C.01,

 ----------------------------------------------------------------------
 #t hf aug-cc-pvdz symm=none int=(grid=ultrafine) guess=(read,tcheck) s
 table=opt
 ----------------------------------------------------------------------
 -----
 title
 -----
 Symbolic Z-matrix:
 Charge =  0 Multiplicity = 2

 SCF Done:  E(UHF) =  -1028.98303007     A.U. after   17 cycles
 Normal termination of Gaussian 16 at Wed Apr  9 01:14:46 2025.
 Gaussian 16:  ES64L-G16RevC.01  3-Jul-2019

 ----------------------------------------------------------------------
 #t hf aug-cc-pvdz iop(5/13=1,5/36=2,99/5=2) pseudo=read geom=check gue
 ss=(read,tcheck) scf=(maxcycle=1)
 ----------------------------------------------------------------------
 -----
 title
 -----
 Structure from the checkpoint file:  "BH10_204_reverse_mol2.chk"
 Charge =  0 Multiplicity = 2

                         Standard orientation:
 ---------------------------------------------------------------------
 Center     Atomic      Atomic             Coordinates (Angstroms)
 Number     Number       Type             X           Y           Z
 ---------------------------------------------------------------------
      1          7           0        1.706148    0.175150   -0.772175
      2         16           0        1.330046   -1.281217   -0.092272
      3          8           0       -0.087595   -0.984267    0.595569
      4          6           0       -1.207603   -0.686263   -0.265836
      5          6           0       -2.382233   -0.370759    0.634265
      6          1           0       -1.403175   -1.554732   -0.897032
      7          1           0       -0.946425    0.165640   -0.897222
      8          6           0       -3.626138   -0.110448   -0.139371
      9          1           0       -2.134717    0.490835    1.263658
     10          1           0       -2.520562   -1.215969    1.325914
     11          6           0       -4.778896    0.598428    0.477013
     12          1           0       -3.780460   -0.643481   -1.073452
     13          6           0        2.392210    1.280762   -0.051159
     14          6           0        3.851645    0.930868    0.247706
     15          6           0        1.635551    1.604726    1.234637
     16          6           0        2.321837    2.470264   -1.007393
     17          1           0        2.831458    2.248791   -1.949247
     18          1           0        2.812971    3.336383   -0.561096
     19          1           0        1.285443    2.730647   -1.227533
     20          1           0        3.918567    0.074722    0.917153
     21          1           0        4.351853    1.781531    0.715599
     22          1           0        4.386001    0.691443   -0.675254
     23          1           0        1.662850    0.773248    1.938251
     24          1           0        0.593228    1.846795    1.021111
     25          1           0        2.099209    2.468886    1.713227
     26          8           0        2.186041   -1.611079    1.016959
     27          8           0        1.139974   -2.185654   -1.203190
     28          6           0       -5.899817    0.916429   -0.507413
     29          1           0       -4.425955    1.521900    0.954378
     30          1           0       -5.184048   -0.006943    1.304485
     31          1           0       -5.540718    1.560233   -1.313408
     32          1           0       -6.729051    1.426024   -0.013419
     33          1           0       -6.292193    0.002775   -0.960418
     34          1           0        2.045252    0.018658   -1.713508
 ---------------------------------------------------------------------

 SCF Done:  E(UHF) =  -1029.70999588     A.U. after    2 cycles

 The electronic state is 2-A.
 Alpha  occ. eigenvalues --  -94.24737 -20.59961 -20.54388 -20.54134 -15.54058
 Alpha  occ. eigenvalues --  -11.30685 -11.29836 -11.24555 -11.24442 -11.24254
 Alpha  occ. eigenvalues --  -11.23808 -11.23252 -11.23036 -11.22799  -8.49091
 Alpha  occ. eigenvalues --   -6.47234  -6.47098  -6.46998  -1.60948  -1.48168
 Alpha  occ. eigenvalues --   -1.45046  -1.25688  -1.11202  -1.09355  -1.04164
 Alpha  occ. eigenvalues --   -0.96377  -0.95403  -0.94815  -0.88956  -0.85270
 Alpha  occ. eigenvalues --   -0.80900  -0.79976  -0.75846  -0.72947  -0.69059
 Alpha  occ. eigenvalues --   -0.68627  -0.66981  -0.64233  -0.63437  -0.62156
 Alpha  occ. eigenvalues --   -0.61356  -0.61265  -0.58583  -0.58175  -0.57353
 Alpha  occ. eigenvalues --   -0.56507  -0.55447  -0.53740  -0.53118  -0.52475
 Alpha  occ. eigenvalues --   -0.52349  -0.51708  -0.50824  -0.50246  -0.49793
 Alpha  occ. eigenvalues --   -0.48848  -0.48402  -0.47752  -0.46791  -0.44270
 Alpha  occ. eigenvalues --   -0.34596
 Alpha virt. eigenvalues --    0.02735   0.03052   0.03318   0.03741   0.04076
 Alpha virt. eigenvalues --    0.04457   0.04876   0.05727   0.06084   0.06307
 Alpha virt. eigenvalues --    0.06801   0.07152   0.07473   0.08646   0.09025

  Beta  occ. eigenvalues --  -94.24737 -20.59964 -20.54388 -20.54134 -15.54058
  Beta  occ. eigenvalues --  -11.30624 -11.29836 -11.24765 -11.24254 -11.24136
  Beta  occ. eigenvalues --  -11.23252 -11.23000 -11.22799 -11.22080  -8.49091
  Beta  occ. eigenvalues --   -6.47235  -6.47099  -6.46998  -1.60947  -1.48166
  Beta  occ. eigenvalues --   -1.45047  -1.25689  -1.09652  -1.08399  -1.04037
  Beta  occ. eigenvalues --   -0.96216  -0.95265  -0.93337  -0.88522  -0.85123
  Beta  occ. eigenvalues --   -0.80707  -0.77332  -0.75056  -0.72782  -0.69002
  Beta  occ. eigenvalues --   -0.68002  -0.66930  -0.63963  -0.62057  -0.61766
  Beta  occ. eigenvalues --   -0.61118  -0.60572  -0.58500  -0.57688  -0.57078
  Beta  occ. eigenvalues --   -0.55828  -0.55200  -0.53712  -0.52933  -0.52338
  Beta  occ. eigenvalues --   -0.52116  -0.51424  -0.50057  -0.49794  -0.49482
  Beta  occ. eigenvalues --   -0.48706  -0.48328  -0.47613  -0.46769  -0.44264
  Beta virt. eigenvalues --    0.02731   0.03066   0.03309   0.03756   0.04083
  Beta virt. eigenvalues --    0.04482   0.04878   0.05713   0.05966   0.06306
  Beta virt. eigenvalues --    0.06784   0.07159   0.07344   0.08560   0.08931

 Mulliken charges and spin densities:
               1          2
     1  N    0.399621  -0.000536
     2  S    4.499657   0.000489
     3  O   -1.828771   0.000471
     4  C    0.157069   0.056742
     5  C   -0.590465  -0.355689
     6  H    0.114468  -0.004294
     7  H    0.205773  -0.005882
     8  C    0.564167   1.580046
     9  H    0.152047   0.007281
    10  H    0.188315   0.039634
    11  C   -0.507035  -0.309179
    12  H   -0.218804  -0.075811
    13  C   -3.678025  -0.000206
    14  C    0.181793  -0.000039
    15  C    0.454550  -0.000154
    16  C    0.348258  -0.000053
    17  H    0.166823   0.000027
    18  H    0.217074  -0.000021
    19  H    0.225341  -0.000081
    20  H    0.236942  -0.000014
    21  H    0.275802   0.000000
    22  H    0.167373  -0.000011
    23  H    0.183502  -0.000077
    24  H    0.236399   0.000445
    25  H    0.156994  -0.000002
    26  O   -1.578563  -0.000019
    27  O   -1.469606  -0.000013
    28  C   -0.305517   0.013621
    29  H    0.200096   0.016024
    30  H    0.199190   0.040721
    31  H    0.181894   0.000015
    32  H    0.105715  -0.001502
    33  H    0.163650  -0.001927
    34  H    0.194273  -0.000004
 Sum of Mulliken charges =  -0.00000   1.00000

 Dipole moment (field-independent basis, Debye):
    X=             -1.7023    Y=              4.4628    Z=             -0.8984  Tot=              4.8602
                          Isotropic Fermi Contact Couplings
        Atom                 a.u.       MegaHertz       Gauss      10(-4) cm-1
     1  N(14)             -0.00010      -0.03131      -0.01117      -0.01044
     2  S(33)             -0.00037      -0.12830      -0.04578      -0.04280
     3  O(17)             -0.00284       1.71908       0.61341       0.57342
     4  C(13)              0.01523      17.12045       6.10900       5.71077
     5  C(13)             -0.05939     -66.76130     -23.82209     -22.26917
     6  H(1)              -0.00066      -2.96819      -1.05912      -0.99008
     7  H(1)              -0.00081      -3.61271      -1.28911      -1.20507
     8  C(13)              0.22457     252.46225      90.08481      84.21234

 1\1\GINC-SE424\SP\UHF\Aug-CC-pVDZ\C9H20N1O3S1(2)\OHZDE\09-Apr-2025\0\\
 #t hf aug-cc-pvdz iop(5/13=1,5/36=2,99/5=2) pseudo=read geom=check gue
 ss=(read,tcheck) scf=(maxcycle=1)\\title\\0,2\N,0,1.706148,0.17515,-0.
 772175\S,0,1.330046,-1.281217,-0.092272\O,0,-0.087595,-0.984267,0.5955
 69\C,0,-1.207603,-0.686263,-0.265836\C,0,-2.382233,-0.370759,0.634265\
 H,0,-1.403175,-1.554732,-0.897032\H,0,-0.946425,0.16564,-0.897222\C,0,
 -3.626138,-0.110448,-0.139371\H,0,-2.134717,0.490835,1.263658\H,0,-2.5
 20562,-1.215969,1.325914\C,0,-4.778896,0.598428,0.477013\H,0,-3.78046,

 Normal termination of Gaussian 16 at Wed Apr  9 01:15:32 2025.
