 Gaussian 16, Revision C.01,

 ----------------------------------------------------------------------
 #t hf aug-cc-pvdz symm=none int=(grid=ultrafine) guess=(read,tcheck) s
 table=opt
 ----------------------------------------------------------------------
 -----
 title
 -----
 Symbolic Z-matrix:
 Charge =  0 Multiplicity = 2

 SCF Done:  E(UHF) =  -2378.30361328     a.u. after   14 cycles
 Normal termination of Gaussian 16 at Wed Apr  9 01:32:20 2025.
 Gaussian 16:  ES64L-G16RevC.01  3-Jul-2019

 ----------------------------------------------------------------------
 #t hf aug-cc-pvdz iop(5/13=1,5/36=2,99/5=2) pseudo=read geom=check gue
 ss=(read,tcheck) scf=(maxcycle=1)
 ----------------------------------------------------------------------
 -----
 title
 -----
 Structure from the checkpoint file:  "BH10_167_forward_mol1.chk"
 Charge =  0 Multiplicity = 2

                         Standard orientation:
 ---------------------------------------------------------------------
 Center     Atomic      Atomic             Coordinates (Angstroms)
 Number     Number       Type             X           Y           Z
 ---------------------------------------------------------------------
      1          7           0       -1.487980    0.917013   -0.475854
      2          1           0       -0.547958    0.543186   -0.503194
      3          6           0       -2.601610   -0.003810   -0.650095
      4          1           0       -3.312256    0.475263   -1.333382
      5          6           0       -2.124951   -1.293847   -1.298988
      6          6           0       -3.392143   -0.309109    0.639887
      7          1           0       -2.976704   -1.959360   -1.431564
      8          1           0       -1.685265   -1.090434   -2.274627
      9         16           0       -0.932018   -2.238160   -0.297502
     10          8           0       -3.662136   -1.454277    0.945698
     11          1           0        0.228621   -1.831598   -1.087789
     12          7           0       -3.778220    0.772675    1.342060
     13          1           0       -3.656110    1.705919    0.963640
     14          1           0       -4.355220    0.621031    2.154051
     15          6           0       -1.633565    2.251271   -0.402048
     16          1           0       -0.674197    2.788405   -0.384513
     17          8           0       -2.707069    2.827485   -0.348310
     18          8           0        0.968939   -0.725899   -1.378379
     19          8           0        2.218166   -0.937505   -0.841319
     20          6           0        2.537649    0.029152    0.106230
     21         17           0        2.429185    1.667390   -0.590424
     22         17           0        1.462139   -0.078478    1.522314
     23         17           0        4.196870   -0.353032    0.550613
 ---------------------------------------------------------------------

 SCF Done:  E(UHF) =  -2379.17705770     A.U. after    2 cycles

 The electronic state is 2-A.
 Alpha  occ. eigenvalues -- -105.62688-105.62628-105.62004 -93.96686 -20.74026
 Alpha  occ. eigenvalues --  -20.71660 -20.53412 -20.51380 -15.55135 -15.51963
 Alpha  occ. eigenvalues --  -11.52852 -11.37762 -11.36217 -11.30914 -11.28955
 Alpha  occ. eigenvalues --  -10.67571 -10.67506 -10.66865  -8.24707  -7.84523
 Alpha  occ. eigenvalues --   -7.84460  -7.84061  -7.84057  -7.84021  -7.84006
 Alpha  occ. eigenvalues --   -7.83822  -7.83375  -7.83362  -6.23106  -6.22299
 Alpha  occ. eigenvalues --   -6.22039  -1.73666  -1.48282  -1.46581  -1.39945
 Alpha  occ. eigenvalues --   -1.27593  -1.22134  -1.20690  -1.11241  -1.10683
 Alpha  occ. eigenvalues --   -1.10254  -1.01613  -0.89835  -0.88830  -0.87942
 Alpha  occ. eigenvalues --   -0.82686  -0.81693  -0.77843  -0.76361  -0.76019
 Alpha  occ. eigenvalues --   -0.75932  -0.70982  -0.69937  -0.68877  -0.64825
 Alpha  occ. eigenvalues --   -0.63625  -0.63252  -0.60675  -0.60003  -0.59568
 Alpha  occ. eigenvalues --   -0.57725  -0.57004  -0.56515  -0.54104  -0.53537
 Alpha  occ. eigenvalues --   -0.52785  -0.50837  -0.50324  -0.49718  -0.48702
 Alpha  occ. eigenvalues --   -0.46933  -0.45805  -0.45120  -0.43393  -0.41534
 Alpha  occ. eigenvalues --   -0.38150
 Alpha virt. eigenvalues --    0.03464   0.04224   0.04411   0.05306   0.05682
 Alpha virt. eigenvalues --    0.06079   0.06787   0.07526   0.07852   0.07926
 Alpha virt. eigenvalues --    0.08851   0.09388   0.10488   0.11340   0.11732

  Beta  occ. eigenvalues -- -105.62697-105.62625-105.62000 -93.96320 -20.71525
  Beta  occ. eigenvalues --  -20.70246 -20.53412 -20.51363 -15.55142 -15.51963
  Beta  occ. eigenvalues --  -11.52868 -11.37762 -11.36219 -11.30913 -11.28984
  Beta  occ. eigenvalues --  -10.67580 -10.67503 -10.66862  -8.24298  -7.84551
  Beta  occ. eigenvalues --   -7.84449  -7.84076  -7.84060  -7.84014  -7.84007
  Beta  occ. eigenvalues --   -7.83808  -7.83375  -7.83359  -6.22141  -6.21858
  Beta  occ. eigenvalues --   -6.21343  -1.69170  -1.48281  -1.46549  -1.32926
  Beta  occ. eigenvalues --   -1.27590  -1.22130  -1.19540  -1.10843  -1.10241
  Beta  occ. eigenvalues --   -1.10094  -0.99996  -0.88830  -0.88125  -0.87363
  Beta  occ. eigenvalues --   -0.82370  -0.77782  -0.76591  -0.75421  -0.75315
  Beta  occ. eigenvalues --   -0.73017  -0.70922  -0.69328  -0.64795  -0.63348
  Beta  occ. eigenvalues --   -0.63178  -0.61596  -0.60402  -0.59354  -0.57530
  Beta  occ. eigenvalues --   -0.57365  -0.56909  -0.54004  -0.53376  -0.53266
  Beta  occ. eigenvalues --   -0.50719  -0.50162  -0.49881  -0.48723  -0.46836
  Beta  occ. eigenvalues --   -0.45826  -0.45140  -0.43454  -0.41549  -0.37158
  Beta virt. eigenvalues --   -0.00318   0.03494   0.04231   0.04414   0.05351
  Beta virt. eigenvalues --    0.05752   0.06105   0.06808   0.07594   0.07863
  Beta virt. eigenvalues --    0.07966   0.08941   0.09416   0.10581   0.11364

 Mulliken charges and spin densities:
               1          2
     1  N    1.480498  -0.002906
     2  H    0.232777  -0.013384
     3  C   -1.336501   0.003947
     4  H    0.148967   0.000425
     5  C   -0.165646  -0.048750
     6  C    0.311414   0.000885
     7  H    0.092467   0.001754
     8  H    0.049070   0.007785
     9  S   -0.057571   0.405798
    10  O   -1.283581   0.002080
    11  H    0.668971  -0.207703
    12  N    0.861771   0.000894
    13  H    0.012613  -0.000060
    14  H    0.106944   0.000010
    15  C    0.498923   0.000599
    16  H    0.052487   0.000875
    17  O   -1.227770  -0.000092
    18  O   -0.127150   0.867421
    19  O   -0.899195  -0.024233
    20  C    0.073981   0.010335
    21  Cl   0.156093   0.002150
    22  Cl   0.142367  -0.001278
    23  Cl   0.208071  -0.006550
 Sum of Mulliken charges =  -0.00000   1.00000

 Dipole moment (field-independent basis, Debye):
    X=              2.8367    Y=              1.5154    Z=             -1.5616  Tot=              3.5752
                          Isotropic Fermi Contact Couplings
        Atom                 a.u.       MegaHertz       Gauss      10(-4) cm-1
     1  N(14)             -0.00224      -0.72250      -0.25781      -0.24100
     2  H(1)               0.00024       1.07959       0.38523       0.36011
     3  C(13)              0.00015       0.16730       0.05970       0.05580
     4  H(1)              -0.00016      -0.70716      -0.25233      -0.23588
     5  C(13)             -0.00570      -6.41167      -2.28784      -2.13870
     6  C(13)             -0.00027      -0.29949      -0.10687      -0.09990
     7  H(1)               0.00371      16.57541       5.91452       5.52896
     8  H(1)               0.00247      11.05799       3.94577       3.68855

 Normal termination of Gaussian 16 at Wed Apr  9 01:32:49 2025.
