 Gaussian 16, Revision C.01,

 ----------------------------------------------------------------------
 #t hf aug-cc-pvdz symm=none int=(grid=ultrafine) guess=(read,tcheck) s
 table=(opt,rrhf)
 ----------------------------------------------------------------------
 -----
 title
 -----
 Symbolic Z-matrix:
 Charge =  0 Multiplicity = 1

 SCF Done:  E(RHF) =  -730.880638027     A.U. after   16 cycles
 Normal termination of Gaussian 16 at Wed Apr  9 01:06:48 2025.
 Gaussian 16:  ES64L-G16RevC.01  3-Jul-2019

 ----------------------------------------------------------------------
 #t hf aug-cc-pvdz iop(5/13=1,5/36=2,99/5=2) pseudo=read geom=check gue
 ss=(read,tcheck) scf=(maxcycle=1)
 ----------------------------------------------------------------------
 -----
 title
 -----
 Structure from the checkpoint file:  "BH10_267_forward_mol2.chk"
 Charge =  0 Multiplicity = 1

                         Standard orientation:
 ---------------------------------------------------------------------
 Center     Atomic      Atomic             Coordinates (Angstroms)
 Number     Number       Type             X           Y           Z
 ---------------------------------------------------------------------
      1          6           0       -2.518899    1.293054    0.108455
      2          6           0       -3.654872    0.551141    0.394266
      3          6           0       -3.637593   -0.828040    0.235813
      4          6           0       -2.482938   -1.459421   -0.210153
      5          6           0       -1.343465   -0.717292   -0.475264
      6          6           0       -1.345811    0.664947   -0.305011
      7          1           0       -2.533489    2.372426    0.215345
      8          1           0       -4.556049    1.048257    0.732048
      9          1           0       -4.526477   -1.409905    0.447603
     10          1           0       -2.474427   -2.532818   -0.356505
     11          1           0       -0.452267   -1.208270   -0.841533
     12          6           0       -0.149808    1.503527   -0.579916
     13          7           0        1.066950    1.204892   -0.485045
     14         14           0        2.101428   -0.079687    0.086022
     15          6           0        2.453358   -1.232724   -1.350611
     16          1           0        2.826142   -0.669428   -2.209029
     17          1           0        3.219352   -1.961675   -1.072509
     18          1           0        1.571033   -1.787918   -1.675554
     19          6           0        3.688391    0.754893    0.616829
     20          1           0        3.499814    1.468982    1.422222
     21          1           0        4.423503    0.029723    0.976208
     22          1           0        4.129543    1.306655   -0.215920
     23          6           0        1.415267   -1.011922    1.566353
     24          1           0        0.554032   -1.636173    1.328246
     25          1           0        2.192347   -1.656467    1.987341
     26          1           0        1.110274   -0.313932    2.350436
     27          1           0       -0.413743    2.522943   -0.901948
 ---------------------------------------------------------------------

 SCF Done:  E(RHF) =  -731.377903991     A.U. after    2 cycles

 The electronic state is 1-A.
 Alpha  occ. eigenvalues --  -69.52002 -15.46303 -11.29814 -11.25389 -11.25357
 Alpha  occ. eigenvalues --  -11.25247 -11.25139 -11.25087 -11.25060 -11.20515
 Alpha  occ. eigenvalues --  -11.20131 -11.19631  -6.18783  -3.94193  -3.94115
 Alpha  occ. eigenvalues --   -3.94078  -1.20509  -1.16163  -1.03805  -1.02992
 Alpha  occ. eigenvalues --   -0.97381  -0.92635  -0.92042  -0.88319  -0.84782
 Alpha  occ. eigenvalues --   -0.80561  -0.74037  -0.69050  -0.67046  -0.63887
 Alpha  occ. eigenvalues --   -0.62218  -0.61086  -0.59125  -0.56429  -0.56279
 Alpha  occ. eigenvalues --   -0.55272  -0.54607  -0.53556  -0.53162  -0.53035
 Alpha  occ. eigenvalues --   -0.52813  -0.51322  -0.48543  -0.44610  -0.42994
 Alpha  occ. eigenvalues --   -0.38976  -0.35731  -0.35045
 Alpha virt. eigenvalues --    0.02997   0.03232   0.03417   0.04190   0.04597
 Alpha virt. eigenvalues --    0.04660   0.05821   0.05971   0.06326   0.06600
 Alpha virt. eigenvalues --    0.06877   0.07366   0.08571   0.08955   0.09260

 Mulliken charges:
               1
     1  C    0.100920
     2  C    0.056925
     3  C    0.059442
     4  C   -0.451401
     5  C    1.144625
     6  C    2.174367
     7  H   -0.294308
     8  H   -0.233633
     9  H   -0.222620
    10  H   -0.284139
    11  H   -0.351327
    12  C   -3.800778
    13  N    1.839394
    14  Si   2.647282
    15  C   -0.599972
    16  H    0.009008
    17  H   -0.015365
    18  H   -0.090520
    19  C   -0.551639
    20  H   -0.037965
    21  H   -0.024918
    22  H   -0.038597
    23  C   -0.558654
    24  H   -0.059278
    25  H   -0.043149
    26  H   -0.026059
    27  H   -0.347642
 Sum of Mulliken charges =   0.00000

 Dipole moment (field-independent basis, Debye):
    X=             -2.1909    Y=             -1.0118    Z=              0.4542  Tot=              2.4557

 Test job not archived.
 1\1\GINC-SE339\SP\RHF\Aug-CC-pVDZ\C10H15N1Si1\OHZDE\09-Apr-2025\0\\#t
 hf aug-cc-pvdz iop(5/13=1,5/36=2,99/5=2) pseudo=read geom=check guess=
 (read,tcheck) scf=(maxcycle=1)\\title\\0,1\C,0,-2.518899,1.293054,0.10
 8455\C,0,-3.654872,0.551141,0.394266\C,0,-3.637593,-0.82804,0.235813\C
 ,0,-2.482938,-1.459421,-0.210153\C,0,-1.343465,-0.717292,-0.475264\C,0
 ,-1.345811,0.664947,-0.305011\H,0,-2.533489,2.372426,0.215345\H,0,-4.5
 56049,1.048257,0.732048\H,0,-4.526477,-1.409905,0.447603\H,0,-2.474427
 ,-2.532818,-0.356505\H,0,-0.452267,-1.20827,-0.841533\C,0,-0.149808,1.

 Normal termination of Gaussian 16 at Wed Apr  9 01:07:12 2025.
