 Gaussian 16, Revision C.01,

 ----------------------------------------------------------------------
 #t hf aug-cc-pvdz symm=none int=(grid=ultrafine) guess=(read,tcheck) s
 table=(opt,rrhf)
 ----------------------------------------------------------------------
 -----
 title
 -----
 Symbolic Z-matrix:
 Charge =  0 Multiplicity = 1

 SCF Done:  E(RHF) =  -1437.74828837     A.U. after   14 cycles
 Normal termination of Gaussian 16 at Wed Apr  9 01:37:42 2025.
 Gaussian 16:  ES64L-G16RevC.01  3-Jul-2019

 ----------------------------------------------------------------------
 #t hf aug-cc-pvdz iop(5/13=1,5/36=2,99/5=2) pseudo=read geom=check gue
 ss=(read,tcheck) scf=(maxcycle=1)
 ----------------------------------------------------------------------
 -----
 title
 -----
 Structure from the checkpoint file:  "BH10_327_forward_mol2.chk"
 Charge =  0 Multiplicity = 1

                         Standard orientation:
 ---------------------------------------------------------------------
 Center     Atomic      Atomic             Coordinates (Angstroms)
 Number     Number       Type             X           Y           Z
 ---------------------------------------------------------------------
      1         16           0        1.154888    1.738283    0.711320
      2          6           0        2.382526    0.793642   -0.279008
      3          6           0        2.685554   -0.596752    0.312875
      4          1           0        3.305006    1.373942   -0.321064
      5          1           0        1.992381    0.689390   -1.290498
      6          7           0        3.640843   -1.354823   -0.476373
      7          6           0        1.400401   -1.393491    0.447147
      8          1           0        3.078602   -0.489096    1.324147
      9          8           0        0.862634   -1.647871    1.491786
     10          8           0        0.901671   -1.716965   -0.746775
     11         16           0       -0.265786    2.325069   -0.678486
     12          6           0       -1.216577    0.796066   -0.979577
     13          6           0       -1.780842    0.124177    0.269646
     14          1           0       -0.594051    0.091105   -1.524069
     15          1           0       -2.025567    1.115105   -1.643789
     16          7           0       -2.786294    0.948820    0.936128
     17          6           0       -2.413360   -1.202626   -0.165297
     18          1           0       -0.955473   -0.132473    0.937399
     19          8           0       -1.767477   -2.120344   -0.615182
     20          8           0       -3.723065   -1.250986   -0.034063
     21          1           0       -0.011006   -2.085744   -0.647085
     22          1           0       -3.971955   -0.380069    0.357409
     23          1           0        4.538022   -0.890215   -0.534646
     24          1           0        3.292845   -1.533014   -1.411078
     25          1           0       -2.687303    0.910381    1.943569
     26          1           0       -2.705268    1.922310    0.665238
 ---------------------------------------------------------------------

 SCF Done:  E(RHF) =  -1438.51476990     A.U. after    2 cycles

 The electronic state is 1-A.
 Alpha  occ. eigenvalues --  -93.99277 -93.98620 -20.60412 -20.58467 -20.54760
 Alpha  occ. eigenvalues --  -20.53348 -15.53408 -15.50680 -11.40534 -11.38859
 Alpha  occ. eigenvalues --  -11.30872 -11.29997 -11.29660 -11.29089  -8.27190
 Alpha  occ. eigenvalues --   -8.26574  -6.24991  -6.24782  -6.24565  -6.24376
 Alpha  occ. eigenvalues --   -6.24170  -6.23957  -1.56242  -1.54374  -1.47123
 Alpha  occ. eigenvalues --   -1.44892  -1.23957  -1.21644  -1.13656  -1.07423
 Alpha  occ. eigenvalues --   -1.01895  -0.96235  -0.91029  -0.84188  -0.83584
 Alpha  occ. eigenvalues --   -0.81185  -0.75937  -0.75087  -0.73293  -0.71783
 Alpha  occ. eigenvalues --   -0.70429  -0.68560  -0.66999  -0.65653  -0.64507
 Alpha  occ. eigenvalues --   -0.64129  -0.61367  -0.59878  -0.59339  -0.59025
 Alpha  occ. eigenvalues --   -0.57081  -0.55154  -0.54583  -0.51513  -0.50969
 Alpha  occ. eigenvalues --   -0.48241  -0.47148  -0.46852  -0.46106  -0.44719
 Alpha  occ. eigenvalues --   -0.43233  -0.39285  -0.37064
 Alpha virt. eigenvalues --    0.02661   0.02928   0.03631   0.04651   0.05064
 Alpha virt. eigenvalues --    0.05598   0.05816   0.06707   0.07272   0.07517
 Alpha virt. eigenvalues --    0.08015   0.08735   0.09019   0.10564   0.11213

 Mulliken charges:
               1
     1  S    0.099573
     2  C   -0.270207
     3  C   -1.629054
     4  H    0.161905
     5  H    0.253037
     6  N    0.641817
     7  C    2.669736
     8  H    0.062344
     9  O   -1.434420
    10  O   -1.542350
    11  S    0.163549
    12  C   -0.367196
    13  C   -1.596904
    14  H    0.093748
    15  H    0.249868
    16  N    0.359674
    17  C    2.514581
    18  H    0.283415
    19  O   -1.435547
    20  O   -1.375578
    21  H    0.667578
    22  H    0.459742
    23  H    0.173084
    24  H    0.204608
    25  H    0.251876
    26  H    0.341122
 Sum of Mulliken charges =  -0.00000

 Dipole moment (field-independent basis, Debye):
    X=              0.5228    Y=              4.4748    Z=             -1.0698  Tot=              4.6305

 Test job not archived.
 1\1\GINC-SE404\SP\RHF\Aug-CC-pVDZ\C6H12N2O4S2\OHZDE\09-Apr-2025\0\\#t
 hf aug-cc-pvdz iop(5/13=1,5/36=2,99/5=2) pseudo=read geom=check guess=
 (read,tcheck) scf=(maxcycle=1)\\title\\0,1\S,0,1.154888,1.738283,0.711
 32\C,0,2.382526,0.793642,-0.279008\C,0,2.685554,-0.596752,0.312875\H,0
 ,3.305006,1.373942,-0.321064\H,0,1.992381,0.68939,-1.290498\N,0,3.6408
 43,-1.354823,-0.476373\C,0,1.400401,-1.393491,0.447147\H,0,3.078602,-0
 .489096,1.324147\O,0,0.862634,-1.647871,1.491786\O,0,0.901671,-1.71696
 5,-0.746775\S,0,-0.265786,2.325069,-0.678486\C,0,-1.216577,0.796066,-0

 Normal termination of Gaussian 16 at Wed Apr  9 01:38:15 2025.
