 Gaussian 16, Revision C.01,

 ----------------------------------------------------------------------
 #t hf aug-cc-pvdz symm=none int=(grid=ultrafine) guess=(read,tcheck) s
 table=(opt,rrhf)
 ----------------------------------------------------------------------
 -----
 title
 -----
 Symbolic Z-matrix:
 Charge =  0 Multiplicity = 1

 SCF Done:  E(RHF) =  -893.772288674     A.U. after   16 cycles
 Normal termination of Gaussian 16 at Wed Apr  9 02:09:24 2025.
 Gaussian 16:  ES64L-G16RevC.01  3-Jul-2019

 ----------------------------------------------------------------------
 #t hf aug-cc-pvdz iop(5/13=1,5/36=2,99/5=2) pseudo=read geom=check gue
 ss=(read,tcheck) scf=(maxcycle=1)
 ----------------------------------------------------------------------
 -----
 title
 -----
 Structure from the checkpoint file:  "BH10_90_forward_mol1.chk"
 Charge =  0 Multiplicity = 1

                         Standard orientation:
 ---------------------------------------------------------------------
 Center     Atomic      Atomic             Coordinates (Angstroms)
 Number     Number       Type             X           Y           Z
 ---------------------------------------------------------------------
      1          6           0        0.773503   -1.008950    0.923619
      2          6           0        0.349631   -0.070851    1.850594
      3          6           0        1.176430    1.282179    0.161913
      4          6           0        0.591144    1.236821    1.423440
      5          1           0        1.592003    2.177306   -0.283062
      6          1           0        0.273343    2.115534    1.968823
      7          1           0       -0.198625   -0.323759    2.748024
      8          1           0        0.767226   -2.081447    1.060637
      9         16           0        2.093966   -0.253086   -0.019862
     10          8           0        2.183341   -0.730831   -1.431658
     11          6           0       -2.434213    0.652327    0.089191
     12          6           0       -0.630172   -0.668305   -0.830129
     13          6           0       -0.390597    0.651203   -1.189534
     14          1           0       -2.285504    0.908100    1.142329
     15          1           0       -0.176230   -1.517337   -1.320486
     16          1           0        0.247811    0.885409   -2.031594
     17          1           0       -3.505209    0.699744   -0.105654
     18          6           0       -1.580849    1.528536   -0.836443
     19          1           0       -1.298892    2.480550   -0.384988
     20          1           0       -2.124866    1.763467   -1.755523
     21          6           0       -1.921325   -0.768113   -0.118511
     22          8           0       -2.482821   -1.777579    0.235963
 ---------------------------------------------------------------------

 SCF Done:  E(RHF) =  -894.335816798     A.U. after    2 cycles

 The electronic state is 1-A.
 Alpha  occ. eigenvalues --  -94.09243 -20.52290 -20.51639 -11.33185 -11.30897
 Alpha  occ. eigenvalues --  -11.30136 -11.28491 -11.27909 -11.27588 -11.25589
 Alpha  occ. eigenvalues --  -11.25019 -11.24650  -8.35969  -6.33844  -6.33654
 Alpha  occ. eigenvalues --   -6.33477  -1.46002  -1.45325  -1.20878  -1.14690
 Alpha  occ. eigenvalues --   -1.02283  -1.01015  -0.99111  -0.94011  -0.81610
 Alpha  occ. eigenvalues --   -0.80857  -0.78152  -0.74223  -0.73871  -0.68927
 Alpha  occ. eigenvalues --   -0.66726  -0.62200  -0.61220  -0.60887  -0.60084
 Alpha  occ. eigenvalues --   -0.59212  -0.58577  -0.58356  -0.55557  -0.54995
 Alpha  occ. eigenvalues --   -0.52781  -0.50822  -0.48472  -0.43729  -0.40024
 Alpha  occ. eigenvalues --   -0.39129  -0.36666  -0.34479
 Alpha virt. eigenvalues --    0.02196   0.02826   0.03508   0.04025   0.04555
 Alpha virt. eigenvalues --    0.05144   0.05469   0.05858   0.06182   0.07402
 Alpha virt. eigenvalues --    0.08009   0.08732   0.09420   0.10742   0.11429

 Mulliken charges:
               1
     1  C   -0.449106
     2  C    0.474967
     3  C   -0.496878
     4  C    0.466110
     5  H   -0.206949
     6  H   -0.172441
     7  H   -0.174099
     8  H   -0.217779
     9  S    2.181593
    10  O   -1.599625
    11  C   -0.450054
    12  C    0.204465
    13  C    0.291965
    14  H    0.317091
    15  H   -0.129711
    16  H   -0.098600
    17  H    0.140454
    18  C   -0.180831
    19  H    0.136361
    20  H    0.151802
    21  C    1.392062
    22  O   -1.580795
 Sum of Mulliken charges =  -0.00000

 Dipole moment (field-independent basis, Debye):
    X=             -0.0352    Y=              4.6334    Z=              2.3103  Tot=              5.1775

 Test job not archived.
 1\1\GINC-SE041\SP\RHF\Aug-CC-pVDZ\C9H10O2S1\OHZDE\09-Apr-2025\0\\#t hf
  aug-cc-pvdz iop(5/13=1,5/36=2,99/5=2) pseudo=read geom=check guess=(r
 ead,tcheck) scf=(maxcycle=1)\\title\\0,1\C,0,0.773503,-1.00895,0.92361
 9\C,0,0.349631,-0.070851,1.850594\C,0,1.17643,1.282179,0.161913\C,0,0.
 591144,1.236821,1.42344\H,0,1.592003,2.177306,-0.283062\H,0,0.273343,2
 .115534,1.968823\H,0,-0.198625,-0.323759,2.748024\H,0,0.767226,-2.0814
 47,1.060637\S,0,2.093966,-0.253086,-0.019862\O,0,2.183341,-0.730831,-1
 .431658\C,0,-2.434213,0.652327,0.089191\C,0,-0.630172,-0.668305,-0.830

 Normal termination of Gaussian 16 at Wed Apr  9 02:09:45 2025.
