 Gaussian 16, Revision C.01,

 ----------------------------------------------------------------------
 #t hf aug-cc-pvdz symm=none int=(grid=ultrafine) guess=(read,tcheck) s
 table=(opt,rrhf)
 ----------------------------------------------------------------------
 -----
 title
 -----
 Symbolic Z-matrix:
 Charge =  0 Multiplicity = 1

 SCF Done:  E(RHF) =  -559.777310559     A.U. after   14 cycles
 Normal termination of Gaussian 16 at Wed Apr  9 00:58:16 2025.
 Gaussian 16:  ES64L-G16RevC.01  3-Jul-2019

 ----------------------------------------------------------------------
 #t hf aug-cc-pvdz iop(5/13=1,5/36=2,99/5=2) pseudo=read geom=check gue
 ss=(read,tcheck) scf=(maxcycle=1)
 ----------------------------------------------------------------------
 -----
 title
 -----
 Structure from the checkpoint file:  "BH10-RE_129_mol3.chk"
 Charge =  0 Multiplicity = 1

                         Standard orientation:
 ---------------------------------------------------------------------
 Center     Atomic      Atomic             Coordinates (Angstroms)
 Number     Number       Type             X           Y           Z
 ---------------------------------------------------------------------
      1          6           0        2.574234   -0.348383   -0.072484
      2          6           0        2.119788    0.994526   -0.632492
      3          6           0        1.407058   -1.283421    0.222957
      4          6           0        0.738551    1.376046   -0.110637
      5          6           0       -0.312543    0.377223   -0.592965
      6          6           0        0.260784   -1.034621   -0.753151
      7          8           0       -1.356111    0.387642    0.409387
      8          6           0       -2.581498   -0.010714    0.029907
      9          6           0       -3.548358    0.056245    1.175249
     10          8           0       -2.847287   -0.371778   -1.086450
     11          1           0        2.106235    0.938330   -1.725463
     12          1           0        2.865646    1.745164   -0.367254
     13          1           0        1.070740   -1.080462    1.243080
     14          1           0        1.734124   -2.323665    0.197090
     15          1           0        0.465005    2.387454   -0.414446
     16          1           0        0.748405    1.365825    0.981782
     17          1           0       -0.762647    0.695116   -1.532962
     18          1           0        0.611942   -1.154873   -1.782441
     19          1           0       -0.537686   -1.764707   -0.623879
     20          1           0       -3.571289    1.067068    1.584029
     21          1           0       -3.218955   -0.612348    1.972173
     22          1           0       -4.538223   -0.233804    0.832885
     23          9           0        3.267101   -0.122699    1.132779
     24          1           0        3.301873   -0.813126   -0.741419
 ---------------------------------------------------------------------

 SCF Done:  E(RHF) =  -560.347102899     A.U. after    2 cycles

 The electronic state is 1-A.
 Alpha  occ. eigenvalues --  -26.43435 -20.58549 -20.53197 -11.38792 -11.31790
 Alpha  occ. eigenvalues --  -11.29989 -11.25106 -11.24127 -11.23961 -11.23815
 Alpha  occ. eigenvalues --  -11.23701  -1.55405  -1.54438  -1.45106  -1.13794
 Alpha  occ. eigenvalues --   -1.04370  -1.02594  -0.99403  -0.88298  -0.86297
 Alpha  occ. eigenvalues --   -0.79192  -0.75433  -0.71753  -0.70125  -0.69629
 Alpha  occ. eigenvalues --   -0.66878  -0.65987  -0.64544  -0.62158  -0.59828
 Alpha  occ. eigenvalues --   -0.58302  -0.57767  -0.56535  -0.55583  -0.54394
 Alpha  occ. eigenvalues --   -0.53619  -0.52027  -0.51676  -0.47751  -0.47304
 Alpha  occ. eigenvalues --   -0.46703  -0.44471  -0.43544
 Alpha virt. eigenvalues --    0.03147   0.03248   0.03556   0.04314   0.05008
 Alpha virt. eigenvalues --    0.05353   0.05779   0.06440   0.07117   0.07853
 Alpha virt. eigenvalues --    0.08047   0.08638   0.09723   0.11370   0.12472

 Mulliken charges:
               1
     1  C    1.126600
     2  C   -0.411267
     3  C   -0.442069
     4  C   -0.263092
     5  C    0.759333
     6  C   -0.386320
     7  O   -1.425242
     8  C    1.667749
     9  C   -0.695128
    10  O   -1.222327
    11  H    0.196573
    12  H    0.116811
    13  H    0.266910
    14  H    0.084393
    15  H    0.083219
    16  H    0.222984
    17  H    0.222375
    18  H    0.183366
    19  H    0.101312
    20  H    0.240916
    21  H    0.245198
    22  H    0.178962
    23  F   -0.894693
    24  H    0.043437
 Sum of Mulliken charges =  -0.00000

 Dipole moment (field-independent basis, Debye):
    X=             -0.1057    Y=              0.4153    Z=              0.0527  Tot=              0.4318

 Test job not archived.
 1\1\GINC-SE149\SP\RHF\Aug-CC-pVDZ\C8H13F1O2\OHZDE\09-Apr-2025\0\\#t hf
  aug-cc-pvdz iop(5/13=1,5/36=2,99/5=2) pseudo=read geom=check guess=(r
 ead,tcheck) scf=(maxcycle=1)\\title\\0,1\C,0,2.574234,-0.348383,-0.072
 484\C,0,2.119788,0.994526,-0.632492\C,0,1.407058,-1.283421,0.222957\C,
 0,0.738551,1.376046,-0.110637\C,0,-0.312543,0.377223,-0.592965\C,0,0.2
 60784,-1.034621,-0.753151\O,0,-1.356111,0.387642,0.409387\C,0,-2.58149
 8,-0.010714,0.029907\C,0,-3.548358,0.056245,1.175249\O,0,-2.847287,-0.
 371778,-1.08645\H,0,2.106235,0.93833,-1.725463\H,0,2.865646,1.745164,-

 Normal termination of Gaussian 16 at Wed Apr  9 00:58:33 2025.
