 Gaussian 16, Revision C.01,

 ----------------------------------------------------------------------
 #t hf aug-cc-pvdz symm=none int=(grid=ultrafine) guess=(read,tcheck) s
 table=(opt,rrhf)
 ----------------------------------------------------------------------
 -----
 title
 -----
 Symbolic Z-matrix:
 Charge = -1 Multiplicity = 1

 SCF Done:  E(RHF) =  -718.908499154     A.U. after   14 cycles
 Normal termination of Gaussian 16 at Wed Apr  9 01:25:17 2025.
 Gaussian 16:  ES64L-G16RevC.01  3-Jul-2019

 ----------------------------------------------------------------------
 #t hf aug-cc-pvdz iop(5/13=1,5/36=2,99/5=2) pseudo=read geom=check gue
 ss=(read,tcheck) scf=(maxcycle=1)
 ----------------------------------------------------------------------
 -----
 title
 -----
 Structure from the checkpoint file:  "BH10_324_forward_mol3.chk"
 Charge = -1 Multiplicity = 1

                         Standard orientation:
 ---------------------------------------------------------------------
 Center     Atomic      Atomic             Coordinates (Angstroms)
 Number     Number       Type             X           Y           Z
 ---------------------------------------------------------------------
      1         16           0       -2.227134   -0.126972   -0.065207
      2          6           0       -0.832148    0.973776    0.373378
      3          6           0        0.474251    0.655326   -0.361640
      4          1           0       -0.640072    0.932624    1.453457
      5          1           0       -1.085191    2.007923    0.129850
      6          7           0        1.460197    1.716279   -0.148817
      7          6           0        1.056826   -0.726233   -0.018130
      8          1           0        0.232355    0.608250   -1.429718
      9          8           0        2.249117   -0.880048    0.163700
     10          8           0        0.213959   -1.733924    0.016427
     11          1           0       -0.756292   -1.384585   -0.059605
     12          1           0        2.385084    1.300870   -0.219243
     13          1           0        1.378691    2.047081    0.807622
 ---------------------------------------------------------------------

 SCF Done:  E(RHF) =  -719.299533987     A.U. after    2 cycles

 The electronic state is 1-A.
 Alpha  occ. eigenvalues --  -93.70698 -20.42151 -20.38055 -15.35867 -11.23500
 Alpha  occ. eigenvalues --  -11.13573 -11.10854  -7.98804  -5.96686  -5.96418
 Alpha  occ. eigenvalues --   -5.96358  -1.38088  -1.29163  -1.06128  -0.89075
 Alpha  occ. eigenvalues --   -0.78012  -0.67659  -0.65625  -0.58419  -0.54837
 Alpha  occ. eigenvalues --   -0.52402  -0.48916  -0.45592  -0.43175  -0.41681
 Alpha  occ. eigenvalues --   -0.38243  -0.32026  -0.31157  -0.29278  -0.28165
 Alpha  occ. eigenvalues --   -0.15901  -0.14814
 Alpha virt. eigenvalues --    0.13237   0.14813   0.15292   0.15785   0.16925
 Alpha virt. eigenvalues --    0.17136   0.19578   0.21655   0.22021   0.24675
 Alpha virt. eigenvalues --    0.25232   0.26096   0.27135   0.27818   0.28119

 Mulliken charges:
               1
     1  S   -0.537898
     2  C   -0.439262
     3  C   -1.774227
     4  H    0.143890
     5  H    0.195197
     6  N    0.531042
     7  C    2.425216
     8  H    0.233952
     9  O   -1.352715
    10  O   -1.508510
    11  H    0.702462
    12  H    0.150191
    13  H    0.230660
 Sum of Mulliken charges =  -1.00000

 Dipole moment (field-independent basis, Debye):
    X=              3.4857    Y=              2.1485    Z=              0.6934  Tot=              4.1530

 Test job not archived.
 1\1\GINC-SE424\SP\RHF\Aug-CC-pVDZ\C3H6N1O2S1(1-)\OHZDE\09-Apr-2025\0\\
 #t hf aug-cc-pvdz iop(5/13=1,5/36=2,99/5=2) pseudo=read geom=check gue
 ss=(read,tcheck) scf=(maxcycle=1)\\title\\-1,1\S,0,-2.227134,-0.126972
 ,-0.065207\C,0,-0.832148,0.973776,0.373378\C,0,0.474251,0.655326,-0.36
 164\H,0,-0.640072,0.932624,1.453457\H,0,-1.085192,2.007923,0.12985\N,0
 ,1.460197,1.716279,-0.148817\C,0,1.056826,-0.726233,-0.01813\H,0,0.232
 355,0.60825,-1.429718\O,0,2.249117,-0.880048,0.1637\O,0,0.213959,-1.73
 3924,0.016427\H,0,-0.756292,-1.384585,-0.059605\H,0,2.385084,1.30087,-

 Normal termination of Gaussian 16 at Wed Apr  9 01:25:22 2025.
