 Gaussian 16, Revision C.01,

 ----------------------------------------------------------------------
 #t hf aug-cc-pvdz symm=none int=(grid=ultrafine) guess=(read,tcheck) s
 table=(opt,rrhf)
 ----------------------------------------------------------------------
 -----
 title
 -----
 Symbolic Z-matrix:
 Charge = -1 Multiplicity = 1

 SCF Done:  E(RHF) =  -726.397196822     A.U. after   14 cycles
 Normal termination of Gaussian 16 at Wed Apr  9 01:22:01 2025.
 Gaussian 16:  ES64L-G16RevC.01  3-Jul-2019

 ----------------------------------------------------------------------
 #t hf aug-cc-pvdz iop(5/13=1,5/36=2,99/5=2) pseudo=read geom=check gue
 ss=(read,tcheck) scf=(maxcycle=1)
 ----------------------------------------------------------------------
 -----
 title
 -----
 Structure from the checkpoint file:  "BH10_319_forward_mol1.chk"
 Charge = -1 Multiplicity = 1

                         Standard orientation:
 ---------------------------------------------------------------------
 Center     Atomic      Atomic             Coordinates (Angstroms)
 Number     Number       Type             X           Y           Z
 ---------------------------------------------------------------------
      1          6           0        1.845914    0.134152   -0.000001
      2          8           0        1.588377    1.340761    0.000009
      3          6           0        3.307278   -0.321214    0.000007
      4          1           0        3.976435    0.538868   -0.000051
      5          1           0        3.496815   -0.939952   -0.879942
      6          1           0        3.496833   -0.939835    0.880035
      7          8           0        1.006662   -0.827270   -0.000011
      8         17           0       -3.188081    0.077128   -0.000001
      9          6           0       -0.950875   -0.325162   -0.000006
     10          1           0       -1.026085   -0.861433   -0.924866
     11          1           0       -1.026084   -0.861445    0.924848
     12          1           0       -0.694753    0.718027    0.000001
 ---------------------------------------------------------------------

 SCF Done:  E(RHF) =  -726.750855977     A.U. after    2 cycles

 The electronic state is 1-A.
 Alpha  occ. eigenvalues -- -105.32422 -20.35050 -20.34183 -11.20307 -11.18256
 Alpha  occ. eigenvalues --  -11.10279 -10.37132  -7.53952  -7.53803  -7.53803
 Alpha  occ. eigenvalues --   -1.31826  -1.22825  -0.86235  -0.83404  -0.75028
 Alpha  occ. eigenvalues --   -0.58521  -0.51080  -0.49230  -0.48588  -0.46769
 Alpha  occ. eigenvalues --   -0.46310  -0.41833  -0.38039  -0.30637  -0.25851
 Alpha  occ. eigenvalues --   -0.25561  -0.24334  -0.24219  -0.22532
 Alpha virt. eigenvalues --    0.12546   0.14060   0.14108   0.15861   0.16941
 Alpha virt. eigenvalues --    0.18458   0.19284   0.22290   0.24672   0.24978
 Alpha virt. eigenvalues --    0.26005   0.26353   0.26790   0.28003   0.29682

 Mulliken charges:
               1
     1  C    1.899339
     2  O   -1.294813
     3  C   -0.590155
     4  H    0.151983
     5  H    0.185708
     6  H    0.185717
     7  O   -1.359494
     8  Cl  -0.726426
     9  C   -0.199644
    10  H    0.257260
    11  H    0.257262
    12  H    0.233262
 Sum of Mulliken charges =  -1.00000

 Dipole moment (field-independent basis, Debye):
    X=              5.2088    Y=             -2.1956    Z=             -0.0000  Tot=              5.6526

 Test job not archived.
 1\1\GINC-SE195\SP\RHF\Aug-CC-pVDZ\C3H6Cl1O2(1-)\OHZDE\09-Apr-2025\0\\#
 t hf aug-cc-pvdz iop(5/13=1,5/36=2,99/5=2) pseudo=read geom=check gues
 s=(read,tcheck) scf=(maxcycle=1)\\title\\-1,1\C,0,1.845914,0.134152,-0
 .000001\O,0,1.588377,1.340761,0.000009\C,0,3.307278,-0.321214,0.000007
 \H,0,3.976435,0.538868,-0.000051\H,0,3.496815,-0.939952,-0.879942\H,0,
 3.496833,-0.939835,0.880035\O,0,1.006662,-0.82727,-0.000011\Cl,0,-3.18
 8081,0.077128,-0.000001\C,0,-0.950875,-0.325162,-0.000006\H,0,-1.02608
 5,-0.861433,-0.924866\H,0,-1.026084,-0.861445,0.924848\H,0,-0.694753,0

 Normal termination of Gaussian 16 at Wed Apr  9 01:22:06 2025.
