 Gaussian 16, Revision C.01,

 ----------------------------------------------------------------------
 #t hf aug-cc-pvdz symm=none int=(grid=ultrafine) guess=(read,tcheck) s
 table=(opt,rrhf)
 ----------------------------------------------------------------------
 -----
 title
 -----
 Symbolic Z-matrix:
 Charge =  0 Multiplicity = 1

 SCF Done:  E(RHF) =  -1000.91199748     A.U. after   17 cycles
 Normal termination of Gaussian 16 at Wed Apr  9 02:36:07 2025.
 Gaussian 16:  ES64L-G16RevC.01  3-Jul-2019

 ----------------------------------------------------------------------
 #t hf aug-cc-pvdz iop(5/13=1,5/36=2,99/5=2) pseudo=read geom=check gue
 ss=(read,tcheck) scf=(maxcycle=1)
 ----------------------------------------------------------------------
 -----
 title
 -----
 Structure from the checkpoint file:  "BH10_85_reverse_mol2.chk"
 Charge =  0 Multiplicity = 1

                         Standard orientation:
 ---------------------------------------------------------------------
 Center     Atomic      Atomic             Coordinates (Angstroms)
 Number     Number       Type             X           Y           Z
 ---------------------------------------------------------------------
      1          6           0        0.342742    0.090939    2.160585
      2          6           0       -1.592826   -0.299647    0.757385
      3          6           0        0.831975    1.159858    1.226104
      4          6           0       -1.348289    0.862489    0.066196
      5          6           0       -2.272855    1.337658   -1.021948
      6          6           0       -0.759966   -0.605231    1.906230
      7          6           0       -0.041150    2.903986   -0.302695
      8          6           0       -2.652366   -1.218886    0.378301
      9          6           0        2.113707    0.771005    0.445505
     10          6           0        3.272233    0.599590    1.439905
     11          1           0        3.163097   -0.305926    2.040662
     12          1           0        3.325217    1.446234    2.132652
     13          1           0        2.365060    1.635041   -0.185877
     14          1           0        4.232926    0.539249    0.927736
     15          7           0       -0.259693    1.619971    0.343451
     16         14           0        2.063821   -0.690851   -0.784196
     17          6           0        0.812315   -0.413598   -2.160028
     18          6           0        3.770382   -0.737873   -1.581049
     19          6           0        1.733684   -2.344370    0.033090
     20          1           0        0.850275    3.357344    0.125167
     21          1           0       -0.874074    3.588708   -0.132753
     22          1           0        0.117411    2.806238   -1.380126
     23          1           0        4.047435    0.232061   -2.003542
     24          1           0        3.785944   -1.466873   -2.395578
     25          1           0        4.548603   -1.026734   -0.871351
     26          1           0        0.861958    0.600852   -2.564236
     27          1           0       -0.204532   -0.601949   -1.816467
     28          1           0        1.014726   -1.103379   -2.983681
     29          1           0        0.701950   -2.428645    0.374995
     30          1           0        2.383762   -2.508235    0.895668
     31          1           0        1.922264   -3.153115   -0.678680
     32          6           0       -3.479305   -0.855622   -0.838218
     33          6           0       -3.632127    0.651018   -0.973616
     34          1           0       -4.439649   -1.364284   -0.753590
     35          1           0       -2.972520   -1.267019   -1.719812
     36          1           0       -4.195388    1.032828   -0.117016
     37          1           0       -4.202258    0.906087   -1.869558
     38          1           0       -1.788579    1.153769   -1.989063
     39          1           0       -2.406113    2.417541   -0.951773
     40          8           0       -2.857857   -2.260931    0.981366
     41          1           0        0.941877   -0.104225    3.040786
     42          1           0       -1.089280   -1.408498    2.553176
     43          1           0        1.108171    2.034593    1.831449
 ---------------------------------------------------------------------

 SCF Done:  E(RHF) =  -1001.69314487     A.U. after    2 cycles

 The electronic state is 1-A.
 Alpha  occ. eigenvalues --  -69.50354 -20.49465 -15.53737 -11.31256 -11.31082
 Alpha  occ. eigenvalues --  -11.28439 -11.28394 -11.25714 -11.24466 -11.23179
 Alpha  occ. eigenvalues --  -11.23107 -11.22837 -11.22098 -11.22084 -11.20770
 Alpha  occ. eigenvalues --  -11.20714 -11.20454 -11.19689  -6.17427  -3.92767
 Alpha  occ. eigenvalues --   -3.92755  -3.92745  -1.43124  -1.28855  -1.13055
 Alpha  occ. eigenvalues --   -1.09880  -1.06529  -1.01323  -0.98686  -0.97764
 Alpha  occ. eigenvalues --   -0.96919  -0.92825  -0.92065  -0.91208  -0.86500
 Alpha  occ. eigenvalues --   -0.82742  -0.81099  -0.75836  -0.71629  -0.70313
 Alpha  occ. eigenvalues --   -0.68561  -0.66648  -0.64686  -0.63966  -0.62178
 Alpha  occ. eigenvalues --   -0.61305  -0.60921  -0.59972  -0.58964  -0.58533
 Alpha  occ. eigenvalues --   -0.57961  -0.57304  -0.56769  -0.55983  -0.55390
 Alpha  occ. eigenvalues --   -0.54666  -0.53997  -0.53705  -0.53479  -0.52641
 Alpha  occ. eigenvalues --   -0.52462  -0.50789  -0.49541  -0.48365  -0.47638
 Alpha  occ. eigenvalues --   -0.46040  -0.43546  -0.43107  -0.41133  -0.40308
 Alpha  occ. eigenvalues --   -0.38344  -0.28442
 Alpha virt. eigenvalues --    0.02192   0.02484   0.02575   0.03494   0.03841
 Alpha virt. eigenvalues --    0.03930   0.04262   0.05033   0.05253   0.06524
 Alpha virt. eigenvalues --    0.06641   0.07194   0.07257   0.07624   0.08046

 Mulliken charges:
               1
     1  C    0.475482
     2  C    1.625364
     3  C   -1.133325
     4  C   -3.045074
     5  C   -0.357267
     6  C    0.225830
     7  C   -0.305775
     8  C    1.068602
     9  C   -0.665802
    10  C   -0.348711
    11  H    0.160673
    12  H    0.167478
    13  H    0.040216
    14  H    0.149432
    15  N    2.965840
    16  Si   2.156582
    17  C   -0.188083
    18  C   -0.535214
    19  C   -0.345529
    20  H   -0.073741
    21  H    0.116827
    22  H    0.279805
    23  H    0.056485
    24  H   -0.071500
    25  H   -0.082511
    26  H    0.007060
    27  H   -0.004244
    28  H   -0.189803
    29  H    0.050853
    30  H    0.023410
    31  H   -0.157416
    32  C   -0.363810
    33  C   -0.323773
    34  H    0.141840
    35  H    0.291900
    36  H    0.172346
    37  H    0.177904
    38  H    0.186578
    39  H    0.178468
    40  O   -1.738658
    41  H   -0.326762
    42  H   -0.407331
    43  H   -0.054648
 Sum of Mulliken charges =  -0.00000

 Dipole moment (field-independent basis, Debye):
    X=              1.8570    Y=              5.2147    Z=             -2.5393  Tot=              6.0901

 Test job not archived.
 1\1\GINC-SE252\SP\RHF\Aug-CC-pVDZ\C15H25N1O1Si1\OHZDE\09-Apr-2025\0\\#
 t hf aug-cc-pvdz iop(5/13=1,5/36=2,99/5=2) pseudo=read geom=check gues
 s=(read,tcheck) scf=(maxcycle=1)\\title\\0,1\C,0,0.342742,0.090939,2.1
 60585\C,0,-1.592826,-0.299647,0.757385\C,0,0.831975,1.159858,1.226104\
 C,0,-1.348289,0.862489,0.066196\C,0,-2.272855,1.337658,-1.021948\C,0,-
 0.759966,-0.605231,1.90623\C,0,-0.04115,2.903986,-0.302695\C,0,-2.6523
 66,-1.218886,0.378301\C,0,2.113707,0.771005,0.445505\C,0,3.272233,0.59
 959,1.439905\H,0,3.163097,-0.305926,2.040662\H,0,3.325217,1.446234,2.1

 Normal termination of Gaussian 16 at Wed Apr  9 02:37:51 2025.
