 Gaussian 16, Revision C.01,

 ----------------------------------------------------------------------
 #t hf aug-cc-pvdz symm=none int=(grid=ultrafine) guess=(read,tcheck) s
 table=opt
 ----------------------------------------------------------------------
 -----
 title
 -----
 Symbolic Z-matrix:
 Charge =  0 Multiplicity = 2

 SCF Done:  E(UHF) =  -915.262626088     A.U. after   16 cycles
 Normal termination of Gaussian 16 at Wed Apr  9 01:49:52 2025.
 Gaussian 16:  ES64L-G16RevC.01  3-Jul-2019

 ----------------------------------------------------------------------
 #t hf aug-cc-pvdz iop(5/13=1,5/36=2,99/5=2) pseudo=read geom=check gue
 ss=(read,tcheck) scf=(maxcycle=1)
 ----------------------------------------------------------------------
 -----
 title
 -----
 Structure from the checkpoint file:  "BH10_295_reverse_mol2.chk"
 Charge =  0 Multiplicity = 2

                         Standard orientation:
 ---------------------------------------------------------------------
 Center     Atomic      Atomic             Coordinates (Angstroms)
 Number     Number       Type             X           Y           Z
 ---------------------------------------------------------------------
      1         14           0        3.281658    0.111974    0.099859
      2          6           0        2.082325    1.550439    0.324742
      3          6           0        2.078071    2.573480   -0.815639
      4          6           0        3.261552   -0.943366    1.660705
      5          6           0        4.179501   -2.169111    1.616519
      6          6           0        5.021161    0.771455   -0.221366
      7          6           0        5.574873    1.664622    0.894079
      8          6           0        2.753971   -0.956729   -1.387059
      9          6           0        1.423291   -1.575369   -1.183518
     10          6           0        0.154609   -0.906034   -1.586162
     11          6           0       -0.978570   -1.069054   -0.571770
     12          6           0       -3.402009   -0.546691    0.012434
     13          6           0       -2.273704   -0.390186   -1.000550
     14          6           0       -4.697480    0.135821   -0.411912
     15          6           0       -5.825789   -0.022117    0.600855
     16          6           0       -7.122198    0.661100    0.178729
     17          6           0       -8.242967    0.495837    1.198737
     18          1           0        1.076983    1.140152    0.464719
     19          1           0        2.326694    2.051272    1.267996
     20          1           0        1.821758    2.111030   -1.772256
     21          1           0        1.355247    3.373666   -0.639171
     22          1           0        3.058152    3.041675   -0.936598
     23          1           0        2.228427   -1.258376    1.840755
     24          1           0        3.529916   -0.307650    2.511481
     25          1           0        4.131795   -2.744741    2.543983
     26          1           0        3.905996   -2.844373    0.801706
     27          1           0        5.223830   -1.883858    1.464957
     28          1           0        5.014006    1.320577   -1.169123
     29          1           0        5.690714   -0.080131   -0.383253
     30          1           0        4.943991    2.542742    1.055002
     31          1           0        5.631826    1.128710    1.845013
     32          1           0        6.580413    2.025174    0.664061
     33          1           0        0.337894    0.160775   -1.757121
     34          1           0       -0.192102   -1.298665   -2.556267
     35          1           0       -1.161802   -2.137013   -0.407450
     36          1           0       -0.656519   -0.664988    0.394490
     37          1           0       -3.079277   -0.141431    0.978758
     38          1           0       -3.592703   -1.613361    0.179633
     39          1           0       -2.594171   -0.797278   -1.966809
     40          1           0       -2.083900    0.676669   -1.168862
     41          1           0       -4.506736    1.202735   -0.577906
     42          1           0       -5.019721   -0.268542   -1.378789
     43          1           0       -6.017511   -1.089035    0.766572
     44          1           0       -5.503701    0.381346    1.568345
     45          1           0       -6.929879    1.726892    0.014056
     46          1           0       -7.443110    0.257652   -0.787841
     47          1           0       -9.159123    0.993468    0.873572
     48          1           0       -8.476707   -0.560290    1.358016
     49          1           0       -7.959642    0.919570    2.165997
     50          1           0        1.360675   -2.543662   -0.697277
     51          1           0        2.764013   -0.318255   -2.278814
     52          1           0        3.531257   -1.714671   -1.532539
 ---------------------------------------------------------------------

 SCF Done:  E(UHF) =  -915.996382860     A.U. after    2 cycles

 The electronic state is 2-A.
 Alpha  occ. eigenvalues --  -69.49344 -11.22473 -11.22446 -11.22435 -11.22375
 Alpha  occ. eigenvalues --  -11.22172 -11.22153 -11.22120 -11.21955 -11.21934
 Alpha  occ. eigenvalues --  -11.21921 -11.21891 -11.21863 -11.20612 -11.20600
 Alpha  occ. eigenvalues --  -11.20581 -11.20487  -6.16562  -3.91937  -3.91835
 Alpha  occ. eigenvalues --   -3.91830  -1.10342  -1.08233  -1.04936  -1.03344
 Alpha  occ. eigenvalues --   -1.01322  -1.00737  -0.99686  -0.94512  -0.88851
 Alpha  occ. eigenvalues --   -0.85734  -0.83865  -0.82460  -0.82409  -0.79034
 Alpha  occ. eigenvalues --   -0.78842  -0.77717  -0.66605  -0.65468  -0.64611
 Alpha  occ. eigenvalues --   -0.62263  -0.61851  -0.61622  -0.60178  -0.59750
 Alpha  occ. eigenvalues --   -0.59170  -0.58317  -0.57589  -0.57282  -0.56909
 Alpha  occ. eigenvalues --   -0.55687  -0.54772  -0.54399  -0.53044  -0.52430
 Alpha  occ. eigenvalues --   -0.51353  -0.51000  -0.50653  -0.50193  -0.49621
 Alpha  occ. eigenvalues --   -0.49427  -0.49187  -0.48366  -0.47909  -0.47435
 Alpha  occ. eigenvalues --   -0.46574  -0.46439  -0.46172  -0.45266  -0.43405
 Alpha  occ. eigenvalues --   -0.40762  -0.40635  -0.29853
 Alpha virt. eigenvalues --    0.02445   0.02496   0.03073   0.03491   0.03777
 Alpha virt. eigenvalues --    0.03850   0.03972   0.04956   0.05063   0.05244
 Alpha virt. eigenvalues --    0.05389   0.05694   0.06647   0.06790   0.07161

  Beta  occ. eigenvalues --  -69.49275 -11.22484 -11.22471 -11.22430 -11.22374
  Beta  occ. eigenvalues --  -11.22172 -11.22017 -11.21952 -11.21933 -11.21920
  Beta  occ. eigenvalues --  -11.21890 -11.21863 -11.20892 -11.20608 -11.20553
  Beta  occ. eigenvalues --  -11.20491 -11.19985  -6.16451  -3.91797  -3.91776
  Beta  occ. eigenvalues --   -3.91700  -1.09939  -1.07192  -1.04276  -1.02644
  Beta  occ. eigenvalues --   -1.01308  -1.00701  -0.98598  -0.94413  -0.88518
  Beta  occ. eigenvalues --   -0.85613  -0.83672  -0.82426  -0.82014  -0.78962
  Beta  occ. eigenvalues --   -0.78706  -0.73938  -0.66458  -0.64949  -0.64052
  Beta  occ. eigenvalues --   -0.61919  -0.61698  -0.61378  -0.60030  -0.59537
  Beta  occ. eigenvalues --   -0.58853  -0.58058  -0.57494  -0.57225  -0.56305
  Beta  occ. eigenvalues --   -0.54859  -0.54511  -0.54281  -0.52741  -0.51995
  Beta  occ. eigenvalues --   -0.51268  -0.50641  -0.50490  -0.50055  -0.49479
  Beta  occ. eigenvalues --   -0.49302  -0.48910  -0.48297  -0.47569  -0.47252
  Beta  occ. eigenvalues --   -0.46475  -0.46341  -0.46159  -0.44128  -0.41937
  Beta  occ. eigenvalues --   -0.40747  -0.40455
  Beta virt. eigenvalues --    0.02454   0.02505   0.03074   0.03500   0.03784
  Beta virt. eigenvalues --    0.03850   0.03974   0.04961   0.05069   0.05254
  Beta virt. eigenvalues --    0.05386   0.05679   0.06645   0.06790   0.07166

 Mulliken charges and spin densities:
               1          2
     1  Si   2.960422  -0.007286
     2  C   -0.341793  -0.010817
     3  C   -0.495504   0.003202
     4  C   -0.414744  -0.002565
     5  C   -0.516277   0.005519
     6  C   -0.500997   0.004917
     7  C   -0.457298   0.000344
     8  C   -0.389448  -0.266382
     9  C    0.709238   1.647296
    10  C   -0.449224  -0.375291
    11  C   -0.604406   0.051133
    12  C   -0.121551   0.003124
    13  C   -0.279252   0.014992
    14  C   -0.203899   0.001631
    15  C   -0.224039  -0.000156
    16  C   -0.134415  -0.000083
    17  C   -0.367638   0.000006
    18  H   -0.176195  -0.002327
    19  H   -0.094993  -0.006157
    20  H    0.141071   0.000312
    21  H    0.104400   0.000208
    22  H    0.093106  -0.000351
    23  H   -0.057160  -0.001056
    24  H   -0.110132  -0.006224
    25  H    0.090243   0.000960
    26  H    0.120839   0.000371
    27  H    0.128502   0.000166
    28  H   -0.087159  -0.000483
    29  H   -0.081347  -0.000463
    30  H    0.117654  -0.000060
    31  H    0.131508  -0.000557
    32  H    0.073237   0.000835
    33  H   -0.050714   0.000108
    34  H    0.183819   0.039053
    35  H    0.096492  -0.005754
    36  H    0.194920   0.005365
    37  H    0.113345  -0.000050
    38  H    0.133754   0.000491
    39  H    0.101350  -0.001745
    40  H    0.107971   0.000253
    41  H    0.099834   0.000123
    42  H    0.111162   0.000028
    43  H    0.105093   0.000008
    44  H    0.106614  -0.000003
    45  H    0.111454   0.000002
    46  H    0.112523   0.000007
    47  H    0.113674   0.000002
    48  H    0.159082  -0.000006
    49  H    0.159257  -0.000003
    50  H   -0.349270  -0.104803
    51  H   -0.108105   0.009577
    52  H   -0.064999   0.002588
 Sum of Mulliken charges =  -0.00000   1.00000

 Dipole moment (field-independent basis, Debye):
    X=              0.0244    Y=              0.1397    Z=              0.0488  Tot=              0.1500
                          Isotropic Fermi Contact Couplings
        Atom                 a.u.       MegaHertz       Gauss      10(-4) cm-1
     1  Si(29)             0.10069     -89.48941     -31.93205     -29.85045
     2  C(13)             -0.00175      -1.97122      -0.70338      -0.65753
     3  C(13)              0.00037       0.41452       0.14791       0.13827
     4  C(13)             -0.00172      -1.93330      -0.68985      -0.64488
     5  C(13)              0.00013       0.14863       0.05304       0.04958
     6  C(13)              0.00572       6.43076       2.29466       2.14507
     7  C(13)              0.00132       1.48912       0.53136       0.49672
     8  C(13)             -0.05806     -65.26792     -23.28922     -21.77103

 Normal termination of Gaussian 16 at Wed Apr  9 01:51:49 2025.
