 Gaussian 16, Revision C.01,

 ----------------------------------------------------------------------
 #t hf aug-cc-pvdz symm=none int=(grid=ultrafine) guess=(read,tcheck) s
 table=(opt,rrhf)
 ----------------------------------------------------------------------
 -----
 title
 -----
 Symbolic Z-matrix:
 Charge =  0 Multiplicity = 1

 SCF Done:  E(RHF) =  -1087.47903426     A.U. after   14 cycles
 Normal termination of Gaussian 16 at Wed Apr  9 00:56:33 2025.
 Gaussian 16:  ES64L-G16RevC.01  3-Jul-2019

 ----------------------------------------------------------------------
 #t hf aug-cc-pvdz iop(5/13=1,5/36=2,99/5=2) pseudo=read geom=check gue
 ss=(read,tcheck) scf=(maxcycle=1)
 ----------------------------------------------------------------------
 -----
 title
 -----
 Structure from the checkpoint file:  "BH10_132_reverse_mol3.chk"
 Charge =  0 Multiplicity = 1

                         Standard orientation:
 ---------------------------------------------------------------------
 Center     Atomic      Atomic             Coordinates (Angstroms)
 Number     Number       Type             X           Y           Z
 ---------------------------------------------------------------------
      1          6           0       -1.636994    0.932424    0.095469
      2          6           0       -0.144418    0.777125   -0.145586
      3          6           0        2.269481   -0.429449   -0.493240
      4          6           0        2.985757   -0.082952    0.801556
      5          8           0        0.522906    1.774032   -0.245416
      6         17           0       -2.588011   -0.574216    0.180777
      7          1           0       -2.037889    1.542021   -0.711329
      8          1           0       -1.763548    1.465134    1.035750
      9          1           0        2.310040    0.396322   -1.202164
     10          1           0        2.703487   -1.310359   -0.967513
     11          1           0        2.550615    0.805655    1.258319
     12          1           0        4.039240    0.124457    0.598695
     13          1           0        2.932079   -0.905624    1.516263
     14         16           0        0.514747   -0.858193   -0.261694
 ---------------------------------------------------------------------

 SCF Done:  E(RHF) =  -1087.85376534     A.U. after    2 cycles

 The electronic state is 1-A.
 Alpha  occ. eigenvalues -- -105.57525 -93.97088 -20.55761 -11.38666 -11.32910
 Alpha  occ. eigenvalues --  -11.27719 -11.23695 -10.62356  -8.25346  -7.79309
 Alpha  occ. eigenvalues --   -7.78922  -7.78901  -6.23143  -6.22960  -6.22787
 Alpha  occ. eigenvalues --   -1.50364  -1.14104  -1.10636  -1.00507  -0.95489
 Alpha  occ. eigenvalues --   -0.85585  -0.75268  -0.68071  -0.67368  -0.67037
 Alpha  occ. eigenvalues --   -0.61588  -0.59899  -0.56754  -0.55772  -0.54405
 Alpha  occ. eigenvalues --   -0.51449  -0.48609  -0.47249  -0.46091  -0.41407
 Alpha  occ. eigenvalues --   -0.38354
 Alpha virt. eigenvalues --    0.03630   0.03945   0.04263   0.04905   0.05849
 Alpha virt. eigenvalues --    0.06992   0.07818   0.08096   0.10513   0.11004
 Alpha virt. eigenvalues --    0.11132   0.12296   0.12993   0.14098   0.14914

 Mulliken charges:
               1
     1  C   -0.685445
     2  C    0.775062
     3  C   -0.762039
     4  C   -0.375308
     5  O   -1.287861
     6  Cl   0.039625
     7  H    0.375196
     8  H    0.377528
     9  H    0.283968
    10  H    0.136403
    11  H    0.163671
    12  H    0.135437
    13  H    0.180872
    14  S    0.642892
 Sum of Mulliken charges =  -0.00000

 Dipole moment (field-independent basis, Debye):
    X=              0.9842    Y=              0.1606    Z=              0.0457  Tot=              0.9983

 Test job not archived.
 1\1\GINC-SE212\SP\RHF\Aug-CC-pVDZ\C4H7Cl1O1S1\OHZDE\09-Apr-2025\0\\#t
 hf aug-cc-pvdz iop(5/13=1,5/36=2,99/5=2) pseudo=read geom=check guess=
 (read,tcheck) scf=(maxcycle=1)\\title\\0,1\C,0,-1.636994,0.932424,0.09
 5469\C,0,-0.144418,0.777125,-0.145586\C,0,2.269481,-0.429449,-0.49324\
 C,0,2.985757,-0.082952,0.801556\O,0,0.522906,1.774032,-0.245416\Cl,0,-
 2.588011,-0.574216,0.180777\H,0,-2.037889,1.542021,-0.711329\H,0,-1.76
 3548,1.465134,1.03575\H,0,2.31004,0.396322,-1.202164\H,0,2.703487,-1.3
 10359,-0.967513\H,0,2.550615,0.805655,1.258319\H,0,4.03924,0.124457,0.

 Normal termination of Gaussian 16 at Wed Apr  9 00:56:38 2025.
