 Gaussian 16, Revision C.01,

 ----------------------------------------------------------------------
 #t hf aug-cc-pvdz symm=none int=(grid=ultrafine) guess=(read,tcheck) s
 table=opt
 ----------------------------------------------------------------------
 -----
 title
 -----
 Symbolic Z-matrix:
 Charge =  0 Multiplicity = 2

 SCF Done:  E(UHF) =  -692.537992043     A.U. after   17 cycles
 Normal termination of Gaussian 16 at Wed Apr  9 01:17:14 2025.
 Gaussian 16:  ES64L-G16RevC.01  3-Jul-2019

 ----------------------------------------------------------------------
 #t hf aug-cc-pvdz iop(5/13=1,5/36=2,99/5=2) pseudo=read geom=check gue
 ss=(read,tcheck) scf=(maxcycle=1)
 ----------------------------------------------------------------------
 -----
 title
 -----
 Structure from the checkpoint file:  "BH10_305_forward_mol3.chk"
 Charge =  0 Multiplicity = 2

                         Standard orientation:
 ---------------------------------------------------------------------
 Center     Atomic      Atomic             Coordinates (Angstroms)
 Number     Number       Type             X           Y           Z
 ---------------------------------------------------------------------
      1          6           0       -0.286274    0.569342   -0.000000
      2          6           0        0.181787   -0.000269    1.294031
      3         17           0       -0.694142    2.260509   -0.000000
      4          6           0        0.181787   -0.000269   -1.294031
      5          6           0        0.181787   -1.532300    1.257445
      6          6           0        0.866284   -2.062940    0.000000
      7          6           0        0.181787   -1.532300   -1.257445
      8          1           0       -0.435915    0.370445    2.114844
      9          1           0        1.206143    0.356101    1.494573
     10          1           0        1.206143    0.356101   -1.494573
     11          1           0       -0.435915    0.370445   -2.114844
     12          1           0       -0.852101   -1.891594    1.281347
     13          1           0        0.672418   -1.916472    2.154868
     14          1           0        0.856738   -3.155703    0.000000
     15          1           0        1.919645   -1.757498    0.000000
     16          1           0       -0.852101   -1.891594   -1.281347
     17          1           0        0.672418   -1.916472   -2.154868
 ---------------------------------------------------------------------

 SCF Done:  E(UHF) =  -692.866979251     A.U. after    2 cycles

 The electronic state is 2-A'.
 Alpha  occ. eigenvalues -- -105.55972 -11.29631 -11.24071 -11.24052 -11.23588
 Alpha  occ. eigenvalues --  -11.23571 -11.23299 -10.60807  -7.77658  -7.77493
 Alpha  occ. eigenvalues --   -7.77376  -1.16424  -1.08271  -1.02475  -0.97630
 Alpha  occ. eigenvalues --   -0.85943  -0.82483  -0.75032  -0.66920  -0.63299
 Alpha  occ. eigenvalues --   -0.62694  -0.61200  -0.58069  -0.55793  -0.55334
 Alpha  occ. eigenvalues --   -0.50568  -0.50548  -0.47339  -0.47305  -0.46131
 Alpha  occ. eigenvalues --   -0.44002  -0.33748
 Alpha virt. eigenvalues --    0.03434   0.03491   0.03651   0.04416   0.06144
 Alpha virt. eigenvalues --    0.06172   0.06347   0.07105   0.07472   0.09353
 Alpha virt. eigenvalues --    0.10492   0.12560   0.13422   0.13832   0.14473

  Beta  occ. eigenvalues -- -105.55956 -11.26924 -11.24349 -11.24329 -11.23542
  Beta  occ. eigenvalues --  -11.23525 -11.23313 -10.60788  -7.77864  -7.77365
  Beta  occ. eigenvalues --   -7.77218  -1.13948  -1.07470  -1.02424  -0.96705
  Beta  occ. eigenvalues --   -0.85769  -0.80907  -0.72002  -0.66239  -0.62152
  Beta  occ. eigenvalues --   -0.61946  -0.57890  -0.57448  -0.55320  -0.54995
  Beta  occ. eigenvalues --   -0.50007  -0.48529  -0.47117  -0.46326  -0.45822
  Beta  occ. eigenvalues --   -0.43748
  Beta virt. eigenvalues --    0.03388   0.03498   0.03648   0.04303   0.05994
  Beta virt. eigenvalues --    0.06151   0.06358   0.07133   0.07474   0.09361
  Beta virt. eigenvalues --    0.10354   0.11045   0.12982   0.13481   0.14125

 Mulliken charges and spin densities:
               1          2
     1  C   -0.114081   1.364985
     2  C   -0.260284  -0.220863
     3  Cl  -0.230038  -0.009739
     4  C   -0.260284  -0.220863
     5  C   -0.207217  -0.007657
     6  C   -0.253001   0.002338
     7  C   -0.207217  -0.007657
     8  H    0.129477   0.009443
     9  H    0.249911   0.044398
    10  H    0.249911   0.044398
    11  H    0.129477   0.009443
    12  H    0.140342  -0.003871
    13  H    0.120392  -0.000268
    14  H    0.120238   0.000961
    15  H    0.131642  -0.000909
    16  H    0.140342  -0.003871
    17  H    0.120392  -0.000268
 Sum of Mulliken charges =  -0.00000   1.00000

 Dipole moment (field-independent basis, Debye):
    X=              0.8598    Y=             -2.1589    Z=              0.0000  Tot=              2.3238
                          Isotropic Fermi Contact Couplings
        Atom                 a.u.       MegaHertz       Gauss      10(-4) cm-1
     1  C(13)              0.30321     340.87004     121.63091     113.70201
     2  C(13)             -0.04554     -51.19860     -18.26893     -17.07801
     3  Cl(35)             0.02190       9.60294       3.42657       3.20320
     4  C(13)             -0.04554     -51.19860     -18.26893     -17.07801
     5  C(13)              0.01011      11.36860       4.05660       3.79216
     6  C(13)             -0.00278      -3.12317      -1.11442      -1.04178
     7  C(13)              0.01011      11.36860       4.05660       3.79216
     8  H(1)               0.00677      30.28175      10.80528      10.10090

 Normal termination of Gaussian 16 at Wed Apr  9 01:17:19 2025.
