 Gaussian 16, Revision C.01,

 ----------------------------------------------------------------------
 #t hf aug-cc-pvdz symm=none int=(grid=ultrafine) guess=(read,tcheck) s
 table=(opt,rrhf)
 ----------------------------------------------------------------------
 -----
 title
 -----
 Symbolic Z-matrix:
 Charge =  0 Multiplicity = 1

 SCF Done:  E(RHF) =  -857.106176313     A.U. after   14 cycles
 Normal termination of Gaussian 16 at Wed Apr  9 01:57:36 2025.
 Gaussian 16:  ES64L-G16RevC.01  3-Jul-2019

 ----------------------------------------------------------------------
 #t hf aug-cc-pvdz iop(5/13=1,5/36=2,99/5=2) pseudo=read geom=check gue
 ss=(read,tcheck) scf=(maxcycle=1)
 ----------------------------------------------------------------------
 -----
 title
 -----
 Structure from the checkpoint file:  "BH10_413_reverse_mol2.chk"
 Charge =  0 Multiplicity = 1

                         Standard orientation:
 ---------------------------------------------------------------------
 Center     Atomic      Atomic             Coordinates (Angstroms)
 Number     Number       Type             X           Y           Z
 ---------------------------------------------------------------------
      1         16           0       -1.585684   -0.020516    0.128780
      2          6           0       -0.734422   -1.312826   -0.822062
      3          6           0        0.623281   -1.794690   -0.296820
      4          6           0        1.421517   -0.669603    0.340204
      5          6           0        1.517839    0.675583   -0.452668
      6          6           0        0.624517    1.785087    0.071112
      7          6           0       -0.827596    1.561360   -0.337867
      8          6           0        2.935850   -0.614900    0.386009
      9          6           0        3.005660    0.596485   -0.166019
     10          8           0       -1.368281   -0.246516    1.555988
     11          8           0       -2.945826    0.029669   -0.400656
     12          1           0       -1.478590   -2.110030   -0.843559
     13          1           0       -0.667335   -0.906448   -1.832107
     14          1           0        1.167152   -2.223390   -1.143378
     15          1           0        0.471636   -2.596201    0.428014
     16          1           0        0.928439    2.756562   -0.329917
     17          1           0        0.702877    1.846941    1.159155
     18          1           0       -0.962074    1.623797   -1.419434
     19          1           0       -1.504440    2.282040    0.124202
     20          1           0        1.004491   -0.475329    1.329259
     21          1           0        1.323528    0.523372   -1.521048
     22          1           0        3.821484    1.278101   -0.372649
     23          1           0        3.676768   -1.295363    0.786988
 ---------------------------------------------------------------------

 SCF Done:  E(RHF) =  -857.647113478     A.U. after    2 cycles

 The electronic state is 1-A.
 Alpha  occ. eigenvalues --  -94.17760 -20.52544 -20.52298 -11.28651 -11.28607
 Alpha  occ. eigenvalues --  -11.25812 -11.25711 -11.25636 -11.25102 -11.24942
 Alpha  occ. eigenvalues --  -11.24851  -8.43147  -6.41246  -6.41031  -6.40972
 Alpha  occ. eigenvalues --   -1.53654  -1.41917  -1.19048  -1.10456  -1.08412
 Alpha  occ. eigenvalues --   -0.98263  -0.94402  -0.87925  -0.83833  -0.79255
 Alpha  occ. eigenvalues --   -0.73591  -0.71078  -0.69441  -0.66293  -0.66023
 Alpha  occ. eigenvalues --   -0.65149  -0.62112  -0.60920  -0.60413  -0.58689
 Alpha  occ. eigenvalues --   -0.55355  -0.53805  -0.53083  -0.51337  -0.48545
 Alpha  occ. eigenvalues --   -0.47087  -0.46567  -0.45659  -0.44348  -0.41918
 Alpha  occ. eigenvalues --   -0.37398
 Alpha virt. eigenvalues --    0.02563   0.02938   0.03028   0.04065   0.04743
 Alpha virt. eigenvalues --    0.05503   0.05616   0.06129   0.06862   0.07977
 Alpha virt. eigenvalues --    0.08874   0.09106   0.10924   0.11707   0.12022

 Mulliken charges:
               1
     1  S    3.904831
     2  C   -0.788206
     3  C   -0.407635
     4  C   -0.352128
     5  C   -0.044633
     6  C   -0.424099
     7  C   -0.803443
     8  C    0.368247
     9  C    0.452865
    10  O   -1.753905
    11  O   -1.682582
    12  H    0.180834
    13  H    0.229523
    14  H    0.198604
    15  H    0.144530
    16  H    0.144084
    17  H    0.206227
    18  H    0.260699
    19  H    0.191844
    20  H    0.252147
    21  H    0.027365
    22  H   -0.152335
    23  H   -0.152833
 Sum of Mulliken charges =  -0.00000

 Dipole moment (field-independent basis, Debye):
    X=              4.5425    Y=              0.5428    Z=             -2.7295  Tot=              5.3272

 Test job not archived.
 1\1\GINC-SE150\SP\RHF\Aug-CC-pVDZ\C8H12O2S1\OHZDE\09-Apr-2025\0\\#t hf
  aug-cc-pvdz iop(5/13=1,5/36=2,99/5=2) pseudo=read geom=check guess=(r
 ead,tcheck) scf=(maxcycle=1)\\title\\0,1\S,0,-1.585684,-0.020516,0.128
 78\C,0,-0.734422,-1.312826,-0.822062\C,0,0.623281,-1.79469,-0.29682\C,
 0,1.421517,-0.669603,0.340204\C,0,1.517839,0.675583,-0.452668\C,0,0.62
 4517,1.785087,0.071112\C,0,-0.827596,1.56136,-0.337867\C,0,2.93585,-0.
 6149,0.386009\C,0,3.00566,0.596485,-0.166019\O,0,-1.368281,-0.246516,1
 .555988\O,0,-2.945826,0.029669,-0.400656\H,0,-1.47859,-2.11003,-0.8435

 Normal termination of Gaussian 16 at Wed Apr  9 01:57:55 2025.
