 Gaussian 16, Revision C.01,

 ----------------------------------------------------------------------
 #t hf aug-cc-pvdz symm=none int=(grid=ultrafine) guess=(read,tcheck) s
 table=(opt,rrhf)
 ----------------------------------------------------------------------
 -----
 title
 -----
 Symbolic Z-matrix:
 Charge =  1 Multiplicity = 1

 SCF Done:  E(RHF) =  -1368.22615400     A.U. after   19 cycles
 Normal termination of Gaussian 16 at Wed Apr  9 02:25:47 2025.
 Gaussian 16:  ES64L-G16RevC.01  3-Jul-2019

 ----------------------------------------------------------------------
 #t hf aug-cc-pvdz iop(5/13=1,5/36=2,99/5=2) pseudo=read geom=check gue
 ss=(read,tcheck) scf=(maxcycle=1)
 ----------------------------------------------------------------------
 -----
 title
 -----
 Structure from the checkpoint file:  "BH10_249_forward_mol1.chk"
 Charge =  1 Multiplicity = 1

                         Standard orientation:
 ---------------------------------------------------------------------
 Center     Atomic      Atomic             Coordinates (Angstroms)
 Number     Number       Type             X           Y           Z
 ---------------------------------------------------------------------
      1          6           0        1.608758   -0.329377   -0.311197
      2          6           0        3.148128    1.833182   -0.328583
      3          6           0        4.310381    0.898517   -0.683018
      4          6           0        4.142307   -0.499353   -0.117071
      5          6           0        2.866613   -1.113616   -0.682337
      6          1           0        4.393134    0.837364   -1.773361
      7          1           0        5.229919    1.356008   -0.312247
      8          1           0        4.069862   -0.462657    0.971069
      9          1           0        2.953579   -1.165404   -1.771902
     10          1           0        2.755802   -2.131694   -0.308322
     11          7           0        1.858619    1.119661   -0.564146
     12          8           0        0.817432    1.862181   -0.605850
     13          6           0        0.444866   -0.765263   -1.200277
     14          1           0        0.330309   -1.846809   -1.120161
     15          1           0       -0.493895   -0.300088   -0.902494
     16          1           0        0.639609   -0.516739   -2.244114
     17          6           0        1.240793   -0.539128    1.166405
     18          1           0        0.426549    0.120159    1.471833
     19          1           0        0.897380   -1.565918    1.295593
     20          1           0        2.083320   -0.389916    1.837890
     21          6           0        3.181861    3.056534   -1.243400
     22          1           0        2.428153    3.791437   -0.965185
     23          1           0        4.162098    3.528280   -1.165325
     24          1           0        3.019773    2.768524   -2.282718
     25          6           0        3.217874    2.283649    1.138565
     26          1           0        4.097900    2.914046    1.270754
     27          1           0        2.349207    2.888388    1.406247
     28          1           0        3.294123    1.450098    1.834042
     29          6           0       -1.426157    3.586260    0.484784
     30          6           0       -1.907454    2.353500    0.646000
     31          6           0       -0.637750    2.673920    1.213692
     32          1           0       -1.546407    4.593897    0.125388
     33          1           0        0.357149    2.170360    0.427879
     34          1           0       -0.183310    2.648165    2.202440
     35          6           0       -2.919707    1.364432    0.449226
     36          6           0       -4.001037    1.628831   -0.397844
     37          6           0       -2.820354    0.130053    1.098098
     38          6           0       -4.967694    0.663353   -0.598362
     39          1           0       -4.076137    2.587047   -0.896256
     40          6           0       -3.791553   -0.832233    0.899914
     41          1           0       -1.986808   -0.067754    1.759735
     42          6           0       -4.857252   -0.561678    0.050179
     43          1           0       -5.810177    0.857208   -1.248642
     44          1           0       -3.730905   -1.786874    1.405172
     45          6           0       -5.883438   -1.635356   -0.211971
     46          9           0       -7.076443   -1.114153   -0.516774
     47          9           0       -5.503371   -2.406297   -1.244506
     48          9           0       -6.040285   -2.435259    0.849120
     49          7           0        5.301593   -1.317724   -0.404216
     50          6           0        5.551443   -2.431807    0.346839
     51          6           0        6.770288   -3.232748   -0.025170
     52          1           0        7.428551   -3.285413    0.842377
     53          1           0        6.460846   -4.250855   -0.262724
     54          1           0        7.322099   -2.818031   -0.868955
     55          8           0        4.817197   -2.739635    1.267137
     56          1           0        5.885133   -1.105405   -1.197156
 ---------------------------------------------------------------------

 SCF Done:  E(RHF) =  -1369.59456549     A.U. after    2 cycles

 The electronic state is 1-A.
 Alpha  occ. eigenvalues --  -26.59527 -26.59513 -26.59124 -20.77921 -20.58407
 Alpha  occ. eigenvalues --  -15.71371 -15.61265 -11.61577 -11.47664 -11.47127
 Alpha  occ. eigenvalues --  -11.46287 -11.43584 -11.40763 -11.40445 -11.40022
 Alpha  occ. eigenvalues --  -11.39982 -11.39721 -11.39644 -11.38306 -11.38249
 Alpha  occ. eigenvalues --  -11.37214 -11.34651 -11.34497 -11.34336 -11.33563
 Alpha  occ. eigenvalues --  -11.33427 -11.33337 -11.31809  -1.80768  -1.70607
 Alpha  occ. eigenvalues --   -1.70096  -1.69955  -1.53834  -1.40917  -1.34029
 Alpha  occ. eigenvalues --   -1.31466  -1.30570  -1.22518  -1.20857  -1.17056
 Alpha  occ. eigenvalues --   -1.16796  -1.12329  -1.08747  -1.08258  -1.06522
 Alpha  occ. eigenvalues --   -1.05771  -1.05027  -1.01531  -1.00216  -0.98770
 Alpha  occ. eigenvalues --   -0.96219  -0.95441  -0.94152  -0.91294  -0.91006
 Alpha  occ. eigenvalues --   -0.90875  -0.89983  -0.89914  -0.89105  -0.82179
 Alpha  occ. eigenvalues --   -0.81487  -0.81117  -0.80808  -0.79378  -0.78398
 Alpha  occ. eigenvalues --   -0.77234  -0.76897  -0.76779  -0.75316  -0.75142
 Alpha  occ. eigenvalues --   -0.74406  -0.73209  -0.73054  -0.72402  -0.72016
 Alpha  occ. eigenvalues --   -0.71569  -0.70883  -0.70641  -0.70295  -0.69644
 Alpha  occ. eigenvalues --   -0.68957  -0.68309  -0.68225  -0.67603  -0.66965
 Alpha  occ. eigenvalues --   -0.65856  -0.65434  -0.64926  -0.64786  -0.64543
 Alpha  occ. eigenvalues --   -0.64408  -0.64227  -0.63388  -0.62592  -0.61680
 Alpha  occ. eigenvalues --   -0.60456  -0.60299  -0.59952  -0.57934  -0.57177
 Alpha  occ. eigenvalues --   -0.51687  -0.50375  -0.49789  -0.49090  -0.45844
 Alpha virt. eigenvalues --   -0.14683  -0.08517  -0.06635  -0.06114  -0.05124
 Alpha virt. eigenvalues --   -0.04462  -0.03934  -0.03732  -0.03569  -0.03388
 Alpha virt. eigenvalues --   -0.02768  -0.02457  -0.01852  -0.01457  -0.01167

 Mulliken charges:
               1
     1  C   -3.408981
     2  C   -3.558494
     3  C    0.372866
     4  C   -1.474990
     5  C    0.640858
     6  H    0.225914
     7  H    0.115041
     8  H    0.049180
     9  H    0.266906
    10  H    0.160840
    11  N    4.524890
    12  O   -2.523475
    13  C   -0.102773
    14  H    0.284013
    15  H    0.091115
    16  H    0.203066
    17  C    0.400662
    18  H   -0.045538
    19  H    0.218325
    20  H    0.233691
    21  C    0.075150
    22  H    0.242413
    23  H    0.289804
    24  H    0.198957
    25  C    0.281796
    26  H    0.221935
    27  H    0.103612
    28  H    0.239178
    29  C   -0.109261
    30  C    1.090977
    31  C   -0.357868
    32  H   -0.355261
    33  H    0.828047
    34  H   -0.234942
    35  C    1.286840
    36  C   -0.166500
    37  C    0.583338
    38  C    0.033047
    39  H   -0.342573
    40  C   -0.406023
    41  H   -0.332707
    42  C   -0.095875
    43  H   -0.268155
    44  H   -0.311319
    45  C    2.907656
    46  F   -0.821807
    47  F   -0.760794
    48  F   -0.826110
    49  N    1.498059
    50  C    0.927259
    51  C   -0.510357
    52  H    0.264265
    53  H    0.231294
    54  H    0.070635
    55  O   -1.395002
    56  H    0.247175
 Sum of Mulliken charges =   1.00000

 Dipole moment (field-independent basis, Debye):
    X=              1.4644    Y=              9.8027    Z=              0.0494  Tot=              9.9116

 Test job not archived.
 1\1\GINC-SE073\SP\RHF\Aug-CC-pVDZ\C21H28F3N2O2(1+)\OHZDE\09-Apr-2025\0
 \\#t hf aug-cc-pvdz iop(5/13=1,5/36=2,99/5=2) pseudo=read geom=check g
 uess=(read,tcheck) scf=(maxcycle=1)\\title\\1,1\C,0,1.608758,-0.329377
 ,-0.311197\C,0,3.148128,1.833182,-0.328583\C,0,4.310381,0.898517,-0.68
 3018\C,0,4.142307,-0.499353,-0.117071\C,0,2.866613,-1.113616,-0.682337
 \H,0,4.393134,0.837364,-1.773361\H,0,5.229919,1.356008,-0.312247\H,0,4
 .069862,-0.462657,0.971069\H,0,2.953579,-1.165404,-1.771902\H,0,2.7558
 02,-2.131694,-0.308322\N,0,1.858619,1.119661,-0.564146\O,0,0.817432,1.

 Normal termination of Gaussian 16 at Wed Apr  9 02:29:34 2025.
