 Gaussian 16, Revision C.01,

 ----------------------------------------------------------------------
 #t hf aug-cc-pvdz symm=none int=(grid=ultrafine) guess=(read,tcheck) s
 table=(opt,rrhf)
 ----------------------------------------------------------------------
 -----
 title
 -----
 Symbolic Z-matrix:
 Charge =  0 Multiplicity = 1

 SCF Done:  E(RHF) =  -1087.17984028     A.U. after   15 cycles
 Normal termination of Gaussian 16 at Wed Apr  9 00:59:09 2025.
 Gaussian 16:  ES64L-G16RevC.01  3-Jul-2019

 ----------------------------------------------------------------------
 #t hf aug-cc-pvdz iop(5/13=1,5/36=2,99/5=2) pseudo=read geom=check gue
 ss=(read,tcheck) scf=(maxcycle=1)
 ----------------------------------------------------------------------
 -----
 title
 -----
 Structure from the checkpoint file:  "BH10_172_reverse_mol3.chk"
 Charge =  0 Multiplicity = 1

                         Standard orientation:
 ---------------------------------------------------------------------
 Center     Atomic      Atomic             Coordinates (Angstroms)
 Number     Number       Type             X           Y           Z
 ---------------------------------------------------------------------
      1          6           0        1.392626    0.000993   -0.000254
      2          6           0        0.706547    1.203472   -0.002816
      3          6           0       -0.679594    1.199832   -0.007145
      4          6           0       -1.381727   -0.001272    0.005564
      5          6           0       -0.676549   -1.201534    0.010568
      6          6           0        0.708770   -1.203402    0.004210
      7         16           0       -3.156021   -0.078807   -0.018036
      8          1           0        1.251133    2.138280   -0.007590
      9          1           0       -1.209127    2.144470   -0.020720
     10          1           0       -1.209832   -2.144260    0.025794
     11          1           0        1.255226   -2.137056    0.008471
     12         17           0        3.138984    0.002952   -0.000913
     13          1           0       -3.374229    1.220754    0.237376
 ---------------------------------------------------------------------

 SCF Done:  E(RHF) =  -1087.54929120     A.U. after    2 cycles

 The electronic state is 1-A.
 Alpha  occ. eigenvalues -- -105.57571 -93.97268 -11.31247 -11.29486 -11.26703
 Alpha  occ. eigenvalues --  -11.26654 -11.26531 -11.26375 -10.62387  -8.25392
 Alpha  occ. eigenvalues --   -7.79356  -7.78955  -7.78936  -6.23249  -6.23098
 Alpha  occ. eigenvalues --   -6.22859  -1.20176  -1.12489  -1.05115  -1.04710
 Alpha  occ. eigenvalues --   -0.95916  -0.87229  -0.82638  -0.71180  -0.68920
 Alpha  occ. eigenvalues --   -0.66151  -0.62736  -0.59798  -0.56866  -0.55267
 Alpha  occ. eigenvalues --   -0.53631  -0.50263  -0.49136  -0.46941  -0.42207
 Alpha  occ. eigenvalues --   -0.37284  -0.32406
 Alpha virt. eigenvalues --    0.03227   0.03774   0.04227   0.05524   0.06429
 Alpha virt. eigenvalues --    0.07562   0.08356   0.09405   0.09967   0.10652
 Alpha virt. eigenvalues --    0.11686   0.12338   0.12858   0.13178   0.13537

 Mulliken charges:
               1
     1  C   -0.288052
     2  C    0.386913
     3  C    0.600542
     4  C    0.042895
     5  C   -0.071189
     6  C    0.250266
     7  S   -0.033927
     8  H   -0.170148
     9  H   -0.309028
    10  H   -0.221929
    11  H   -0.175053
    12  Cl  -0.328154
    13  H    0.316863
 Sum of Mulliken charges =   0.00000

 Dipole moment (field-independent basis, Debye):
    X=             -1.0474    Y=              0.8508    Z=              0.1725  Tot=              1.3604

 Test job not archived.
 1\1\GINC-SE458\SP\RHF\Aug-CC-pVDZ\C6H5Cl1S1\OHZDE\09-Apr-2025\0\\#t hf
  aug-cc-pvdz iop(5/13=1,5/36=2,99/5=2) pseudo=read geom=check guess=(r
 ead,tcheck) scf=(maxcycle=1)\\title\\0,1\C,0,1.392626,0.000993,-0.0002
 54\C,0,0.706547,1.203472,-0.002816\C,0,-0.679594,1.199832,-0.007145\C,
 0,-1.381727,-0.001272,0.005564\C,0,-0.676549,-1.201534,0.010568\C,0,0.
 70877,-1.203402,0.00421\S,0,-3.156021,-0.078807,-0.018036\H,0,1.251133
 ,2.13828,-0.00759\H,0,-1.209127,2.14447,-0.02072\H,0,-1.209832,-2.1442
 6,0.025794\H,0,1.255226,-2.137056,0.008471\Cl,0,3.138984,0.002952,-0.0

 Normal termination of Gaussian 16 at Wed Apr  9 00:59:14 2025.
