 Gaussian 16, Revision C.01,

 ----------------------------------------------------------------------
 #t hf aug-cc-pvdz symm=none int=(grid=ultrafine) guess=(read,tcheck) s
 table=(opt,rrhf)
 ----------------------------------------------------------------------
 -----
 title
 -----
 Symbolic Z-matrix:
 Charge =  0 Multiplicity = 1

 SCF Done:  E(RHF) =  -678.961083227     A.U. after   15 cycles
 Normal termination of Gaussian 16 at Wed Apr  9 01:21:16 2025.
 Gaussian 16:  ES64L-G16RevC.01  3-Jul-2019

 ----------------------------------------------------------------------
 #t hf aug-cc-pvdz iop(5/13=1,5/36=2,99/5=2) pseudo=read geom=check gue
 ss=(read,tcheck) scf=(maxcycle=1)
 ----------------------------------------------------------------------
 -----
 title
 -----
 Structure from the checkpoint file:  "BH10_284_forward_mol1.chk"
 Charge =  0 Multiplicity = 1

                         Standard orientation:
 ---------------------------------------------------------------------
 Center     Atomic      Atomic             Coordinates (Angstroms)
 Number     Number       Type             X           Y           Z
 ---------------------------------------------------------------------
      1          6           0       -0.569558   -0.961519    0.916453
      2          1           0        0.195540   -1.499377    1.489716
      3          5           0        0.032560   -0.063096   -0.236416
      4          6           0       -1.326339   -0.058512    1.908381
      5          1           0       -0.580697    0.549949    2.432772
      6          1           0       -1.817390   -0.667348    2.676227
      7          6           0       -1.445844   -2.025285    0.213301
      8          1           0       -0.774874   -2.700462   -0.330927
      9          6           0        1.537714    3.462684   -0.063551
     10          1           0        1.624711    3.705414    0.989806
     11          1           0        1.446427    4.288715   -0.756398
     12          6           0        1.541232    2.204636   -0.493626
     13          6           0        1.683992    1.035997    0.378368
     14          1           0        1.451011    2.004329   -1.555358
     15          1           0       -1.960819   -2.643092    0.957879
     16          1           0        2.024649    1.226121    1.390766
     17          6           0        1.977113   -0.224357   -0.127393
     18          8           0        1.171341   -0.679548   -1.050102
     19          8           0        2.831962   -1.036402    0.455054
     20          6           0        2.786305   -2.429035    0.098079
     21          1           0        1.785853   -2.828360    0.254856
     22          1           0        3.076716   -2.560455   -0.942749
     23          1           0        3.501085   -2.913993    0.756507
     24          6           0       -2.475532   -1.465694   -0.781617
     25          1           0       -2.845729   -2.287225   -1.402493
     26          1           0       -3.346364   -1.096596   -0.240951
     27          6           0       -1.091532    0.733077   -0.993187
     28          1           0       -0.704726    1.390320   -1.775719
     29          6           0       -1.930875   -0.360609   -1.699851
     30          1           0       -1.297440   -0.821568   -2.466229
     31          1           0       -2.765814    0.104582   -2.235712
     32          6           0       -1.876017    1.601858    0.007688
     33          1           0       -2.735150    2.064408   -0.491544
     34          1           0       -1.220030    2.425042    0.306837
     35          6           0       -2.363369    0.878845    1.273138
     36          1           0       -2.656414    1.629554    2.013467
     37          1           0       -3.273506    0.320614    1.054623
 ---------------------------------------------------------------------

 SCF Done:  E(RHF) =  -679.670811206     A.U. after    2 cycles

 The electronic state is 1-A.
 Alpha  occ. eigenvalues --  -20.61565 -20.57490 -11.41270 -11.31372 -11.25088
 Alpha  occ. eigenvalues --  -11.23814 -11.22082 -11.21793 -11.21531 -11.21382
 Alpha  occ. eigenvalues --  -11.21306 -11.20975 -11.20860 -11.19282 -11.18886
 Alpha  occ. eigenvalues --   -7.60445  -1.57988  -1.49496  -1.11163  -1.09950
 Alpha  occ. eigenvalues --   -1.03213  -1.02678  -1.01846  -0.96005  -0.92581
 Alpha  occ. eigenvalues --   -0.90432  -0.82822  -0.79262  -0.78627  -0.77609
 Alpha  occ. eigenvalues --   -0.74849  -0.74160  -0.70887  -0.70423  -0.66856
 Alpha  occ. eigenvalues --   -0.64409  -0.62835  -0.62621  -0.61368  -0.59375
 Alpha  occ. eigenvalues --   -0.58476  -0.57984  -0.57582  -0.56273  -0.54518
 Alpha  occ. eigenvalues --   -0.54045  -0.53306  -0.51312  -0.50649  -0.50101
 Alpha  occ. eigenvalues --   -0.49917  -0.48013  -0.47189  -0.46292  -0.45593
 Alpha  occ. eigenvalues --   -0.44056  -0.41805  -0.41248  -0.37818  -0.31298
 Alpha virt. eigenvalues --    0.02591   0.02899   0.03315   0.03611   0.04725
 Alpha virt. eigenvalues --    0.04764   0.04904   0.05037   0.05546   0.07071
 Alpha virt. eigenvalues --    0.07431   0.07600   0.07879   0.08199   0.08355

 Mulliken charges:
               1
     1  C   -0.456060
     2  H   -0.163979
     3  B    3.066190
     4  C   -0.210707
     5  H    0.161380
     6  H    0.066433
     7  C   -0.434810
     8  H    0.099263
     9  C   -0.065357
    10  H   -0.175582
    11  H   -0.192716
    12  C    0.484095
    13  C    0.164171
    14  H   -0.274118
    15  H    0.056654
    16  H   -0.397436
    17  C    2.419964
    18  O   -2.035392
    19  O   -1.774671
    20  C    0.087716
    21  H    0.127490
    22  H    0.170454
    23  H    0.006055
    24  C   -0.271730
    25  H    0.059921
    26  H    0.218018
    27  C   -0.474958
    28  H   -0.107120
    29  C   -0.277693
    30  H    0.170333
    31  H    0.041139
    32  C   -0.276804
    33  H    0.070116
    34  H    0.169403
    35  C   -0.308808
    36  H    0.058813
    37  H    0.200333
 Sum of Mulliken charges =   0.00000

 Dipole moment (field-independent basis, Debye):
    X=              1.4439    Y=             -1.9087    Z=              0.2853  Tot=              2.4103

 Test job not archived.
 1\1\GINC-SE024\SP\RHF\Aug-CC-pVDZ\C13H21B1O2\OHZDE\09-Apr-2025\0\\#t h
 f aug-cc-pvdz iop(5/13=1,5/36=2,99/5=2) pseudo=read geom=check guess=(
 read,tcheck) scf=(maxcycle=1)\\title\\0,1\C,0,-0.569558,-0.961519,0.91
 6453\H,0,0.19554,-1.499377,1.489716\B,0,0.03256,-0.063096,-0.236416\C,
 0,-1.326339,-0.058512,1.908381\H,0,-0.580697,0.549949,2.432772\H,0,-1.
 81739,-0.667349,2.676227\C,0,-1.445843,-2.025285,0.213301\H,0,-0.77487
 3,-2.700462,-0.330927\C,0,1.537713,3.462684,-0.063551\H,0,1.62471,3.70
 5414,0.989806\H,0,1.446426,4.288715,-0.756398\C,0,1.541231,2.204636,-0

 Normal termination of Gaussian 16 at Wed Apr  9 01:22:23 2025.
