 Gaussian 16, Revision C.01,

 ----------------------------------------------------------------------
 #t hf aug-cc-pvdz symm=none int=(grid=ultrafine) guess=(read,tcheck) s
 table=(opt,rrhf)
 ----------------------------------------------------------------------
 -----
 title
 -----
 Symbolic Z-matrix:
 Charge =  0 Multiplicity = 1

 SCF Done:  E(RHF) =  -725.808501210     A.U. after   14 cycles
 Normal termination of Gaussian 16 at Wed Apr  9 01:23:59 2025.
 Gaussian 16:  ES64L-G16RevC.01  3-Jul-2019

 ----------------------------------------------------------------------
 #t hf aug-cc-pvdz iop(5/13=1,5/36=2,99/5=2) pseudo=read geom=check gue
 ss=(read,tcheck) scf=(maxcycle=1)
 ----------------------------------------------------------------------
 -----
 title
 -----
 Structure from the checkpoint file:  "BH10_322_forward_mol2.chk"
 Charge =  0 Multiplicity = 1

                         Standard orientation:
 ---------------------------------------------------------------------
 Center     Atomic      Atomic             Coordinates (Angstroms)
 Number     Number       Type             X           Y           Z
 ---------------------------------------------------------------------
      1          6           0        1.053369    0.025774   -0.018733
      2          8           0        1.602967    0.671159   -0.865082
      3          8           0        1.605813   -1.041886    0.574795
      4          6           0       -0.334709    0.308851    0.524242
      5          6           0       -0.771111    1.732747    0.277637
      6          1           0       -0.100040    2.416920    0.801536
      7          1           0       -1.784703    1.883743    0.646979
      8          1           0       -0.734226    1.965857   -0.785285
      9         17           0       -1.461431   -0.856054   -0.281308
     10          1           0        2.467970   -1.196514    0.163433
     11          1           0       -0.360202    0.044498    1.578997
 ---------------------------------------------------------------------

 SCF Done:  E(RHF) =  -726.152340960     A.U. after    2 cycles

 The electronic state is 1-A.
 Alpha  occ. eigenvalues -- -105.57184 -20.61589 -20.55582 -11.41219 -11.33321
 Alpha  occ. eigenvalues --  -11.25189 -10.61988  -7.78933  -7.78548  -7.78534
 Alpha  occ. eigenvalues --   -1.56926  -1.47375  -1.14807  -1.00700  -0.93632
 Alpha  occ. eigenvalues --   -0.80675  -0.73734  -0.71882  -0.66532  -0.62627
 Alpha  occ. eigenvalues --   -0.61577  -0.58049  -0.55530  -0.53217  -0.49349
 Alpha  occ. eigenvalues --   -0.48590  -0.45857  -0.44477
 Alpha virt. eigenvalues --    0.03371   0.03889   0.04935   0.05448   0.07067
 Alpha virt. eigenvalues --    0.08562   0.10504   0.11287   0.11867   0.13377
 Alpha virt. eigenvalues --    0.13831   0.14896   0.15312   0.16394   0.17133

 Mulliken charges:
               1
     1  C    2.253954
     2  O   -1.166256
     3  O   -1.190388
     4  C   -0.864817
     5  C   -0.136614
     6  H    0.193627
     7  H    0.148258
     8  H    0.234202
     9  Cl  -0.028139
    10  H    0.364957
    11  H    0.191216
 Sum of Mulliken charges =  -0.00000

 Dipole moment (field-independent basis, Debye):
    X=              0.5706    Y=              0.4306    Z=              1.9221  Tot=              2.0507

 Test job not archived.
 1\1\GINC-SE335\SP\RHF\Aug-CC-pVDZ\C3H5Cl1O2\OHZDE\09-Apr-2025\0\\#t hf
  aug-cc-pvdz iop(5/13=1,5/36=2,99/5=2) pseudo=read geom=check guess=(r
 ead,tcheck) scf=(maxcycle=1)\\title\\0,1\C,0,1.053369,0.025775,-0.0187
 33\O,0,1.602966,0.67116,-0.865082\O,0,1.605813,-1.041885,0.574795\C,0,
 -0.334709,0.308851,0.524242\C,0,-0.771112,1.732747,0.277637\H,0,-0.100
 041,2.41692,0.801536\H,0,-1.784704,1.883742,0.646979\H,0,-0.734227,1.9
 65857,-0.785285\Cl,0,-1.461431,-0.856055,-0.281308\H,0,2.46797,-1.1965
 13,0.163433\H,0,-0.360202,0.044498,1.578997\\Version=ES64L-G16RevC.01\

 Normal termination of Gaussian 16 at Wed Apr  9 01:24:03 2025.
