 Gaussian 16, Revision C.01,

 ----------------------------------------------------------------------
 #t hf aug-cc-pvdz symm=none int=(grid=ultrafine) guess=(read,tcheck) s
 table=(opt,rrhf)
 ----------------------------------------------------------------------
 -----
 title
 -----
 Symbolic Z-matrix:
 Charge =  0 Multiplicity = 1

 SCF Done:  E(RHF) =  -988.506879873     A.U. after   15 cycles
 Normal termination of Gaussian 16 at Wed Apr  9 02:02:00 2025.
 Gaussian 16:  ES64L-G16RevC.01  3-Jul-2019

 ----------------------------------------------------------------------
 #t hf aug-cc-pvdz iop(5/13=1,5/36=2,99/5=2) pseudo=read geom=check gue
 ss=(read,tcheck) scf=(maxcycle=1)
 ----------------------------------------------------------------------
 -----
 title
 -----
 Structure from the checkpoint file:  "BH10_369_reverse_mol2.chk"
 Charge =  0 Multiplicity = 1

                         Standard orientation:
 ---------------------------------------------------------------------
 Center     Atomic      Atomic             Coordinates (Angstroms)
 Number     Number       Type             X           Y           Z
 ---------------------------------------------------------------------
      1          6           0        0.351797   -1.030408   -0.099709
      2          6           0       -0.835754   -0.307131   -0.085500
      3          6           0        1.841970   -0.728326   -0.052180
      4          6           0       -1.207075    1.168981   -0.070653
      5          6           0        2.240170    0.642886   -0.594236
      6          1           0        3.319228    0.756565   -0.476687
      7          1           0        2.024826    0.712559   -1.663187
      8          6           0       -0.091358    2.069196   -0.627067
      9          1           0       -0.451819    3.097734   -0.577932
     10          7           0        0.034121   -2.352943   -0.014257
     11          7           0       -1.237831   -2.500450    0.057082
     12          7           0       -1.792379   -1.286322    0.020744
     13          6           0       -3.241516   -1.252725    0.108804
     14          1           0       -3.572286   -0.550071    0.870588
     15          1           0       -3.692176   -0.999323   -0.849169
     16          1           0       -3.544236   -2.257550    0.391763
     17         16           0        1.508220    2.087936    0.208947
     18          6           0       -2.414983    1.466094   -0.984170
     19          1           0       -3.358469    1.132718   -0.561495
     20          1           0       -2.500157    2.544889   -1.127860
     21          1           0       -2.291735    1.006724   -1.967341
     22          6           0       -1.528400    1.594087    1.370486
     23          1           0       -1.843531    2.640718    1.392963
     24          1           0       -2.332139    0.992850    1.797418
     25          1           0       -0.649889    1.486660    2.006289
     26          6           0        2.588239   -1.761180   -0.914133
     27          1           0        3.663680   -1.571885   -0.868779
     28          1           0        2.393103   -2.771809   -0.562736
     29          1           0        2.271788   -1.702035   -1.958168
     30          6           0        2.305380   -0.871441    1.406124
     31          1           0        2.059867   -1.866131    1.778977
     32          1           0        3.387857   -0.732078    1.475985
     33          1           0        1.823234   -0.131295    2.045943
     34          1           0        0.083135    1.841592   -1.681308
 ---------------------------------------------------------------------

 SCF Done:  E(RHF) =  -989.188766168     A.U. after    2 cycles

 The electronic state is 1-A.
 Alpha  occ. eigenvalues --  -93.93843 -15.58732 -15.56465 -15.51728 -11.28919
 Alpha  occ. eigenvalues --  -11.28412 -11.27663 -11.27117 -11.26165 -11.25235
 Alpha  occ. eigenvalues --  -11.25172 -11.24379 -11.23698 -11.21571 -11.21540
 Alpha  occ. eigenvalues --   -8.22004  -6.19828  -6.19673  -6.19466  -1.42894
 Alpha  occ. eigenvalues --   -1.22867  -1.16162  -1.11689  -1.08697  -1.03407
 Alpha  occ. eigenvalues --   -1.00343  -0.95732  -0.94469  -0.93140  -0.88906
 Alpha  occ. eigenvalues --   -0.87309  -0.82157  -0.78903  -0.77092  -0.70437
 Alpha  occ. eigenvalues --   -0.69939  -0.66873  -0.64538  -0.62551  -0.62271
 Alpha  occ. eigenvalues --   -0.61800  -0.60635  -0.59532  -0.59490  -0.57968
 Alpha  occ. eigenvalues --   -0.56703  -0.55701  -0.54432  -0.53936  -0.52755
 Alpha  occ. eigenvalues --   -0.51931  -0.51176  -0.50602  -0.49499  -0.48659
 Alpha  occ. eigenvalues --   -0.47198  -0.46845  -0.43098  -0.42841  -0.36151
 Alpha  occ. eigenvalues --   -0.34402
 Alpha virt. eigenvalues --    0.02709   0.03109   0.03227   0.03809   0.04003
 Alpha virt. eigenvalues --    0.04424   0.05058   0.05794   0.06131   0.07470
 Alpha virt. eigenvalues --    0.07882   0.07990   0.08053   0.08272   0.08917

 Mulliken charges:
               1
     1  C   -0.362026
     2  C   -2.565682
     3  C   -1.369207
     4  C   -0.157332
     5  C   -0.027315
     6  H    0.082415
     7  H    0.101467
     8  C   -0.137370
     9  H    0.034843
    10  N   -0.170180
    11  N    0.375438
    12  N    1.457227
    13  C   -0.127025
    14  H    0.212247
    15  H    0.263919
    16  H   -0.015014
    17  S    0.625505
    18  C   -0.042936
    19  H    0.112313
    20  H    0.114594
    21  H    0.169762
    22  C   -0.127183
    23  H    0.210472
    24  H    0.061861
    25  H    0.261807
    26  C   -0.000416
    27  H    0.135294
    28  H    0.271980
    29  H    0.211815
    30  C   -0.297293
    31  H    0.255039
    32  H    0.160073
    33  H    0.182774
    34  H    0.098133
 Sum of Mulliken charges =  -0.00000

 Dipole moment (field-independent basis, Debye):
    X=             -2.5527    Y=              3.4003    Z=             -0.9297  Tot=              4.3523

 Test job not archived.
 1\1\GINC-SE292\SP\RHF\Aug-CC-pVDZ\C11H19N3S1\OHZDE\09-Apr-2025\0\\#t h
 f aug-cc-pvdz iop(5/13=1,5/36=2,99/5=2) pseudo=read geom=check guess=(
 read,tcheck) scf=(maxcycle=1)\\title\\0,1\C,0,0.351797,-1.030408,-0.09
 9709\C,0,-0.835754,-0.307131,-0.0855\C,0,1.84197,-0.728326,-0.05218\C,
 0,-1.207075,1.168981,-0.070653\C,0,2.24017,0.642886,-0.594236\H,0,3.31
 9228,0.756566,-0.476687\H,0,2.024826,0.712559,-1.663187\C,0,-0.091358,
 2.069196,-0.627067\H,0,-0.45182,3.097734,-0.577932\N,0,0.034121,-2.352
 943,-0.014257\N,0,-1.237831,-2.50045,0.057082\N,0,-1.792379,-1.286322,

 Normal termination of Gaussian 16 at Wed Apr  9 02:02:53 2025.
