 Gaussian 16, Revision C.01,

 ----------------------------------------------------------------------
 #t hf aug-cc-pvdz symm=none int=(grid=ultrafine) guess=(read,tcheck) s
 table=opt
 ----------------------------------------------------------------------
 -----
 title
 -----
 Symbolic Z-matrix:
 Charge =  0 Multiplicity = 2

 SCF Done:  E(UHF) =  -741.877672761     A.U. after   22 cycles
 Normal termination of Gaussian 16 at Wed Apr  9 00:59:13 2025.
 Gaussian 16:  ES64L-G16RevC.01  3-Jul-2019

 ----------------------------------------------------------------------
 #t hf aug-cc-pvdz iop(5/13=1,5/36=2,99/5=2) pseudo=read geom=check gue
 ss=(read,tcheck) scf=(maxcycle=1)
 ----------------------------------------------------------------------
 -----
 title
 -----
 Structure from the checkpoint file:  "BH10_163_reverse_mol2.chk"
 Charge =  0 Multiplicity = 2

                         Standard orientation:
 ---------------------------------------------------------------------
 Center     Atomic      Atomic             Coordinates (Angstroms)
 Number     Number       Type             X           Y           Z
 ---------------------------------------------------------------------
      1          6           0       -1.810488   -1.335143   -0.717672
      2         16           0       -2.107723    0.330296   -0.066328
      3          6           0       -0.637162    0.532269    1.018802
      4          6           0        0.618848    0.662145    0.245453
      5          6           0        0.949667    1.950297   -0.415336
      6          6           0        1.473904   -0.501144    0.158030
      7          8           0        2.610355   -0.296823   -0.553455
      8          8           0        1.231166   -1.580537    0.662142
      9          1           0       -0.959087   -1.358377   -1.395456
     10          1           0       -1.650378   -2.043617    0.093322
     11          1           0       -2.708313   -1.613650   -1.268293
     12          1           0        0.056219    2.372724   -0.882240
     13          1           0        1.730647    1.839755   -1.163761
     14          1           0        1.297429    2.678734    0.328737
     15          1           0       -0.844170    1.447776    1.576536
     16          1           0       -0.596440   -0.308249    1.708587
     17          1           0        3.096879   -1.131495   -0.541340
 ---------------------------------------------------------------------

 SCF Done:  E(UHF) =  -742.289178877     A.U. after    2 cycles

 The electronic state is 2-A.
 Alpha  occ. eigenvalues --  -93.94466 -20.59885 -20.55017 -11.38766 -11.28267
 Alpha  occ. eigenvalues --  -11.27316 -11.25944 -11.24257  -8.22538  -6.20465
 Alpha  occ. eigenvalues --   -6.20216  -6.19960  -1.55163  -1.46147  -1.14260
 Alpha  occ. eigenvalues --   -1.06252  -0.96262  -0.93153  -0.84670  -0.76986
 Alpha  occ. eigenvalues --   -0.71813  -0.69877  -0.66688  -0.61817  -0.61313
 Alpha  occ. eigenvalues --   -0.59701  -0.58976  -0.58879  -0.56794  -0.54194
 Alpha  occ. eigenvalues --   -0.51517  -0.50727  -0.46284  -0.45676  -0.36738
 Alpha  occ. eigenvalues --   -0.34819
 Alpha virt. eigenvalues --    0.03427   0.03587   0.04258   0.04525   0.05937
 Alpha virt. eigenvalues --    0.06298   0.06861   0.07357   0.08016   0.10517
 Alpha virt. eigenvalues --    0.11303   0.11791   0.13311   0.13784   0.14280

  Beta  occ. eigenvalues --  -93.94365 -20.59919 -20.53788 -11.39327 -11.27668
  Beta  occ. eigenvalues --  -11.26103 -11.25954 -11.24530  -8.22419  -6.20225
  Beta  occ. eigenvalues --   -6.20005  -6.19869  -1.54645  -1.44082  -1.11301
  Beta  occ. eigenvalues --   -1.04438  -0.96310  -0.91989  -0.84094  -0.75720
  Beta  occ. eigenvalues --   -0.71075  -0.68664  -0.63116  -0.61504  -0.60507
  Beta  occ. eigenvalues --   -0.59173  -0.58748  -0.57257  -0.56307  -0.53851
  Beta  occ. eigenvalues --   -0.50552  -0.45414  -0.44868  -0.44370  -0.34935
  Beta virt. eigenvalues --    0.03440   0.03568   0.04125   0.04462   0.05056
  Beta virt. eigenvalues --    0.05955   0.06307   0.06908   0.07373   0.08026
  Beta virt. eigenvalues --    0.10632   0.11351   0.11890   0.13342   0.13888

 Mulliken charges and spin densities:
               1          2
     1  C   -0.732897   0.002416
     2  S    0.380143   0.075542
     3  C   -0.348850  -0.232839
     4  C    0.013348   1.445968
     5  C   -0.658186  -0.204386
     6  C    2.577021  -0.451456
     7  O   -1.492831   0.001116
     8  O   -1.384388   0.290369
     9  H    0.207285  -0.005680
    10  H    0.194381   0.000635
    11  H    0.107296  -0.001282
    12  H    0.243924   0.019430
    13  H    0.119559   0.004365
    14  H    0.263973   0.040916
    15  H    0.076594   0.013048
    16  H   -0.018287   0.004698
    17  H    0.451915  -0.002859
 Sum of Mulliken charges =  -0.00000   1.00000

 Dipole moment (field-independent basis, Debye):
    X=              1.3447    Y=              0.6194    Z=             -0.4734  Tot=              1.5543
                          Isotropic Fermi Contact Couplings
        Atom                 a.u.       MegaHertz       Gauss      10(-4) cm-1
     1  C(13)             -0.00183      -2.05465      -0.73315      -0.68536
     2  S(33)              0.03660      12.57112       4.48569       4.19328
     3  C(13)             -0.06133     -68.94930     -24.60283     -22.99901
     4  C(13)              0.18810     211.45984      75.45413      70.53541
     5  C(13)             -0.05053     -56.80006     -20.26767     -18.94646
     6  C(13)             -0.08654     -97.29022     -34.71557     -32.45252
     7  O(17)             -0.01158       7.02174       2.50553       2.34220
     8  O(17)              0.09535     -57.80050     -20.62466     -19.28017

 Normal termination of Gaussian 16 at Wed Apr  9 00:59:21 2025.
