 Gaussian 16, Revision C.01,

 ----------------------------------------------------------------------
 #t hf aug-cc-pvdz symm=none int=(grid=ultrafine) guess=(read,tcheck) s
 table=(opt,rrhf)
 ----------------------------------------------------------------------
 -----
 title
 -----
 Symbolic Z-matrix:
 Charge =  0 Multiplicity = 1

 SCF Done:  E(RHF) =  -521.908113328     A.U. after   13 cycles
 Normal termination of Gaussian 16 at Wed Apr  9 00:56:17 2025.
 Gaussian 16:  ES64L-G16RevC.01  3-Jul-2019

 ----------------------------------------------------------------------
 #t hf aug-cc-pvdz iop(5/13=1,5/36=2,99/5=2) pseudo=read geom=check gue
 ss=(read,tcheck) scf=(maxcycle=1)
 ----------------------------------------------------------------------
 -----
 title
 -----
 Structure from the checkpoint file:  "BH10-RE_125_mol3.chk"
 Charge =  0 Multiplicity = 1

                         Standard orientation:
 ---------------------------------------------------------------------
 Center     Atomic      Atomic             Coordinates (Angstroms)
 Number     Number       Type             X           Y           Z
 ---------------------------------------------------------------------
      1          6           0        1.963488   -0.158892    0.000005
      2          6           0        0.564933   -0.766590   -0.000100
      3          6           0       -0.579649    0.213799   -0.000035
      4          8           0       -1.748986   -0.436848   -0.000075
      5          8           0       -0.494886    1.414709    0.000038
      6          6           0       -2.937728    0.377260   -0.000023
      7          6           0       -4.123842   -0.554665    0.000053
      8          6           0        2.274973    0.618102   -1.261739
      9          6           0        2.274875    0.617879    1.261909
     10          1           0        0.452659   -1.414285   -0.872937
     11          1           0       -2.918808    1.020195   -0.881493
     12          1           0       -2.918714    1.020226    0.881421
     13          1           0       -4.117731   -1.192322   -0.885114
     14          1           0       -5.048783    0.025311    0.000070
     15          1           0       -4.117663   -1.192266    0.885260
     16          1           0        2.098566   -0.001533   -2.142930
     17          1           0        3.322423    0.922468   -1.257765
     18          1           0        1.646869    1.506652   -1.319216
     19          1           0        2.098414   -0.001917    2.142976
     20          1           0        1.646757    1.506412    1.319502
     21          1           0        3.322321    0.922260    1.258065
     22          1           0        0.452606   -1.414470    0.872593
     23          9           0        2.823307   -1.290109   -0.000062
 ---------------------------------------------------------------------

 SCF Done:  E(RHF) =  -522.441381873     A.U. after    2 cycles

 The electronic state is 1-A.
 Alpha  occ. eigenvalues --  -26.43141 -20.59229 -20.53935 -11.39495 -11.32590
 Alpha  occ. eigenvalues --  -11.30208 -11.25616 -11.23967 -11.22626 -11.22601
 Alpha  occ. eigenvalues --   -1.55414  -1.55024  -1.45866  -1.10639  -1.05625
 Alpha  occ. eigenvalues --   -0.99306  -0.95361  -0.88125  -0.81182  -0.77762
 Alpha  occ. eigenvalues --   -0.71638  -0.69938  -0.68900  -0.66602  -0.66280
 Alpha  occ. eigenvalues --   -0.63135  -0.62083  -0.58564  -0.57140  -0.57111
 Alpha  occ. eigenvalues --   -0.56124  -0.54316  -0.54075  -0.53655  -0.52154
 Alpha  occ. eigenvalues --   -0.51338  -0.48643  -0.48383  -0.45881  -0.44647
 Alpha virt. eigenvalues --    0.03315   0.03689   0.03953   0.04236   0.04990
 Alpha virt. eigenvalues --    0.05446   0.06020   0.06570   0.07464   0.07899
 Alpha virt. eigenvalues --    0.08070   0.09397   0.10304   0.10674   0.11411

 Mulliken charges:
               1
     1  C    0.691574
     2  C   -0.961223
     3  C    2.114298
     4  O   -1.402712
     5  O   -1.239845
     6  C    0.433321
     7  C   -0.523945
     8  C   -0.280685
     9  C   -0.280686
    10  H    0.191577
    11  H    0.134872
    12  H    0.134894
    13  H    0.195804
    14  H    0.152192
    15  H    0.195794
    16  H    0.195180
    17  H    0.171403
    18  H    0.258813
    19  H    0.195182
    20  H    0.258813
    21  H    0.171402
    22  H    0.191563
    23  F   -0.997586
 Sum of Mulliken charges =  -0.00000

 Dipole moment (field-independent basis, Debye):
    X=             -2.3155    Y=             -0.0210    Z=              0.0000  Tot=              2.3156

 Test job not archived.
 1\1\GINC-SE073\SP\RHF\Aug-CC-pVDZ\C7H13F1O2\OHZDE\09-Apr-2025\0\\#t hf
  aug-cc-pvdz iop(5/13=1,5/36=2,99/5=2) pseudo=read geom=check guess=(r
 ead,tcheck) scf=(maxcycle=1)\\title\\0,1\C,0,1.963488,-0.158892,0.0000
 05\C,0,0.564933,-0.76659,-0.0001\C,0,-0.579649,0.213799,-0.000035\O,0,
 -1.748986,-0.436848,-0.000075\O,0,-0.494886,1.414709,0.000038\C,0,-2.9
 37728,0.37726,-0.000023\C,0,-4.123842,-0.554665,0.000053\C,0,2.274973,
 0.618102,-1.261739\C,0,2.274875,0.617879,1.261909\H,0,0.452659,-1.4142
 85,-0.872937\H,0,-2.918808,1.020195,-0.881493\H,0,-2.918714,1.020226,0

 Normal termination of Gaussian 16 at Wed Apr  9 00:56:31 2025.
