 Gaussian 16, Revision C.01,

 ----------------------------------------------------------------------
 #t hf aug-cc-pvdz symm=none int=(grid=ultrafine) guess=(read,tcheck) s
 table=(opt,rrhf)
 ----------------------------------------------------------------------
 -----
 title
 -----
 Symbolic Z-matrix:
 Charge =  0 Multiplicity = 1

 SCF Done:  E(RHF) =  -893.758953498     A.U. after   16 cycles
 Normal termination of Gaussian 16 at Wed Apr  9 02:09:37 2025.
 Gaussian 16:  ES64L-G16RevC.01  3-Jul-2019

 ----------------------------------------------------------------------
 #t hf aug-cc-pvdz iop(5/13=1,5/36=2,99/5=2) pseudo=read geom=check gue
 ss=(read,tcheck) scf=(maxcycle=1)
 ----------------------------------------------------------------------
 -----
 title
 -----
 Structure from the checkpoint file:  "BH10_91_forward_mol1.chk"
 Charge =  0 Multiplicity = 1

                         Standard orientation:
 ---------------------------------------------------------------------
 Center     Atomic      Atomic             Coordinates (Angstroms)
 Number     Number       Type             X           Y           Z
 ---------------------------------------------------------------------
      1          6           0        0.759371   -1.174278    0.472785
      2          6           0        0.500566   -0.462347    1.613797
      3          6           0        1.107667    1.239166    0.163792
      4          6           0        0.715334    0.917159    1.444358
      5          1           0        1.476047    2.209984   -0.139796
      6          1           0        0.504345    1.654274    2.208504
      7          1           0        0.077339   -0.902050    2.507436
      8          1           0        0.719815   -2.248872    0.365421
      9         16           0        1.857157   -0.225319   -0.639042
     10          6           0       -2.467681    0.547166    0.467290
     11          6           0       -0.844192   -0.452945   -1.016072
     12          6           0       -0.641352    0.923569   -1.062520
     13          6           0       -1.761011    1.648386   -0.332240
     14          1           0       -2.135821    0.529652    1.509222
     15          1           0       -0.501374   -1.157061   -1.760276
     16          1           0       -0.154951    1.395400   -1.906405
     17          1           0       -2.436864    2.077251   -1.077645
     18          1           0       -1.406168    2.470786    0.288308
     19          1           0       -3.554490    0.619955    0.474545
     20          8           0        3.268425   -0.368785   -0.159778
     21          6           0       -2.027563   -0.758601   -0.180026
     22          8           0       -2.562077   -1.832197   -0.049175
 ---------------------------------------------------------------------

 SCF Done:  E(RHF) =  -894.322321915     A.U. after    2 cycles

 The electronic state is 1-A.
 Alpha  occ. eigenvalues --  -94.08607 -20.53219 -20.50515 -11.34211 -11.30487
 Alpha  occ. eigenvalues --  -11.29712 -11.29444 -11.28146 -11.27288 -11.26813
 Alpha  occ. eigenvalues --  -11.26535 -11.25449  -8.35272  -6.33100  -6.32944
 Alpha  occ. eigenvalues --   -6.32760  -1.47015  -1.43915  -1.19987  -1.15282
 Alpha  occ. eigenvalues --   -1.02417  -1.01928  -0.98509  -0.95048  -0.82019
 Alpha  occ. eigenvalues --   -0.81416  -0.77875  -0.75116  -0.74036  -0.69962
 Alpha  occ. eigenvalues --   -0.67464  -0.62237  -0.61190  -0.60897  -0.59913
 Alpha  occ. eigenvalues --   -0.59163  -0.58535  -0.57848  -0.56401  -0.55940
 Alpha  occ. eigenvalues --   -0.53961  -0.51252  -0.48415  -0.43056  -0.41051
 Alpha  occ. eigenvalues --   -0.38491  -0.36143  -0.35199
 Alpha virt. eigenvalues --    0.02218   0.02479   0.03264   0.03616   0.03784
 Alpha virt. eigenvalues --    0.04650   0.05102   0.05493   0.05986   0.07497
 Alpha virt. eigenvalues --    0.07754   0.08695   0.09299   0.11037   0.11766

 Mulliken charges:
               1
     1  C   -0.143099
     2  C    0.333964
     3  C   -0.347316
     4  C    0.409503
     5  H   -0.244495
     6  H   -0.170198
     7  H   -0.169442
     8  H   -0.276054
     9  S    1.950396
    10  C   -0.426975
    11  C    0.333208
    12  C    0.349827
    13  C   -0.253448
    14  H    0.332196
    15  H   -0.182587
    16  H   -0.121569
    17  H    0.143956
    18  H    0.158300
    19  H    0.138352
    20  O   -1.549275
    21  C    1.302895
    22  O   -1.568140
 Sum of Mulliken charges =   0.00000

 Dipole moment (field-independent basis, Debye):
    X=             -2.6885    Y=              4.1515    Z=              0.3554  Tot=              4.9587

 Test job not archived.
 1\1\GINC-SE404\SP\RHF\Aug-CC-pVDZ\C9H10O2S1\OHZDE\09-Apr-2025\0\\#t hf
  aug-cc-pvdz iop(5/13=1,5/36=2,99/5=2) pseudo=read geom=check guess=(r
 ead,tcheck) scf=(maxcycle=1)\\title\\0,1\C,0,0.759371,-1.174278,0.4727
 85\C,0,0.500566,-0.462347,1.613797\C,0,1.107667,1.239166,0.163792\C,0,
 0.715334,0.917159,1.444358\H,0,1.476047,2.209984,-0.139796\H,0,0.50434
 5,1.654274,2.208504\H,0,0.077339,-0.90205,2.507436\H,0,0.719815,-2.248
 872,0.365421\S,0,1.857157,-0.225319,-0.639042\C,0,-2.467681,0.547166,0
 .46729\C,0,-0.844192,-0.452945,-1.016072\C,0,-0.641352,0.923569,-1.062

 Normal termination of Gaussian 16 at Wed Apr  9 02:09:56 2025.
