 Gaussian 16, Revision C.01,

 ----------------------------------------------------------------------
 #t hf aug-cc-pvdz symm=none int=(grid=ultrafine) guess=(read,tcheck) s
 table=(opt,rrhf)
 ----------------------------------------------------------------------
 -----
 title
 -----
 Symbolic Z-matrix:
 Charge =  0 Multiplicity = 1

 SCF Done:  E(RHF) =  -1024.98660953     A.U. after   15 cycles
 Normal termination of Gaussian 16 at Wed Apr  9 01:47:11 2025.
 Gaussian 16:  ES64L-G16RevC.01  3-Jul-2019

 ----------------------------------------------------------------------
 #t hf aug-cc-pvdz iop(5/13=1,5/36=2,99/5=2) pseudo=read geom=check gue
 ss=(read,tcheck) scf=(maxcycle=1)
 ----------------------------------------------------------------------
 -----
 title
 -----
 Structure from the checkpoint file:  "BH10_345_forward_mol1.chk"
 Charge =  0 Multiplicity = 1

                         Standard orientation:
 ---------------------------------------------------------------------
 Center     Atomic      Atomic             Coordinates (Angstroms)
 Number     Number       Type             X           Y           Z
 ---------------------------------------------------------------------
      1          7           0        0.625986    0.959617   -0.355103
      2          6           0        1.939896    0.603313    0.013679
      3          6           0        2.136271   -0.722653    0.055135
      4         16           0        0.669214   -1.590377   -0.369917
      5          6           0       -0.207574   -0.096923   -0.537302
      6          6           0        2.940257    1.668359    0.314627
      7          1           0        3.150095    2.289877   -0.559489
      8          1           0        3.878375    1.217193    0.628328
      9          1           0        2.600054    2.320559    1.122159
     10          6           0        3.364989   -1.500153    0.390460
     11          1           0        4.204409   -0.841101    0.606496
     12          1           0        3.657969   -2.149427   -0.438362
     13          1           0        3.203602   -2.134325    1.265545
     14          6           0        0.197205    2.348075   -0.495198
     15          1           0        1.064188    2.995000   -0.417997
     16          1           0       -0.510995    2.606440    0.289304
     17          1           0       -0.253291    2.502597   -1.473680
     18          6           0       -1.588809   -0.150829   -0.719245
     19          6           0       -2.463175    0.907138   -1.344408
     20          1           0       -2.314462    1.896005   -0.919017
     21          1           0       -3.504102    0.628587   -1.173890
     22          1           0       -2.315637    0.956949   -2.428284
     23          8           0       -2.011280   -1.447000   -1.010788
     24          6           0       -2.079057    0.052831    1.351918
     25          8           0       -1.675114    1.101187    1.728957
     26          8           0       -2.672884   -0.961703    1.527345
     27          1           0       -2.515339   -1.754455   -0.238841
 ---------------------------------------------------------------------

 SCF Done:  E(RHF) =  -1025.67916981     A.U. after    2 cycles

 The electronic state is 1-A.
 Alpha  occ. eigenvalues --  -93.98491 -20.56394 -20.55828 -20.54204 -15.57247
 Alpha  occ. eigenvalues --  -11.42225 -11.34543 -11.30298 -11.28832 -11.28086
 Alpha  occ. eigenvalues --  -11.27538 -11.26597 -11.25871 -11.23553  -8.26680
 Alpha  occ. eigenvalues --   -6.24444  -6.24321  -6.24088  -1.53655  -1.48313
 Alpha  occ. eigenvalues --   -1.45295  -1.33036  -1.14255  -1.10310  -1.03117
 Alpha  occ. eigenvalues --   -1.01616  -0.98037  -0.95047  -0.87746  -0.82964
 Alpha  occ. eigenvalues --   -0.75932  -0.74628  -0.72668  -0.70341  -0.68395
 Alpha  occ. eigenvalues --   -0.67207  -0.65965  -0.64094  -0.62683  -0.61595
 Alpha  occ. eigenvalues --   -0.61523  -0.60867  -0.59588  -0.58340  -0.58203
 Alpha  occ. eigenvalues --   -0.57089  -0.56273  -0.55170  -0.53864  -0.52854
 Alpha  occ. eigenvalues --   -0.50351  -0.46934  -0.46399  -0.45218  -0.42678
 Alpha  occ. eigenvalues --   -0.38818  -0.28271
 Alpha virt. eigenvalues --    0.02411   0.02907   0.03477   0.04108   0.04476
 Alpha virt. eigenvalues --    0.05138   0.05509   0.05910   0.06597   0.07541
 Alpha virt. eigenvalues --    0.07850   0.08784   0.09180   0.10131   0.10595

 Mulliken charges:
               1
     1  N    1.721215
     2  C   -0.362177
     3  C   -0.284537
     4  S    0.671296
     5  C   -2.063702
     6  C   -0.692650
     7  H    0.364932
     8  H    0.020109
     9  H    0.377310
    10  C   -0.685245
    11  H    0.116259
    12  H    0.291775
    13  H    0.308741
    14  C   -0.253674
    15  H   -0.224386
    16  H    0.331858
    17  H    0.235551
    18  C    1.577890
    19  C   -0.391064
    20  H    0.176216
    21  H    0.072599
    22  H    0.201043
    23  O   -1.627195
    24  C    1.797887
    25  O   -0.958503
    26  O   -1.044080
    27  H    0.322533
 Sum of Mulliken charges =  -0.00000

 Dipole moment (field-independent basis, Debye):
    X=              5.1384    Y=              2.8370    Z=             -1.5048  Tot=              6.0594

 Test job not archived.
 1\1\GINC-SE150\SP\RHF\Aug-CC-pVDZ\C9H13N1O3S1\OHZDE\09-Apr-2025\0\\#t
 hf aug-cc-pvdz iop(5/13=1,5/36=2,99/5=2) pseudo=read geom=check guess=
 (read,tcheck) scf=(maxcycle=1)\\title\\0,1\N,0,0.625986,0.959617,-0.35
 5103\C,0,1.939896,0.603313,0.013679\C,0,2.136271,-0.722653,0.055135\S,
 0,0.669214,-1.590377,-0.369917\C,0,-0.207574,-0.096923,-0.537302\C,0,2
 .940257,1.668359,0.314627\H,0,3.150095,2.289877,-0.559489\H,0,3.878375
 ,1.217193,0.628328\H,0,2.600054,2.320559,1.122159\C,0,3.364989,-1.5001
 53,0.39046\H,0,4.204409,-0.841101,0.606496\H,0,3.657969,-2.149427,-0.4

 Normal termination of Gaussian 16 at Wed Apr  9 01:47:41 2025.
