 Gaussian 16, Revision C.01,

 ----------------------------------------------------------------------
 #t hf aug-cc-pvdz symm=none int=(grid=ultrafine) guess=(read,tcheck) s
 table=opt
 ----------------------------------------------------------------------
 -----
 title
 -----
 Symbolic Z-matrix:
 Charge =  0 Multiplicity = 2

 SCF Done:  E(UHF) =  -1668.49707231     A.U. after   18 cycles
 Normal termination of Gaussian 16 at Wed Apr  9 02:35:38 2025.
 Gaussian 16:  ES64L-G16RevC.01  3-Jul-2019

 ----------------------------------------------------------------------
 #t hf aug-cc-pvdz iop(5/13=1,5/36=2,99/5=2) pseudo=read geom=check gue
 ss=(read,tcheck) scf=(maxcycle=1)
 ----------------------------------------------------------------------
 -----
 title
 -----
 Structure from the checkpoint file:  "BH10_294_reverse_mol2.chk"
 Charge =  0 Multiplicity = 2

                         Standard orientation:
 ---------------------------------------------------------------------
 Center     Atomic      Atomic             Coordinates (Angstroms)
 Number     Number       Type             X           Y           Z
 ---------------------------------------------------------------------
      1          6           0        0.713425    0.444763    2.026963
      2          6           0        2.080061    1.011940    1.920959
      3         14           0       -0.008486    0.021895    0.272146
      4         14           0       -1.899178   -1.373521    0.462253
      5         14           0        1.581859   -1.112906   -1.037134
      6         14           0       -0.644776    1.991487   -0.848413
      7          6           0       -3.077519   -0.812502    1.823840
      8          1           0       -3.971409   -1.443316    1.824982
      9          1           0       -2.619530   -0.889748    2.812416
     10          1           0       -3.400142    0.221425    1.683557
     11          6           0       -2.855937   -1.381308   -1.163670
     12          1           0       -3.693930   -2.082061   -1.106293
     13          1           0       -3.266792   -0.395086   -1.390998
     14          1           0       -2.228263   -1.681770   -2.004698
     15          6           0       -1.371685   -3.142829    0.851418
     16          1           0       -2.247846   -3.780706    0.999536
     17          1           0       -0.781521   -3.574619    0.040266
     18          1           0       -0.768947   -3.191214    1.761723
     19          6           0        0.740983   -1.892168   -2.535908
     20          1           0        0.206287   -1.154084   -3.136642
     21          1           0        1.487480   -2.366655   -3.179519
     22          1           0        0.026077   -2.662961   -2.239678
     23          6           0        2.907506    0.072667   -1.665203
     24          1           0        3.400636    0.598839   -0.845815
     25          1           0        3.673649   -0.467329   -2.229056
     26          1           0        2.478349    0.826430   -2.329604
     27          6           0        2.401632   -2.503292   -0.062630
     28          1           0        2.940293   -2.131529    0.809615
     29          1           0        1.663249   -3.228125    0.286669
     30          1           0        3.118149   -3.036656   -0.694313
     31          6           0        0.646420    3.351123   -0.648887
     32          1           0        1.631048    3.019849   -0.985826
     33          1           0        0.367066    4.228213   -1.240038
     34          1           0        0.741121    3.670533    0.391078
     35          6           0       -0.840124    1.638109   -2.691069
     36          1           0       -1.198474    2.532063   -3.209671
     37          1           0        0.108418    1.349748   -3.149176
     38          1           0       -1.557849    0.836565   -2.877259
     39          6           0       -2.296692    2.638156   -0.205234
     40          1           0       -2.582022    3.550998   -0.736254
     41          1           0       -3.096177    1.908168   -0.351186
     42          1           0       -2.253178    2.872451    0.860340
     43          6           0       -0.231258    1.384300    2.796879
     44          1           0       -1.253938    1.006123    2.828245
     45          1           0        0.113868    1.519172    3.825346
     46          1           0       -0.258262    2.372564    2.332304
     47          6           0        3.325259    0.268930    2.254853
     48          1           0        3.108222   -0.646720    2.810244
     49          1           0        3.904208   -0.020036    1.366814
     50          1           0        3.999306    0.878722    2.866272
     51          1           0        0.769629   -0.510645    2.561379
     52          1           0        2.176919    2.026683    1.547441
 ---------------------------------------------------------------------

 SCF Done:  E(UHF) =  -1669.19773897     A.U. after    2 cycles

 The electronic state is 2-A.
 Alpha  occ. eigenvalues --  -69.50114 -69.50096 -69.49998 -69.47919 -11.22909
 Alpha  occ. eigenvalues --  -11.22548 -11.22518 -11.22192 -11.20657 -11.20606
 Alpha  occ. eigenvalues --  -11.20595 -11.20580 -11.20577 -11.20564 -11.20509
 Alpha  occ. eigenvalues --  -11.20488 -11.20362  -6.17216  -6.17188  -6.17097
 Alpha  occ. eigenvalues --   -6.15412  -3.92536  -3.92528  -3.92525  -3.92513
 Alpha  occ. eigenvalues --   -3.92509  -3.92496  -3.92421  -3.92415  -3.92403
 Alpha  occ. eigenvalues --   -3.90710  -3.90632  -3.90620  -1.08420  -0.99176
 Alpha  occ. eigenvalues --   -0.98175  -0.97353  -0.97114  -0.92860  -0.92597
 Alpha  occ. eigenvalues --   -0.92532  -0.92137  -0.92002  -0.91909  -0.87347
 Alpha  occ. eigenvalues --   -0.78502  -0.72206  -0.64290  -0.64141  -0.62549
 Alpha  occ. eigenvalues --   -0.60864  -0.60274  -0.59210  -0.58156  -0.57932
 Alpha  occ. eigenvalues --   -0.57750  -0.56889  -0.56672  -0.56151  -0.56032
 Alpha  occ. eigenvalues --   -0.55882  -0.55490  -0.54851  -0.54476  -0.54343
 Alpha  occ. eigenvalues --   -0.54008  -0.53904  -0.53855  -0.53399  -0.53382
 Alpha  occ. eigenvalues --   -0.53246  -0.53080  -0.52346  -0.50386  -0.48835
 Alpha  occ. eigenvalues --   -0.44793  -0.44096  -0.44022  -0.43496  -0.43361
 Alpha  occ. eigenvalues --   -0.43184  -0.41604  -0.34952  -0.34757  -0.29926
 Alpha virt. eigenvalues --    0.02387   0.02470   0.02493   0.03332   0.04286
 Alpha virt. eigenvalues --    0.04407   0.04539   0.04581   0.04809   0.06559
 Alpha virt. eigenvalues --    0.06747   0.06823   0.06967   0.07058   0.07181

  Beta  occ. eigenvalues --  -69.50100 -69.50098 -69.50000 -69.47853 -11.22896
  Beta  occ. eigenvalues --  -11.22520 -11.22347 -11.20658 -11.20609 -11.20584
  Beta  occ. eigenvalues --  -11.20581 -11.20577 -11.20563 -11.20509 -11.20490
  Beta  occ. eigenvalues --  -11.20452 -11.20361  -6.17201  -6.17184  -6.17100
  Beta  occ. eigenvalues --   -6.15303  -3.92522  -3.92514  -3.92514  -3.92510
  Beta  occ. eigenvalues --   -3.92503  -3.92480  -3.92422  -3.92417  -3.92411
  Beta  occ. eigenvalues --   -3.90589  -3.90574  -3.90488  -1.05628  -0.98361
  Beta  occ. eigenvalues --   -0.98008  -0.97345  -0.96967  -0.92845  -0.92598
  Beta  occ. eigenvalues --   -0.92530  -0.92125  -0.91999  -0.91904  -0.86178
  Beta  occ. eigenvalues --   -0.75098  -0.71620  -0.64227  -0.64074  -0.61696
  Beta  occ. eigenvalues --   -0.60306  -0.59433  -0.58055  -0.57960  -0.57880
  Beta  occ. eigenvalues --   -0.57493  -0.56792  -0.56644  -0.56085  -0.56006
  Beta  occ. eigenvalues --   -0.55785  -0.54871  -0.54530  -0.54389  -0.54222
  Beta  occ. eigenvalues --   -0.53975  -0.53848  -0.53726  -0.53382  -0.53264
  Beta  occ. eigenvalues --   -0.53199  -0.52952  -0.52025  -0.49521  -0.48374
  Beta  occ. eigenvalues --   -0.44498  -0.44083  -0.44013  -0.43458  -0.43343
  Beta  occ. eigenvalues --   -0.43185  -0.39262  -0.34690  -0.34596
  Beta virt. eigenvalues --    0.02390   0.02452   0.02494   0.03336   0.04289
  Beta virt. eigenvalues --    0.04391   0.04542   0.04584   0.04802   0.06557
  Beta virt. eigenvalues --    0.06744   0.06826   0.06936   0.07068   0.07185

 Mulliken charges and spin densities:
               1          2
     1  C   -0.189724  -0.368359
     2  C    0.499962   1.655669
     3  Si   3.464705  -0.008056
     4  Si   1.104459   0.052119
     5  Si   1.073886  -0.047068
     6  Si   1.197680   0.001461
     7  C   -0.345694  -0.005207
     8  H   -0.248377  -0.000218
     9  H   -0.013651  -0.000178
    10  H   -0.057274   0.000411
    11  C   -0.178824   0.005572
    12  H   -0.156313   0.001843
    13  H   -0.108122  -0.001047
    14  H   -0.097919  -0.001630
    15  C   -0.350943  -0.003144
    16  H   -0.192509   0.000463
    17  H   -0.105465   0.000288
    18  H   -0.075040  -0.000601
    19  C   -0.177156   0.001292
    20  H   -0.083545   0.001372
    21  H   -0.214721  -0.000220
    22  H   -0.119642   0.001452
    23  C   -0.249088   0.000841
    24  H   -0.098392  -0.002303
    25  H   -0.177686  -0.001999
    26  H   -0.114157   0.001819
    27  C   -0.233480   0.002274
    28  H   -0.206452   0.001912
    29  H   -0.130740   0.000082
    30  H   -0.143989  -0.000698
    31  C   -0.299957  -0.002052
    32  H   -0.083397   0.001618
    33  H   -0.237438   0.000729
    34  H   -0.032933   0.003009
    35  C   -0.256932  -0.001991
    36  H   -0.209356   0.000500
    37  H   -0.115293  -0.000906
    38  H   -0.082871  -0.001549
    39  C   -0.279680  -0.002210
    40  H   -0.180575   0.000121
    41  H   -0.129416   0.000125
    42  H   -0.086832  -0.000171
    43  C   -0.439675   0.057839
    44  H   -0.063318   0.007979
    45  H    0.107811  -0.002133
    46  H    0.124531  -0.003790
    47  C   -0.733638  -0.289304
    48  H    0.156591   0.000626
    49  H    0.166748   0.041435
    50  H    0.067882   0.023191
    51  H   -0.321590  -0.003792
    52  H   -0.342450  -0.117412
 Sum of Mulliken charges =   0.00000   1.00000

 Dipole moment (field-independent basis, Debye):
    X=              0.0806    Y=             -0.0473    Z=              0.2067  Tot=              0.2269
                          Isotropic Fermi Contact Couplings
        Atom                 a.u.       MegaHertz       Gauss      10(-4) cm-1
     1  C(13)             -0.06290     -70.71397     -25.23250     -23.58764
     2  C(13)              0.21886     246.04455      87.79481      82.07163
     3  Si(29)             0.09918     -88.14555     -31.45253     -29.40219
     4  Si(29)             0.01725     -15.32875      -5.46968      -5.11312
     5  Si(29)            -0.00271       2.41202       0.86067       0.80456
     6  Si(29)            -0.00261       2.31801       0.82712       0.77321
     7  C(13)             -0.00066      -0.74135      -0.26453      -0.24729
     8  H(1)              -0.00003      -0.14643      -0.05225      -0.04885

 Normal termination of Gaussian 16 at Wed Apr  9 02:38:09 2025.
