 Gaussian 16, Revision C.01,

 ----------------------------------------------------------------------
 #t hf aug-cc-pvdz symm=none int=(grid=ultrafine) guess=(read,tcheck) s
 table=opt
 ----------------------------------------------------------------------
 -----
 title
 -----
 Symbolic Z-matrix:
 Charge =  0 Multiplicity = 2

 SCF Done:  E(UHF) =  -431.345529711     A.U. after   16 cycles
 Normal termination of Gaussian 16 at Wed Apr  9 01:59:05 2025.
 Gaussian 16:  ES64L-G16RevC.01  3-Jul-2019

 ----------------------------------------------------------------------
 #t hf aug-cc-pvdz iop(5/13=1,5/36=2,99/5=2) pseudo=read geom=check gue
 ss=(read,tcheck) scf=(maxcycle=1)
 ----------------------------------------------------------------------
 -----
 title
 -----
 Structure from the checkpoint file:  "BH10_6_reverse_mol2.chk"
 Charge =  0 Multiplicity = 2

                         Standard orientation:
 ---------------------------------------------------------------------
 Center     Atomic      Atomic             Coordinates (Angstroms)
 Number     Number       Type             X           Y           Z
 ---------------------------------------------------------------------
      1          6           0        0.339430   -0.606170   -0.024083
      2          6           0       -1.088123   -1.139940   -0.028513
      3          6           0       -1.990434    0.110004   -0.102412
      4          1           0       -1.246168   -1.721466    0.879399
      5          1           0       -1.222554   -1.805552   -0.880418
      6          6           0       -1.058347    1.295927    0.184506
      7          1           0       -2.826807    0.060949    0.594590
      8          1           0       -2.411898    0.208704   -1.105195
      9          6           0        0.284034    0.861352   -0.445929
     10          1           0       -0.919710    1.432307    1.260097
     11          1           0       -1.418973    2.238412   -0.226929
     12          6           0        1.470443    1.666438   -0.079226
     13          9           0        0.865239   -0.700506    1.246202
     14          9           0        1.175272   -1.339400   -0.819181
     15          1           0        1.851471    2.426309   -0.746526
     16          1           0        1.934391    1.540776    0.889314
     17          1           0        0.153640    0.853054   -1.533580
 ---------------------------------------------------------------------

 SCF Done:  E(UHF) =  -431.775637823     A.U. after    2 cycles

 The electronic state is 2-A.
 Alpha  occ. eigenvalues --  -26.46223 -26.46047 -11.40438 -11.25069 -11.24518
 Alpha  occ. eigenvalues --  -11.24381 -11.24374 -11.24344  -1.62740  -1.55852
 Alpha  occ. eigenvalues --   -1.15250  -1.04119  -0.97561  -0.91380  -0.82458
 Alpha  occ. eigenvalues --   -0.80736  -0.74466  -0.71139  -0.70035  -0.65405
 Alpha  occ. eigenvalues --   -0.64136  -0.63674  -0.59938  -0.58568  -0.57501
 Alpha  occ. eigenvalues --   -0.55299  -0.52865  -0.51745  -0.50682  -0.48957
 Alpha  occ. eigenvalues --   -0.47726  -0.36248
 Alpha virt. eigenvalues --    0.03328   0.03606   0.03935   0.04727   0.06073
 Alpha virt. eigenvalues --    0.06338   0.06515   0.07051   0.08154   0.10255
 Alpha virt. eigenvalues --    0.12552   0.13320   0.13799   0.14553   0.14837

  Beta  occ. eigenvalues --  -26.46228 -26.46057 -11.40314 -11.25412 -11.24381
  Beta  occ. eigenvalues --  -11.24367 -11.24091 -11.22092  -1.62728  -1.55868
  Beta  occ. eigenvalues --   -1.14718  -1.01980  -0.97156  -0.86645  -0.82055
  Beta  occ. eigenvalues --   -0.79463  -0.74404  -0.70668  -0.69826  -0.65250
  Beta  occ. eigenvalues --   -0.64015  -0.63276  -0.59310  -0.58506  -0.56855
  Beta  occ. eigenvalues --   -0.54344  -0.52218  -0.50580  -0.50361  -0.48473
  Beta  occ. eigenvalues --   -0.47177
  Beta virt. eigenvalues --    0.03313   0.03629   0.03869   0.04766   0.06009
  Beta virt. eigenvalues --    0.06179   0.06474   0.07022   0.07761   0.09743
  Beta virt. eigenvalues --    0.11046   0.12589   0.13531   0.14146   0.14663

 Mulliken charges and spin densities:
               1          2
     1  C    2.181920   0.002257
     2  C   -0.493466   0.002215
     3  C   -0.065093   0.008063
     4  H    0.170078   0.000491
     5  H    0.204988   0.000422
     6  C   -0.359820   0.065370
     7  H    0.113263  -0.000001
     8  H    0.109725   0.000465
     9  C   -0.321791  -0.254577
    10  H    0.118844  -0.012328
    11  H    0.099915  -0.009199
    12  C    0.203055   1.393748
    13  F   -0.982840   0.001324
    14  F   -0.941504   0.002556
    15  H   -0.090406  -0.099226
    16  H   -0.026563  -0.101238
    17  H    0.079694  -0.000343
 Sum of Mulliken charges =  -0.00000   1.00000

 Dipole moment (field-independent basis, Debye):
    X=             -2.2587    Y=              1.3237    Z=             -0.6052  Tot=              2.6870
                          Isotropic Fermi Contact Couplings
        Atom                 a.u.       MegaHertz       Gauss      10(-4) cm-1
     1  C(13)              0.02363      26.56000       9.47727       8.85946
     2  C(13)             -0.00210      -2.35530      -0.84043      -0.78564
     3  C(13)              0.00026       0.28765       0.10264       0.09595
     4  H(1)               0.00029       1.31242       0.46830       0.43778
     5  H(1)               0.00003       0.14298       0.05102       0.04769
     6  C(13)              0.05531      62.18167      22.18797      20.74157
     7  H(1)               0.00049       2.18703       0.78038       0.72951
     8  H(1)              -0.00007      -0.30685      -0.10949      -0.10235

 Normal termination of Gaussian 16 at Wed Apr  9 01:59:48 2025.
