 Gaussian 16, Revision C.01,

 ----------------------------------------------------------------------
 #t hf aug-cc-pvdz symm=none int=(grid=ultrafine) guess=(read,tcheck) s
 table=(opt,rrhf)
 ----------------------------------------------------------------------
 -----
 title
 -----
 Symbolic Z-matrix:
 Charge =  0 Multiplicity = 1

 SCF Done:  E(RHF) =  -965.965940527     A.U. after   15 cycles
 Normal termination of Gaussian 16 at Wed Apr  9 01:44:11 2025.
 Gaussian 16:  ES64L-G16RevC.01  3-Jul-2019

 ----------------------------------------------------------------------
 #t hf aug-cc-pvdz iop(5/13=1,5/36=2,99/5=2) pseudo=read geom=check gue
 ss=(read,tcheck) scf=(maxcycle=1)
 ----------------------------------------------------------------------
 -----
 title
 -----
 Structure from the checkpoint file:  "BH10_344_reverse_mol2.chk"
 Charge =  0 Multiplicity = 1

                         Standard orientation:
 ---------------------------------------------------------------------
 Center     Atomic      Atomic             Coordinates (Angstroms)
 Number     Number       Type             X           Y           Z
 ---------------------------------------------------------------------
      1          6           0       -0.130998   -1.832230   -0.336168
      2          6           0        0.990238   -1.085813   -0.845927
      3          1           0        0.009853   -2.167562    0.689975
      4          1           0        1.060735   -0.828566   -1.894854
      5          1           0       -0.431079   -2.659142   -0.979103
      6         16           0        1.690127    0.048209    0.193063
      7          8           0        1.427588    1.446350   -0.238849
      8          8           0        1.311694   -0.290458    1.579958
      9          6           0        3.454961   -0.154658    0.082005
     10          6           0        4.239444    0.798143   -0.385226
     11          1           0        3.787887   -1.124638    0.429091
     12          1           0        5.312022    0.658156   -0.448716
     13          1           0        3.815687    1.741064   -0.709680
     14          6           0       -2.741483   -1.441233    0.078435
     15          6           0       -1.514732    0.331877   -0.286613
     16          6           0       -3.554357   -0.359449    0.183055
     17          1           0       -2.956623   -2.489885    0.192405
     18          1           0       -4.606221   -0.277714    0.397124
     19          7           0       -1.481151   -0.985919   -0.218873
     20          7           0       -2.764284    0.747189   -0.048330
     21          6           0       -3.193082    2.137824   -0.013339
     22          1           0       -3.618849    2.369559    0.962117
     23          1           0       -2.324803    2.771245   -0.180061
     24          1           0       -3.931072    2.323653   -0.793116
     25          1           0       -0.655739    0.969678   -0.469975
 ---------------------------------------------------------------------

 SCF Done:  E(RHF) =  -966.613177990     A.U. after    2 cycles

 The electronic state is 1-A.
 Alpha  occ. eigenvalues --  -94.13214 -20.47814 -20.47769 -15.60954 -15.58038
 Alpha  occ. eigenvalues --  -11.35072 -11.32025 -11.31169 -11.30756 -11.28810
 Alpha  occ. eigenvalues --  -11.24148 -11.23485 -11.16636  -8.38442  -6.36558
 Alpha  occ. eigenvalues --   -6.36390  -6.36276  -1.48279  -1.41124  -1.36542
 Alpha  occ. eigenvalues --   -1.26564  -1.09672  -1.06747  -1.05108  -1.02093
 Alpha  occ. eigenvalues --   -0.93898  -0.89779  -0.86783  -0.81541  -0.78344
 Alpha  occ. eigenvalues --   -0.73048  -0.72217  -0.68544  -0.68182  -0.67252
 Alpha  occ. eigenvalues --   -0.65864  -0.64709  -0.63891  -0.62712  -0.61507
 Alpha  occ. eigenvalues --   -0.60578  -0.59376  -0.56439  -0.53582  -0.52879
 Alpha  occ. eigenvalues --   -0.47604  -0.44627  -0.43737  -0.40912  -0.39729
 Alpha  occ. eigenvalues --   -0.38959  -0.38206  -0.28378
 Alpha virt. eigenvalues --    0.01843   0.03018   0.03432   0.03829   0.04717
 Alpha virt. eigenvalues --    0.04949   0.05345   0.06306   0.06856   0.07610
 Alpha virt. eigenvalues --    0.07837   0.09012   0.09591   0.10004   0.10599

 Mulliken charges:
               1
     1  C   -0.309485
     2  C   -0.449120
     3  H    0.145417
     4  H   -0.230959
     5  H    0.037951
     6  S    3.936697
     7  O   -1.781309
     8  O   -1.700185
     9  C    0.132748
    10  C   -0.022067
    11  H   -0.204007
    12  H   -0.058230
    13  H   -0.021930
    14  C    0.104154
    15  C   -1.476079
    16  C    0.054962
    17  H   -0.220359
    18  H   -0.209886
    19  N    0.946212
    20  N    1.053267
    21  C   -0.158476
    22  H    0.191945
    23  H    0.080057
    24  H    0.211537
    25  H   -0.052853
 Sum of Mulliken charges =  -0.00000

 Dipole moment (field-independent basis, Debye):
    X=             -8.3011    Y=              0.1141    Z=             -1.8717  Tot=              8.5102

 Test job not archived.
 1\1\GINC-SE131\SP\RHF\Aug-CC-pVDZ\C8H12N2O2S1\OHZDE\09-Apr-2025\0\\#t
 hf aug-cc-pvdz iop(5/13=1,5/36=2,99/5=2) pseudo=read geom=check guess=
 (read,tcheck) scf=(maxcycle=1)\\title\\0,1\C,0,-0.130998,-1.83223,-0.3
 36168\C,0,0.990238,-1.085813,-0.845927\H,0,0.009853,-2.167562,0.689975
 \H,0,1.060735,-0.828566,-1.894854\H,0,-0.431079,-2.659142,-0.979103\S,
 0,1.690127,0.048209,0.193063\O,0,1.427588,1.44635,-0.238849\O,0,1.3116
 94,-0.290458,1.579958\C,0,3.454961,-0.154658,0.082005\C,0,4.239444,0.7
 98143,-0.385226\H,0,3.787887,-1.124638,0.429091\H,0,5.312022,0.658156,

 Normal termination of Gaussian 16 at Wed Apr  9 01:44:33 2025.
