 Gaussian 16, Revision C.01,

 ----------------------------------------------------------------------
 #t hf aug-cc-pvdz symm=none int=(grid=ultrafine) guess=(read,tcheck) s
 table=(opt,rrhf)
 ----------------------------------------------------------------------
 -----
 title
 -----
 Symbolic Z-matrix:
 Charge =  0 Multiplicity = 1

 SCF Done:  E(RHF) =  -770.039688272     A.U. after   14 cycles
 Normal termination of Gaussian 16 at Wed Apr  9 00:58:39 2025.
 Gaussian 16:  ES64L-G16RevC.01  3-Jul-2019

 ----------------------------------------------------------------------
 #t hf aug-cc-pvdz iop(5/13=1,5/36=2,99/5=2) pseudo=read geom=check gue
 ss=(read,tcheck) scf=(maxcycle=1)
 ----------------------------------------------------------------------
 -----
 title
 -----
 Structure from the checkpoint file:  "BH10_137_reverse_mol3.chk"
 Charge =  0 Multiplicity = 1

                         Standard orientation:
 ---------------------------------------------------------------------
 Center     Atomic      Atomic             Coordinates (Angstroms)
 Number     Number       Type             X           Y           Z
 ---------------------------------------------------------------------
      1          6           0        0.220867    0.028630   -0.016066
      2          6           0       -1.202930   -0.524757   -0.018620
      3          6           0       -2.007949    0.680427   -0.548871
      4          6           0       -1.294186    1.911104    0.013154
      5          6           0        0.193912    1.537900   -0.062208
      6          6           0        1.303884   -0.726606    0.003549
      7          6           0       -1.622428   -0.853486    1.423080
      8          6           0       -1.380319   -1.759515   -0.897984
      9          1           0       -3.062760    0.623526   -0.271217
     10          1           0       -1.955612    0.692164   -1.642438
     11          1           0       -1.591279    2.081307    1.050542
     12          1           0       -1.525280    2.822407   -0.539398
     13          1           0        0.795728    1.983367    0.732017
     14          1           0        0.634495    1.873069   -1.006655
     15          1           0       -1.509460    0.006392    2.085814
     16          1           0       -1.008688   -1.661820    1.825396
     17          1           0       -2.668979   -1.168876    1.450899
     18          1           0       -1.039141   -1.567320   -1.917051
     19          1           0       -2.434237   -2.046929   -0.937374
     20          1           0       -0.823223   -2.614908   -0.508964
     21         17           0        2.918815   -0.057551    0.017296
     22          1           0        1.303475   -1.806197    0.008187
 ---------------------------------------------------------------------

 SCF Done:  E(RHF) =  -770.453312274     A.U. after    2 cycles

 The electronic state is 1-A.
 Alpha  occ. eigenvalues -- -105.55941 -11.28205 -11.25043 -11.24877 -11.23606
 Alpha  occ. eigenvalues --  -11.23218 -11.23103 -11.22943 -11.22867 -10.60745
 Alpha  occ. eigenvalues --   -7.77705  -7.77322  -7.77309  -1.16865  -1.10108
 Alpha  occ. eigenvalues --   -1.04216  -0.99160  -0.94214  -0.91382  -0.85132
 Alpha  occ. eigenvalues --   -0.78417  -0.71518  -0.67305  -0.66041  -0.61991
 Alpha  occ. eigenvalues --   -0.60426  -0.58222  -0.57156  -0.56048  -0.54013
 Alpha  occ. eigenvalues --   -0.53276  -0.51711  -0.49427  -0.49202  -0.47269
 Alpha  occ. eigenvalues --   -0.46923  -0.46014  -0.44784  -0.35080
 Alpha virt. eigenvalues --    0.03256   0.03367   0.03616   0.04047   0.05508
 Alpha virt. eigenvalues --    0.05587   0.05813   0.06516   0.06618   0.08838
 Alpha virt. eigenvalues --    0.09164   0.09379   0.09522   0.10671   0.12040

 Mulliken charges:
               1
     1  C    1.472997
     2  C   -1.931916
     3  C    0.086700
     4  C   -0.103002
     5  C   -0.530208
     6  C   -0.232929
     7  C   -0.099790
     8  C    0.029512
     9  H    0.113573
    10  H    0.091738
    11  H    0.121658
    12  H    0.109619
    13  H    0.161923
    14  H    0.236821
    15  H    0.176837
    16  H    0.215498
    17  H    0.163165
    18  H    0.215310
    19  H    0.204401
    20  H    0.156852
    21  Cl  -0.373853
    22  H   -0.284905
 Sum of Mulliken charges =  -0.00000

 Dipole moment (field-independent basis, Debye):
    X=             -2.5242    Y=             -0.0396    Z=             -0.0496  Tot=              2.5250

 Test job not archived.
 1\1\GINC-SE092\SP\RHF\Aug-CC-pVDZ\C8H13Cl1\OHZDE\09-Apr-2025\0\\#t hf
 aug-cc-pvdz iop(5/13=1,5/36=2,99/5=2) pseudo=read geom=check guess=(re
 ad,tcheck) scf=(maxcycle=1)\\title\\0,1\C,0,0.220867,0.02863,-0.016066
 \C,0,-1.20293,-0.524757,-0.01862\C,0,-2.007949,0.680427,-0.548871\C,0,
 -1.294186,1.911104,0.013154\C,0,0.193912,1.5379,-0.062208\C,0,1.303884
 ,-0.726606,0.003549\C,0,-1.622428,-0.853486,1.42308\C,0,-1.380319,-1.7
 59515,-0.897984\H,0,-3.06276,0.623526,-0.271217\H,0,-1.955612,0.692164
 ,-1.642438\H,0,-1.591279,2.081307,1.050542\H,0,-1.52528,2.822407,-0.53

 Normal termination of Gaussian 16 at Wed Apr  9 00:58:54 2025.
