 Gaussian 16, Revision C.01,

 ----------------------------------------------------------------------
 #t hf aug-cc-pvdz symm=none int=(grid=ultrafine) guess=(read,tcheck) s
 table=(opt,rrhf)
 ----------------------------------------------------------------------
 -----
 title
 -----
 Symbolic Z-matrix:
 Charge =  0 Multiplicity = 1

 SCF Done:  E(RHF) =  -1035.23932588     A.U. after   16 cycles
 Normal termination of Gaussian 16 at Wed Apr  9 01:52:02 2025.
 Gaussian 16:  ES64L-G16RevC.01  3-Jul-2019

 ----------------------------------------------------------------------
 #t hf aug-cc-pvdz iop(5/13=1,5/36=2,99/5=2) pseudo=read geom=check gue
 ss=(read,tcheck) scf=(maxcycle=1)
 ----------------------------------------------------------------------
 -----
 title
 -----
 Structure from the checkpoint file:  "BH10_288_forward_mol1.chk"
 Charge =  0 Multiplicity = 1

                         Standard orientation:
 ---------------------------------------------------------------------
 Center     Atomic      Atomic             Coordinates (Angstroms)
 Number     Number       Type             X           Y           Z
 ---------------------------------------------------------------------
      1          6           0        1.836847    1.619630    1.919106
      2          1           0        1.489688    2.293449    2.703563
      3          1           0        0.316284    0.251307    2.672482
      4          6           0       -1.002814    0.106638    0.258815
      5          1           0       -1.385914    0.715361   -1.817600
      6          6           0       -4.432863    0.391117   -0.779497
      7          1           0       -4.556998    0.129459    0.258808
      8          1           0       -4.046219    2.013211   -2.134854
      9          1           0       -2.964337    1.926482    0.748632
     10          5           0       -2.462252   -1.665882    0.306175
     11          6           0       -1.670888   -2.918580   -0.293282
     12          1           0       -1.326080   -3.577485    0.510048
     13          6           0       -3.755259   -2.005843    1.169243
     14          1           0       -4.579148   -2.365303    0.544929
     15          6           0        0.667625    1.864194   -0.027841
     16          8           0        0.280705    2.339836   -1.054042
     17          1           0        0.946866   -1.719324    1.380686
     18          6           0        2.629427   -0.873722    0.343190
     19          6           0        2.996812   -0.879356   -2.045823
     20          6           0        4.849531   -0.543889   -0.559739
     21          1           0        4.393383   -0.586113    1.532322
     22          1           0        5.016815   -0.557641   -2.700010
     23          1           0        1.091767   -1.188493   -1.124507
     24          1           0        2.884238    1.374967    2.078056
     25          6           0        0.942866    0.378786    1.790828
     26          7           0        0.114778    0.796868    0.661973
     27          6           0       -1.673516    0.178016   -0.934062
     28          8           0       -2.729978   -0.660174   -0.921275
     29          1           0       -5.014924   -0.186037   -1.484870
     30          6           0       -3.951681    1.660282   -1.113638
     31          6           0       -3.052952    2.249503   -0.281887
     32          1           0       -2.485875    3.124623   -0.571798
     33          8           0       -1.491485   -0.756959    1.103286
     34          1           0       -0.797792   -2.633827   -0.888262
     35          1           0       -2.320519   -3.515111   -0.940677
     36          1           0       -4.124949   -1.173559    1.774866
     37          1           0       -3.519224   -2.816083    1.865421
     38          8           0        1.733331    2.306487    0.664327
     39          6           0        1.693126   -0.935596    1.521031
     40          1           0        2.249159   -1.184405    2.428915
     41          6           0        2.144838   -0.995662   -0.957982
     42          6           0        4.351487   -0.648851   -1.850211
     43          6           0        3.992974   -0.656708    0.526303
     44          1           0        5.907373   -0.376086   -0.396920
     45          1           0        2.600278   -0.971338   -3.049616
 ---------------------------------------------------------------------

 SCF Done:  E(RHF) =  -1036.28933536     A.U. after    2 cycles

 The electronic state is 1-A.
 Alpha  occ. eigenvalues --  -20.60007 -20.56556 -20.54272 -20.53066 -15.56022
 Alpha  occ. eigenvalues --  -11.42223 -11.35176 -11.31942 -11.31903 -11.30531
 Alpha  occ. eigenvalues --  -11.29259 -11.26534 -11.24996 -11.24877 -11.24651
 Alpha  occ. eigenvalues --  -11.24304 -11.24216 -11.24082 -11.23958 -11.23736
 Alpha  occ. eigenvalues --  -11.17616 -11.16378  -7.58621  -1.56499  -1.51273
 Alpha  occ. eigenvalues --   -1.47046  -1.44115  -1.29054  -1.16506  -1.11195
 Alpha  occ. eigenvalues --   -1.09696  -1.03487  -1.01909  -1.01039  -0.95872
 Alpha  occ. eigenvalues --   -0.95397  -0.93912  -0.91084  -0.89682  -0.87792
 Alpha  occ. eigenvalues --   -0.83965  -0.81246  -0.80118  -0.77282  -0.75803
 Alpha  occ. eigenvalues --   -0.73098  -0.72783  -0.71072  -0.70472  -0.68149
 Alpha  occ. eigenvalues --   -0.67461  -0.65899  -0.65042  -0.64874  -0.63824
 Alpha  occ. eigenvalues --   -0.62492  -0.61453  -0.60802  -0.60345  -0.59823
 Alpha  occ. eigenvalues --   -0.58627  -0.58509  -0.56924  -0.56611  -0.55511
 Alpha  occ. eigenvalues --   -0.54495  -0.53706  -0.53098  -0.52550  -0.51520
 Alpha  occ. eigenvalues --   -0.50352  -0.49993  -0.49760  -0.49469  -0.49154
 Alpha  occ. eigenvalues --   -0.46940  -0.46275  -0.45825  -0.45569  -0.42073
 Alpha  occ. eigenvalues --   -0.38246  -0.34778  -0.34212  -0.28543
 Alpha virt. eigenvalues --    0.02297   0.02930   0.03121   0.03310   0.03540
 Alpha virt. eigenvalues --    0.03840   0.04008   0.04324   0.05353   0.05528
 Alpha virt. eigenvalues --    0.05992   0.06112   0.06970   0.07413   0.07761

 Mulliken charges:
               1
     1  C    0.914744
     2  H    0.098329
     3  H   -0.086311
     4  C   -0.817483
     5  H   -0.306085
     6  C   -0.054866
     7  H    0.055850
     8  H   -0.139332
     9  H   -0.022713
    10  B    2.733493
    11  C   -0.457025
    12  H    0.046505
    13  C   -0.587958
    14  H    0.131282
    15  C    1.904919
    16  O   -1.409927
    17  H    0.147581
    18  C    1.335216
    19  C   -0.467021
    20  C   -0.093922
    21  H   -0.346837
    22  H   -0.238853
    23  H   -0.374039
    24  H    0.092189
    25  C   -1.153555
    26  N    3.158012
    27  C    1.122524
    28  O   -2.090320
    29  H   -0.092145
    30  C    0.963642
    31  C   -0.100297
    32  H   -0.119527
    33  O   -2.665451
    34  H   -0.109375
    35  H    0.062234
    36  H    0.146033
    37  H   -0.114553
    38  O   -1.481013
    39  C   -0.534786
    40  H   -0.011340
    41  C    0.895194
    42  C    0.241166
    43  C    0.411285
    44  H   -0.261353
    45  H   -0.324109
 Sum of Mulliken charges =   0.00000

 Dipole moment (field-independent basis, Debye):
    X=             -0.1668    Y=              1.6441    Z=              2.2953  Tot=              2.8283

 Test job not archived.
 1\1\GINC-SE423\SP\RHF\Aug-CC-pVDZ\C17H22B1N1O4\OHZDE\09-Apr-2025\0\\#t
  hf aug-cc-pvdz iop(5/13=1,5/36=2,99/5=2) pseudo=read geom=check guess
 =(read,tcheck) scf=(maxcycle=1)\\title\\0,1\C,0,1.836847,1.61963,1.919
 106\H,0,1.489688,2.293449,2.703563\H,0,0.316284,0.251307,2.672482\C,0,
 -1.002814,0.106638,0.258815\H,0,-1.385914,0.715361,-1.8176\C,0,-4.4328
 63,0.391117,-0.779497\H,0,-4.556998,0.129459,0.258808\H,0,-4.046219,2.
 013211,-2.134854\H,0,-2.964337,1.926482,0.748632\B,0,-2.462252,-1.6658
 82,0.306175\C,0,-1.670888,-2.91858,-0.293282\H,0,-1.32608,-3.577485,0.

 Normal termination of Gaussian 16 at Wed Apr  9 01:54:20 2025.
