 Gaussian 16, Revision C.01,

 ----------------------------------------------------------------------
 #t hf aug-cc-pvdz symm=none int=(grid=ultrafine) guess=(read,tcheck) s
 table=(opt,rrhf)
 ----------------------------------------------------------------------
 -----
 title
 -----
 Symbolic Z-matrix:
 Charge =  0 Multiplicity = 1

 SCF Done:  E(RHF) =  -684.406718881     A.U. after   15 cycles
 Normal termination of Gaussian 16 at Wed Apr  9 01:42:06 2025.
 Gaussian 16:  ES64L-G16RevC.01  3-Jul-2019

 ----------------------------------------------------------------------
 #t hf aug-cc-pvdz iop(5/13=1,5/36=2,99/5=2) pseudo=read geom=check gue
 ss=(read,tcheck) scf=(maxcycle=1)
 ----------------------------------------------------------------------
 -----
 title
 -----
 Structure from the checkpoint file:  "BH10_350_forward_mol3.chk"
 Charge =  0 Multiplicity = 1

                         Standard orientation:
 ---------------------------------------------------------------------
 Center     Atomic      Atomic             Coordinates (Angstroms)
 Number     Number       Type             X           Y           Z
 ---------------------------------------------------------------------
      1          7           0       -1.123517   -0.412023    0.000022
      2          6           0       -0.262895    0.707033    0.000122
      3          6           0        1.031617    0.336368   -0.000023
      4         16           0        1.104293   -1.413856   -0.000275
      5          6           0       -0.595731   -1.641146   -0.000188
      6          6           0       -0.831158    2.087027    0.000351
      7          1           0       -1.450762    2.267264   -0.881516
      8          1           0       -0.032950    2.826747    0.000415
      9          1           0       -1.450669    2.267011    0.882333
     10          6           0        2.260868    1.182935    0.000009
     11          1           0        2.011685    2.244252    0.000200
     12          1           0        2.875462    0.985527   -0.881158
     13          1           0        2.875609    0.985245    0.881011
     14          6           0       -2.573308   -0.243641    0.000138
     15          1           0       -2.899617    0.297858    0.889502
     16          1           0       -3.009447   -1.237549    0.000062
     17          1           0       -2.899737    0.298045   -0.889069
 ---------------------------------------------------------------------

 SCF Done:  E(RHF) =  -684.765755240     A.U. after    2 cycles

 The electronic state is 1-A.
 Alpha  occ. eigenvalues --  -93.95848 -15.55898 -11.28306 -11.27613 -11.26451
 Alpha  occ. eigenvalues --  -11.26396 -11.25668 -11.25019  -8.24188  -6.21944
 Alpha  occ. eigenvalues --   -6.21808  -6.21639  -1.31023  -1.12290  -1.06720
 Alpha  occ. eigenvalues --   -1.00254  -0.95734  -0.92377  -0.81749  -0.73237
 Alpha  occ. eigenvalues --   -0.67741  -0.66626  -0.61626  -0.60005  -0.59943
 Alpha  occ. eigenvalues --   -0.58516  -0.56872  -0.55937  -0.54207  -0.53242
 Alpha  occ. eigenvalues --   -0.47048  -0.40036  -0.36594  -0.33385
 Alpha virt. eigenvalues --    0.02994   0.03483   0.04182   0.04501   0.05424
 Alpha virt. eigenvalues --    0.05847   0.07237   0.07447   0.08095   0.09358
 Alpha virt. eigenvalues --    0.09673   0.11250   0.12586   0.12741   0.13311

 Mulliken charges:
               1
     1  N    1.176896
     2  C   -0.876870
     3  C   -0.217962
     4  S    0.602641
     5  C   -0.942856
     6  C   -0.567039
     7  H    0.322520
     8  H    0.056960
     9  H    0.322514
    10  C   -0.644290
    11  H    0.133529
    12  H    0.288828
    13  H    0.288821
    14  C   -0.309533
    15  H    0.192556
    16  H   -0.019277
    17  H    0.192562
 Sum of Mulliken charges =  -0.00000

 Dipole moment (field-independent basis, Debye):
    X=             -0.4284    Y=              4.4808    Z=              0.0006  Tot=              4.5012

 Test job not archived.
 1\1\GINC-SE328\SP\RHF\Aug-CC-pVDZ\C6H9N1S1\OHZDE\09-Apr-2025\0\\#t hf
 aug-cc-pvdz iop(5/13=1,5/36=2,99/5=2) pseudo=read geom=check guess=(re
 ad,tcheck) scf=(maxcycle=1)\\title\\0,1\N,0,1.123517,-0.412023,-0.0000
 22\C,0,0.262895,0.707033,-0.000122\C,0,-1.031617,0.336368,0.000023\S,0
 ,-1.104293,-1.413856,0.000275\C,0,0.595731,-1.641146,0.000188\C,0,0.83
 1159,2.087027,-0.000351\H,0,1.450763,2.267264,0.881516\H,0,0.032951,2.
 826747,-0.000415\H,0,1.45067,2.267011,-0.882333\C,0,-2.260867,1.182936
 ,-0.000009\H,0,-2.011684,2.244253,-0.0002\H,0,-2.875461,0.985528,0.881

 Normal termination of Gaussian 16 at Wed Apr  9 01:42:13 2025.
