 Gaussian 16, Revision C.01,

 ----------------------------------------------------------------------
 #t hf aug-cc-pvdz symm=none int=(grid=ultrafine) guess=(read,tcheck) s
 table=(opt,rrhf)
 ----------------------------------------------------------------------
 -----
 title
 -----
 Symbolic Z-matrix:
 Charge =  0 Multiplicity = 1

 SCF Done:  E(RHF) =  -575.774851146     A.U. after   14 cycles
 Normal termination of Gaussian 16 at Wed Apr  9 00:59:29 2025.
 Gaussian 16:  ES64L-G16RevC.01  3-Jul-2019

 ----------------------------------------------------------------------
 #t hf aug-cc-pvdz iop(5/13=1,5/36=2,99/5=2) pseudo=read geom=check gue
 ss=(read,tcheck) scf=(maxcycle=1)
 ----------------------------------------------------------------------
 -----
 title
 -----
 Structure from the checkpoint file:  "BH10_140_forward_mol2.chk"
 Charge =  0 Multiplicity = 1

                         Standard orientation:
 ---------------------------------------------------------------------
 Center     Atomic      Atomic             Coordinates (Angstroms)
 Number     Number       Type             X           Y           Z
 ---------------------------------------------------------------------
      1          6           0        2.563204    0.729675    0.274361
      2          6           0        1.662325   -0.235878    1.009686
      3          6           0        1.034566   -1.306913    0.118990
      4          6           0        0.022372   -0.794387   -0.900664
      5          7           0       -1.169850   -0.196366   -0.276965
      6          6           0       -2.156490   -1.056632    0.169205
      7          8           0       -2.084600   -2.254625    0.078535
      8          6           0       -1.268007    1.194963   -0.180708
      9          8           0       -0.369537    1.897663   -0.580308
     10          6           0       -2.513528    1.790388    0.430781
     11          1           0        0.888500    0.349581    1.517141
     12          1           0        2.244735   -0.724483    1.795369
     13          1           0        0.550299   -2.063113    0.740079
     14          1           0        1.827358   -1.818610   -0.432249
     15          1           0       -0.326532   -1.624238   -1.512990
     16          1           0        0.452031   -0.036327   -1.550314
     17          1           0       -3.022766   -0.556849    0.618201
     18          1           0       -2.647391    1.469274    1.465060
     19          1           0       -3.408576    1.518123   -0.130395
     20          1           0       -2.393670    2.870172    0.407250
     21          1           0        3.013690    1.451119    0.958481
     22          1           0        2.038022    1.266172   -0.515222
     23          9           0        3.615522    0.022459   -0.326375
 ---------------------------------------------------------------------

 SCF Done:  E(RHF) =  -576.354542067     A.U. after    2 cycles

 The electronic state is 1-A.
 Alpha  occ. eigenvalues --  -26.43057 -20.54958 -20.54723 -15.56614 -11.39427
 Alpha  occ. eigenvalues --  -11.38629 -11.30521 -11.27742 -11.27462 -11.23750
 Alpha  occ. eigenvalues --  -11.23499  -1.54949  -1.50559  -1.49472  -1.28793
 Alpha  occ. eigenvalues --   -1.09267  -1.04898  -0.99700  -0.93468  -0.90288
 Alpha  occ. eigenvalues --   -0.82403  -0.78700  -0.73710  -0.70807  -0.69259
 Alpha  occ. eigenvalues --   -0.68829  -0.67003  -0.64966  -0.63692  -0.62976
 Alpha  occ. eigenvalues --   -0.61722  -0.61271  -0.59224  -0.57976  -0.54888
 Alpha  occ. eigenvalues --   -0.53663  -0.53025  -0.50873  -0.48217  -0.48179
 Alpha  occ. eigenvalues --   -0.46539  -0.44902  -0.43405
 Alpha virt. eigenvalues --    0.02543   0.03460   0.03964   0.04498   0.04711
 Alpha virt. eigenvalues --    0.05105   0.05796   0.06451   0.06737   0.08434
 Alpha virt. eigenvalues --    0.08893   0.10029   0.10158   0.10575   0.11874

 Mulliken charges:
               1
     1  C    0.832589
     2  C   -0.463092
     3  C   -0.255589
     4  C   -0.548210
     5  N    1.430424
     6  C    0.635156
     7  O   -1.094793
     8  C    0.504772
     9  O   -1.299048
    10  C   -0.507444
    11  H    0.213599
    12  H    0.104375
    13  H    0.099112
    14  H    0.169119
    15  H    0.100213
    16  H    0.038492
    17  H   -0.002093
    18  H    0.315506
    19  H    0.324868
    20  H    0.014609
    21  H    0.072617
    22  H    0.107695
    23  F   -0.792877
 Sum of Mulliken charges =  -0.00000

 Dipole moment (field-independent basis, Debye):
    X=             -3.2871    Y=              1.9764    Z=              1.6735  Tot=              4.1847

 Test job not archived.
 1\1\GINC-SE127\SP\RHF\Aug-CC-pVDZ\C7H12F1N1O2\OHZDE\09-Apr-2025\0\\#t
 hf aug-cc-pvdz iop(5/13=1,5/36=2,99/5=2) pseudo=read geom=check guess=
 (read,tcheck) scf=(maxcycle=1)\\title\\0,1\C,0,2.563204,0.729675,0.274
 361\C,0,1.662325,-0.235878,1.009686\C,0,1.034566,-1.306913,0.11899\C,0
 ,0.022372,-0.794387,-0.900664\N,0,-1.16985,-0.196366,-0.276965\C,0,-2.
 15649,-1.056632,0.169205\O,0,-2.0846,-2.254625,0.078535\C,0,-1.268007,
 1.194963,-0.180708\O,0,-0.369537,1.897663,-0.580308\C,0,-2.513528,1.79
 0388,0.430781\H,0,0.8885,0.349581,1.517141\H,0,2.244735,-0.724483,1.79

 Normal termination of Gaussian 16 at Wed Apr  9 00:59:45 2025.
