 Gaussian 16, Revision C.01,

 ----------------------------------------------------------------------
 #t hf aug-cc-pvdz symm=none int=(grid=ultrafine) guess=(read,tcheck) s
 table=opt
 ----------------------------------------------------------------------
 -----
 title
 -----
 Symbolic Z-matrix:
 Charge =  0 Multiplicity = 2

 SCF Done:  E(UHF) =  -1001.55543166     A.U. after   26 cycles
 Normal termination of Gaussian 16 at Wed Apr  9 01:07:24 2025.
 Gaussian 16:  ES64L-G16RevC.01  3-Jul-2019

 ----------------------------------------------------------------------
 #t hf aug-cc-pvdz iop(5/13=1,5/36=2,99/5=2) pseudo=read geom=check gue
 ss=(read,tcheck) scf=(maxcycle=1)
 ----------------------------------------------------------------------
 -----
 title
 -----
 Structure from the checkpoint file:  "BH10_164_forward_mol1.chk"
 Charge =  0 Multiplicity = 2

                         Standard orientation:
 ---------------------------------------------------------------------
 Center     Atomic      Atomic             Coordinates (Angstroms)
 Number     Number       Type             X           Y           Z
 ---------------------------------------------------------------------
      1          7           0        0.438813   -0.848048    1.337963
      2          1           0        1.113459   -0.641860    2.069599
      3          6           0        0.372635    0.127123    0.322777
      4          1           0       -0.794334    0.769090    0.361163
      5          6           0        0.375199   -0.371524   -1.107207
      6          6           0        1.337848    1.245191    0.664944
      7          1           0       -0.404013   -1.113195   -1.250498
      8          1           0        0.184200    0.450517   -1.793311
      9         16           0        1.992099   -1.062680   -1.613448
     10          8           0        2.109460    1.135884    1.598689
     11          1           0        1.937956   -2.155418   -0.833491
     12          7           0        1.261343    2.336915   -0.129804
     13          1           0        0.410009    2.519720   -0.639838
     14          1           0        1.826893    3.128216    0.136093
     15          6           0       -0.379210   -1.923630    1.458832
     16          1           0       -0.149976   -2.527757    2.350321
     17          8           0       -1.268957   -2.210725    0.686827
     18          8           0       -1.736774    1.507478    0.187174
     19          8           0       -2.427137    1.006331   -0.895791
     20          6           0       -3.423305    0.093136   -0.439701
     21          1           0       -3.975442   -0.187295   -1.336390
     22          1           0       -4.082329    0.590411    0.273311
     23          1           0       -2.952838   -0.785122    0.008029
 ---------------------------------------------------------------------

 SCF Done:  E(UHF) =  -1002.21672642     A.U. after    2 cycles

 The electronic state is 2-A.
 Alpha  occ. eigenvalues --  -93.95907 -20.64929 -20.62508 -20.54081 -20.53857
 Alpha  occ. eigenvalues --  -15.55873 -15.54370 -11.38453 -11.38251 -11.33142
 Alpha  occ. eigenvalues --  -11.28905 -11.28752  -8.23973  -6.21875  -6.21694
 Alpha  occ. eigenvalues --   -6.21439  -1.63923  -1.49551  -1.48687  -1.29441
 Alpha  occ. eigenvalues --   -1.28120  -1.24679  -1.11164  -1.02523  -0.93135
 Alpha  occ. eigenvalues --   -0.91501  -0.88549  -0.82380  -0.81054  -0.77259
 Alpha  occ. eigenvalues --   -0.76078  -0.69561  -0.68697  -0.67904  -0.67534
 Alpha  occ. eigenvalues --   -0.66658  -0.65439  -0.62947  -0.61305  -0.60114
 Alpha  occ. eigenvalues --   -0.59351  -0.56063  -0.54741  -0.51866  -0.49219
 Alpha  occ. eigenvalues --   -0.48116  -0.46929  -0.46522  -0.45514  -0.45335
 Alpha  occ. eigenvalues --   -0.39620  -0.37093
 Alpha virt. eigenvalues --    0.03236   0.03572   0.04149   0.04667   0.05381
 Alpha virt. eigenvalues --    0.06038   0.06393   0.06943   0.07614   0.08553
 Alpha virt. eigenvalues --    0.08984   0.09986   0.10679   0.11516   0.12555

  Beta  occ. eigenvalues --  -93.95846 -20.62353 -20.62088 -20.53859 -20.53653
  Beta  occ. eigenvalues --  -15.55826 -15.54358 -11.38610 -11.38294 -11.31506
  Beta  occ. eigenvalues --  -11.29057 -11.28766  -8.23902  -6.21732  -6.21566
  Beta  occ. eigenvalues --   -6.21376  -1.60110  -1.49103  -1.48250  -1.27966
  Beta  occ. eigenvalues --   -1.24849  -1.23027  -1.10009  -1.00576  -0.92666
  Beta  occ. eigenvalues --   -0.91167  -0.88447  -0.81716  -0.80214  -0.75887
  Beta  occ. eigenvalues --   -0.70732  -0.69322  -0.67733  -0.67024  -0.66070
  Beta  occ. eigenvalues --   -0.65372  -0.63760  -0.62356  -0.59781  -0.59541
  Beta  occ. eigenvalues --   -0.56866  -0.54214  -0.53281  -0.48876  -0.47339
  Beta  occ. eigenvalues --   -0.47123  -0.46014  -0.45102  -0.44316  -0.41686
  Beta  occ. eigenvalues --   -0.37350
  Beta virt. eigenvalues --    0.01777   0.03301   0.03576   0.04155   0.04755
  Beta virt. eigenvalues --    0.05394   0.06052   0.06402   0.07013   0.07616
  Beta virt. eigenvalues --    0.08561   0.09029   0.10145   0.10707   0.11665

 Mulliken charges and spin densities:
               1          2
     1  N    1.171024   0.026444
     2  H    0.239672   0.002704
     3  C   -1.740107   0.853487
     4  H    1.229319  -0.359621
     5  C   -0.588802  -0.109105
     6  C    0.677588  -0.155090
     7  H    0.148890   0.002686
     8  H    0.198091   0.005572
     9  S    0.099493   0.052047
    10  O   -1.398397   0.049639
    11  H    0.341955  -0.005421
    12  N    0.870266  -0.000738
    13  H    0.077266   0.000722
    14  H    0.121096  -0.001601
    15  C    0.566824  -0.026420
    16  H   -0.009153  -0.001652
    17  O   -1.130844   0.051089
    18  O   -0.882756   0.627671
    19  O   -0.742227  -0.011820
    20  C    0.503109  -0.003447
    21  H    0.054710  -0.001056
    22  H    0.117606   0.000519
    23  H    0.075377   0.003391
 Sum of Mulliken charges =  -0.00000   1.00000

 Dipole moment (field-independent basis, Debye):
    X=             -1.2180    Y=              0.4394    Z=              0.6338  Tot=              1.4417
                          Isotropic Fermi Contact Couplings
        Atom                 a.u.       MegaHertz       Gauss      10(-4) cm-1
     1  N(14)             -0.00799      -2.58308      -0.92171      -0.86162
     2  H(1)               0.00078       3.46719       1.23718       1.15653
     3  C(13)              0.20331     228.56449      81.55749      76.24091
     4  H(1)              -0.06996    -312.71215    -111.58347    -104.30954
     5  C(13)             -0.02123     -23.86513      -8.51567      -7.96055
     6  C(13)             -0.02806     -31.54677     -11.25667     -10.52287
     7  H(1)               0.00229      10.25158       3.65802       3.41956
     8  H(1)               0.00172       7.70417       2.74904       2.56984

 1\1\GINC-SE328\SP\UHF\Aug-CC-pVDZ\C5H11N2O4S1(2)\OHZDE\09-Apr-2025\0\\
 #t hf aug-cc-pvdz iop(5/13=1,5/36=2,99/5=2) pseudo=read geom=check gue
 ss=(read,tcheck) scf=(maxcycle=1)\\title\\0,2\N,0,0.438813,-0.848048,1
 .337963\H,0,1.113459,-0.64186,2.069599\C,0,0.372635,0.127123,0.322777\
 H,0,-0.794334,0.76909,0.361163\C,0,0.375199,-0.371524,-1.107207\C,0,1.
 337848,1.245191,0.664944\H,0,-0.404013,-1.113195,-1.250498\H,0,0.1842,
 0.450517,-1.793311\S,0,1.992099,-1.06268,-1.613448\O,0,2.10946,1.13588
 4,1.598689\H,0,1.937956,-2.155418,-0.833491\N,0,1.261343,2.336915,-0.1

 Normal termination of Gaussian 16 at Wed Apr  9 01:07:45 2025.
