 Gaussian 16, Revision C.01,

 ----------------------------------------------------------------------
 #t hf aug-cc-pvdz symm=none int=(grid=ultrafine) guess=(read,tcheck) s
 table=(opt,rrhf)
 ----------------------------------------------------------------------
 -----
 title
 -----
 Symbolic Z-matrix:
 Charge =  0 Multiplicity = 1

 SCF Done:  E(RHF) =  -1015.52300461     A.U. after   18 cycles
 Normal termination of Gaussian 16 at Wed Apr  9 01:00:48 2025.
 Gaussian 16:  ES64L-G16RevC.01  3-Jul-2019

 ----------------------------------------------------------------------
 #t hf aug-cc-pvdz iop(5/13=1,5/36=2,99/5=2) pseudo=read geom=check gue
 ss=(read,tcheck) scf=(maxcycle=1)
 ----------------------------------------------------------------------
 -----
 title
 -----
 Structure from the checkpoint file:  "BH10-RE_376_mol2.chk"
 Charge =  0 Multiplicity = 1

                         Standard orientation:
 ---------------------------------------------------------------------
 Center     Atomic      Atomic             Coordinates (Angstroms)
 Number     Number       Type             X           Y           Z
 ---------------------------------------------------------------------
      1          7           0       -3.050770    0.811848   -0.079788
      2          7           0       -3.950974   -0.037483   -0.094663
      3          7           0       -4.884842   -0.653374   -0.114255
      4          6           0       -1.716727    0.420364   -0.018226
      5          6           0       -0.769933    1.439739    0.071104
      6          6           0       -1.239466   -0.887092   -0.045967
      7          6           0        0.579500    1.157434    0.125300
      8          6           0        0.111055   -1.163870    0.023379
      9          6           0        1.053248   -0.148679    0.104886
     10          9           0       -1.173252    2.706247    0.113049
     11          9           0        1.422969    2.180579    0.237759
     12          9           0        0.488692   -2.436566   -0.028829
     13          9           0       -2.109407   -1.899517   -0.151542
     14          6           0        2.507458   -0.477654    0.210445
     15          8           0        2.951016   -1.319220    0.939768
     16          8           0        3.234565    0.275728   -0.611171
     17          6           0        4.652971    0.069563   -0.553905
     18          1           0        4.894698   -0.958043   -0.822656
     19          1           0        5.075430    0.766782   -1.271266
     20          1           0        5.021683    0.276736    0.450068
 ---------------------------------------------------------------------

 SCF Done:  E(RHF) =  -1016.48239077     A.U. after    2 cycles

 The electronic state is 1-A.
 Alpha  occ. eigenvalues --  -26.52199 -26.51504 -26.51466 -26.50965 -20.60910
 Alpha  occ. eigenvalues --  -20.55495 -15.76130 -15.65411 -15.59342 -11.41813
 Alpha  occ. eigenvalues --  -11.38857 -11.38728 -11.37645 -11.37304 -11.35752
 Alpha  occ. eigenvalues --  -11.30858 -11.30199  -1.66273  -1.65742  -1.64434
 Alpha  occ. eigenvalues --   -1.63840  -1.57034  -1.56248  -1.47585  -1.37922
 Alpha  occ. eigenvalues --   -1.22600  -1.12341  -1.06900  -1.02585  -0.97461
 Alpha  occ. eigenvalues --   -0.91519  -0.87723  -0.84252  -0.84144  -0.80300
 Alpha  occ. eigenvalues --   -0.79354  -0.79006  -0.77696  -0.75943  -0.75086
 Alpha  occ. eigenvalues --   -0.74581  -0.74129  -0.72385  -0.71696  -0.70260
 Alpha  occ. eigenvalues --   -0.69604  -0.69057  -0.68514  -0.67133  -0.64631
 Alpha  occ. eigenvalues --   -0.62936  -0.60839  -0.60050  -0.57863  -0.56880
 Alpha  occ. eigenvalues --   -0.54696  -0.54130  -0.50571  -0.47203  -0.46979
 Alpha  occ. eigenvalues --   -0.38129  -0.37454
 Alpha virt. eigenvalues --    0.02988   0.03456   0.03940   0.05117   0.05415
 Alpha virt. eigenvalues --    0.05444   0.07428   0.08134   0.08882   0.09002
 Alpha virt. eigenvalues --    0.09584   0.10031   0.10904   0.11212   0.11520

 Mulliken charges:
               1
     1  N    0.289282
     2  N   -1.162018
     3  N    0.983781
     4  C   -1.844920
     5  C    1.239531
     6  C    1.706778
     7  C    1.629924
     8  C    1.696229
     9  C    0.481178
    10  F   -1.019914
    11  F   -1.101002
    12  F   -1.086457
    13  F   -1.019588
    14  C    1.127399
    15  O   -1.197794
    16  O   -1.256891
    17  C    0.173716
    18  H    0.166172
    19  H    0.013080
    20  H    0.181514
 Sum of Mulliken charges =  -0.00000

 Dipole moment (field-independent basis, Debye):
    X=              0.8244    Y=              0.5486    Z=             -1.2363  Tot=              1.5840

 Test job not archived.
 1\1\GINC-SE016\SP\RHF\Aug-CC-pVDZ\C8H3F4N3O2\OHZDE\09-Apr-2025\0\\#t h
 f aug-cc-pvdz iop(5/13=1,5/36=2,99/5=2) pseudo=read geom=check guess=(
 read,tcheck) scf=(maxcycle=1)\\title\\0,1\N,0,-3.05077,0.811848,-0.079
 788\N,0,-3.950974,-0.037483,-0.094663\N,0,-4.884842,-0.653374,-0.11425
 5\C,0,-1.716727,0.420364,-0.018226\C,0,-0.769933,1.439739,0.071104\C,0
 ,-1.239466,-0.887092,-0.045967\C,0,0.5795,1.157434,0.1253\C,0,0.111055
 ,-1.16387,0.023379\C,0,1.053248,-0.148679,0.104886\F,0,-1.173252,2.706
 247,0.113049\F,0,1.422969,2.180579,0.237759\F,0,0.488692,-2.436566,-0.

 Normal termination of Gaussian 16 at Wed Apr  9 01:01:08 2025.
