 Gaussian 16, Revision C.01,

 ----------------------------------------------------------------------
 #t hf aug-cc-pvdz symm=none int=(grid=ultrafine) guess=(read,tcheck) s
 table=(opt,rrhf)
 ----------------------------------------------------------------------
 -----
 title
 -----
 Symbolic Z-matrix:
 Charge =  0 Multiplicity = 1

 SCF Done:  E(RHF) =  -294.033713705     A.U. after   13 cycles
 Normal termination of Gaussian 16 at Wed Apr  9 01:14:43 2025.
 Gaussian 16:  ES64L-G16RevC.01  3-Jul-2019

 ----------------------------------------------------------------------
 #t hf aug-cc-pvdz iop(5/13=1,5/36=2,99/5=2) pseudo=read geom=check gue
 ss=(read,tcheck) scf=(maxcycle=1)
 ----------------------------------------------------------------------
 -----
 title
 -----
 Structure from the checkpoint file:  "BH10_304_forward_mol2.chk"
 Charge =  0 Multiplicity = 1

                         Standard orientation:
 ---------------------------------------------------------------------
 Center     Atomic      Atomic             Coordinates (Angstroms)
 Number     Number       Type             X           Y           Z
 ---------------------------------------------------------------------
      1          6           0       -1.344470    0.411064   -0.155146
      2          6           0       -0.055992    0.463506    0.132807
      3          9           0        0.578275    1.665550   -0.017181
      4          6           0       -2.223819   -0.796627   -0.072053
      5          1           0       -2.670475   -1.016565   -1.045412
      6          1           0       -1.685603   -1.686045    0.254147
      7          1           0       -3.048157   -0.629147    0.626441
      8          6           0        0.892977   -0.583639    0.601008
      9          6           0        1.985812   -0.889827   -0.425913
     10          1           0        0.337294   -1.489261    0.844505
     11          1           0        1.350370   -0.231902    1.531240
     12          1           0        2.684907   -1.630944   -0.034554
     13          1           0        1.553098   -1.282048   -1.348416
     14          1           0        2.549316    0.010532   -0.673310
     15          1           0       -1.802282    1.338564   -0.484225
 ---------------------------------------------------------------------

 SCF Done:  E(RHF) =  -294.339563381     A.U. after    2 cycles

 The electronic state is 1-A.
 Alpha  occ. eigenvalues --  -26.45426 -11.31760 -11.24591 -11.23977 -11.23442
 Alpha  occ. eigenvalues --  -11.23090  -1.58143  -1.09759  -1.03517  -0.93955
 Alpha  occ. eigenvalues --   -0.87285  -0.75990  -0.69125  -0.67601  -0.65481
 Alpha  occ. eigenvalues --   -0.60922  -0.58581  -0.57835  -0.55391  -0.54520
 Alpha  occ. eigenvalues --   -0.53450  -0.50545  -0.49890  -0.35699
 Alpha virt. eigenvalues --    0.03573   0.03708   0.04154   0.04598   0.06236
 Alpha virt. eigenvalues --    0.06280   0.06809   0.07595   0.09101   0.11856
 Alpha virt. eigenvalues --    0.12157   0.13156   0.13493   0.14259   0.15069

 Mulliken charges:
               1
     1  C   -0.027219
     2  C    1.355536
     3  F   -0.975143
     4  C   -0.661512
     5  H    0.265471
     6  H    0.070091
     7  H    0.242966
     8  C   -0.551340
     9  C   -0.418983
    10  H    0.182497
    11  H    0.257092
    12  H    0.111992
    13  H    0.144184
    14  H    0.188229
    15  H   -0.183862
 Sum of Mulliken charges =  -0.00000

 Dipole moment (field-independent basis, Debye):
    X=             -0.5536    Y=             -1.7605    Z=              0.2382  Tot=              1.8608

 Test job not archived.
 1\1\GINC-SE284\SP\RHF\Aug-CC-pVDZ\C5H9F1\OHZDE\09-Apr-2025\0\\#t hf au
 g-cc-pvdz iop(5/13=1,5/36=2,99/5=2) pseudo=read geom=check guess=(read
 ,tcheck) scf=(maxcycle=1)\\title\\0,1\C,0,-1.34447,0.411064,-0.155146\
 C,0,-0.055992,0.463506,0.132807\F,0,0.578275,1.66555,-0.017181\C,0,-2.
 223819,-0.796627,-0.072053\H,0,-2.670475,-1.016565,-1.045412\H,0,-1.68
 5603,-1.686045,0.254147\H,0,-3.048157,-0.629147,0.626441\C,0,0.892977,
 -0.583639,0.601008\C,0,1.985812,-0.889827,-0.425913\H,0,0.337294,-1.48
 9261,0.844505\H,0,1.35037,-0.231902,1.53124\H,0,2.684907,-1.630944,-0.

 Normal termination of Gaussian 16 at Wed Apr  9 01:14:50 2025.
