 Gaussian 16, Revision C.01,

 ----------------------------------------------------------------------
 #t hf aug-cc-pvdz symm=none int=(grid=ultrafine) guess=(read,tcheck) s
 table=opt
 ----------------------------------------------------------------------
 -----
 title
 -----
 Symbolic Z-matrix:
 Charge =  0 Multiplicity = 2

 SCF Done:  E(UHF) =  -1179.57302239     A.U. after   23 cycles
 Normal termination of Gaussian 16 at Wed Apr  9 01:03:50 2025.
 Gaussian 16:  ES64L-G16RevC.01  3-Jul-2019

 ----------------------------------------------------------------------
 #t hf aug-cc-pvdz iop(5/13=1,5/36=2,99/5=2) pseudo=read geom=check gue
 ss=(read,tcheck) scf=(maxcycle=1)
 ----------------------------------------------------------------------
 -----
 title
 -----
 Structure from the checkpoint file:  "BH10_163_forward_mol1.chk"
 Charge =  0 Multiplicity = 2

                         Standard orientation:
 ---------------------------------------------------------------------
 Center     Atomic      Atomic             Coordinates (Angstroms)
 Number     Number       Type             X           Y           Z
 ---------------------------------------------------------------------
      1          6           0       -3.004320    0.142878   -0.901164
      2         16           0       -2.451784   -1.204219    0.179547
      3          6           0       -0.637181   -1.092869   -0.007046
      4          6           0       -0.023472    0.139194    0.599017
      5          6           0       -0.223678    0.379372    2.069364
      6          6           0        0.046968    1.310895   -0.306924
      7          8           0        0.186615    2.479789    0.344314
      8          8           0        0.032753    1.246748   -1.513604
      9         16           0        2.817922   -0.587394    0.448067
     10          6           0        2.743281   -0.951640   -1.330480
     11          1           0       -2.805901    1.122272   -0.467422
     12          1           0       -2.532724    0.073699   -1.879983
     13          1           0       -4.081468    0.023595   -1.011736
     14          1           0       -0.068187   -0.547131    2.624409
     15          1           0       -1.245183    0.714457    2.266534
     16          1           0        0.460162    1.139817    2.442747
     17          1           0       -0.260199   -1.979800    0.504067
     18          1           0       -0.385717   -1.166937   -1.063602
     19          1           0        2.269007   -0.135349   -1.873181
     20          1           0        3.772519   -1.047497   -1.676791
     21          1           0        2.219414   -1.885621   -1.526330
     22          1           0        1.340963   -0.193517    0.563358
     23          1           0        0.294566    3.168535   -0.326168
 ---------------------------------------------------------------------

 SCF Done:  E(UHF) =  -1180.08919143     A.U. after    2 cycles

 The electronic state is 2-A.
 Alpha  occ. eigenvalues --  -93.94967 -93.94811 -20.61263 -20.55306 -11.40535
 Alpha  occ. eigenvalues --  -11.29810 -11.27932 -11.26511 -11.26432 -11.24535
 Alpha  occ. eigenvalues --   -8.23023  -8.22894  -6.21651  -6.20778  -6.20577
 Alpha  occ. eigenvalues --   -6.20575  -6.20327  -6.20308  -1.56546  -1.47006
 Alpha  occ. eigenvalues --   -1.15110  -1.07311  -1.05737  -0.96719  -0.93273
 Alpha  occ. eigenvalues --   -0.88184  -0.85452  -0.78183  -0.72566  -0.71133
 Alpha  occ. eigenvalues --   -0.69447  -0.62567  -0.62136  -0.60850  -0.60179
 Alpha  occ. eigenvalues --   -0.59683  -0.59491  -0.59023  -0.56882  -0.54397
 Alpha  occ. eigenvalues --   -0.53914  -0.51147  -0.50349  -0.48638  -0.46317
 Alpha  occ. eigenvalues --   -0.45239  -0.36708  -0.36137  -0.34693
 Alpha virt. eigenvalues --    0.03052   0.03627   0.03888   0.04035   0.05229
 Alpha virt. eigenvalues --    0.05823   0.05983   0.06686   0.06931   0.08566
 Alpha virt. eigenvalues --    0.08849   0.09503   0.10190   0.10932   0.12091

  Beta  occ. eigenvalues --  -93.94750 -93.94428 -20.61295 -20.54729 -11.40848
  Beta  occ. eigenvalues --  -11.28166 -11.28009 -11.26517 -11.26487 -11.24709
  Beta  occ. eigenvalues --   -8.22822  -8.22402  -6.20633  -6.20436  -6.20295
  Beta  occ. eigenvalues --   -6.20276  -6.19968  -6.19259  -1.56355  -1.46059
  Beta  occ. eigenvalues --   -1.12718  -1.05903  -1.03501  -0.96765  -0.92610
  Beta  occ. eigenvalues --   -0.86049  -0.84621  -0.77221  -0.72211  -0.69409
  Beta  occ. eigenvalues --   -0.66546  -0.62418  -0.61017  -0.60130  -0.59715
  Beta  occ. eigenvalues --   -0.59446  -0.59366  -0.58143  -0.56627  -0.53706
  Beta  occ. eigenvalues --   -0.52626  -0.50496  -0.47945  -0.46731  -0.45544
  Beta  occ. eigenvalues --   -0.43512  -0.35641  -0.35302
  Beta virt. eigenvalues --    0.01083   0.03061   0.03643   0.03903   0.04051
  Beta virt. eigenvalues --    0.05294   0.05830   0.06005   0.06719   0.06991
  Beta virt. eigenvalues --    0.08585   0.08857   0.09573   0.10222   0.10990

 Mulliken charges and spin densities:
               1          2
     1  C   -0.701039  -0.002507
     2  S    0.515807   0.048132
     3  C   -0.474268  -0.185654
     4  C   -1.170955   1.203664
     5  C   -0.090418  -0.145861
     6  C    2.581161  -0.240266
     7  O   -1.444184  -0.001991
     8  O   -1.397664   0.137500
     9  S   -0.193986   0.544237
    10  C   -0.618787  -0.051404
    11  H    0.177762   0.002552
    12  H    0.191066   0.000721
    13  H    0.065309  -0.001309
    14  H    0.245296   0.003994
    15  H    0.211162   0.028179
    16  H    0.212233   0.009461
    17  H    0.111221   0.010896
    18  H    0.052890   0.003085
    19  H    0.134945   0.009472
    20  H    0.062864   0.006875
    21  H    0.161526   0.000331
    22  H    1.036044  -0.379060
    23  H    0.332016  -0.001046
 Sum of Mulliken charges =  -0.00000   1.00000

 Dipole moment (field-independent basis, Debye):
    X=             -0.5827    Y=              1.3560    Z=             -0.6290  Tot=              1.6044
                          Isotropic Fermi Contact Couplings
        Atom                 a.u.       MegaHertz       Gauss      10(-4) cm-1
     1  C(13)             -0.00122      -1.37212      -0.48961      -0.45769
     2  S(33)              0.01738       5.96790       2.12950       1.99068
     3  C(13)             -0.04078     -45.84196     -16.35755     -15.29123
     4  C(13)              0.20116     226.14683      80.69481      75.43446
     5  C(13)             -0.03339     -37.54223     -13.39600     -12.52274
     6  C(13)             -0.04989     -56.08532     -20.01264     -18.70805
     7  O(17)             -0.00634       3.84562       1.37221       1.28276
     8  O(17)              0.04484     -27.17967      -9.69838      -9.06616

 Normal termination of Gaussian 16 at Wed Apr  9 01:04:09 2025.
