 Gaussian 16, Revision C.01,

 ----------------------------------------------------------------------
 #t hf aug-cc-pvdz symm=none int=(grid=ultrafine) guess=(read,tcheck) s
 table=(opt,rrhf)
 ----------------------------------------------------------------------
 -----
 title
 -----
 Symbolic Z-matrix:
 Charge =  0 Multiplicity = 1

 SCF Done:  E(RHF) =  -842.604703273     A.U. after   15 cycles
 Normal termination of Gaussian 16 at Wed Apr  9 01:01:39 2025.
 Gaussian 16:  ES64L-G16RevC.01  3-Jul-2019

 ----------------------------------------------------------------------
 #t hf aug-cc-pvdz iop(5/13=1,5/36=2,99/5=2) pseudo=read geom=check gue
 ss=(read,tcheck) scf=(maxcycle=1)
 ----------------------------------------------------------------------
 -----
 title
 -----
 Structure from the checkpoint file:  "BH10_208_forward_mol2.chk"
 Charge =  0 Multiplicity = 1

                         Standard orientation:
 ---------------------------------------------------------------------
 Center     Atomic      Atomic             Coordinates (Angstroms)
 Number     Number       Type             X           Y           Z
 ---------------------------------------------------------------------
      1          6           0        0.663289    1.204430   -0.000001
      2          6           0       -0.724189    1.230154   -0.000004
      3          6           0       -1.408751    0.014714   -0.000002
      4          6           0       -0.739530   -1.208037    0.000001
      5          6           0        0.651340   -1.203065    0.000002
      6          6           0        1.338048   -0.004509    0.000002
      7          1           0        1.219803    2.132824   -0.000002
      8          1           0        1.195670   -2.138603    0.000004
      9          8           0       -2.773800    0.088285   -0.000000
     10          1           0       -3.156782   -0.792578   -0.000045
     11          6           0       -1.511841   -2.498608    0.000006
     12          1           0       -0.836823   -3.353324   -0.000010
     13          1           0       -2.149609   -2.590580    0.885549
     14          1           0       -2.149634   -2.590573   -0.885521
     15          6           0       -1.492583    2.518909   -0.000006
     16          1           0       -2.140844    2.586694    0.876289
     17          1           0       -0.816379    3.373580   -0.000039
     18          1           0       -2.140892    2.586662   -0.876268
     19         17           0        3.088894   -0.014371    0.000004
 ---------------------------------------------------------------------

 SCF Done:  E(RHF) =  -843.076599579     A.U. after    2 cycles

 The electronic state is 1-A.
 Alpha  occ. eigenvalues -- -105.56493 -20.58478 -11.30592 -11.29690 -11.25688
 Alpha  occ. eigenvalues --  -11.25546 -11.25168 -11.25128 -11.24908 -11.23426
 Alpha  occ. eigenvalues --  -10.61295  -7.78264  -7.77871  -7.77849  -1.50052
 Alpha  occ. eigenvalues --   -1.18509  -1.09797  -1.07985  -0.99656  -0.95815
 Alpha  occ. eigenvalues --   -0.94672  -0.83357  -0.81090  -0.75034  -0.70603
 Alpha  occ. eigenvalues --   -0.64285  -0.62655  -0.61699  -0.59727  -0.58787
 Alpha  occ. eigenvalues --   -0.58102  -0.57886  -0.55494  -0.55222  -0.53409
 Alpha  occ. eigenvalues --   -0.52070  -0.50853  -0.45866  -0.45298  -0.34942
 Alpha  occ. eigenvalues --   -0.31739
 Alpha virt. eigenvalues --    0.02800   0.03621   0.04074   0.04349   0.05177
 Alpha virt. eigenvalues --    0.05681   0.06449   0.07515   0.08326   0.09378
 Alpha virt. eigenvalues --    0.10361   0.10558   0.11989   0.12347   0.12647

 Mulliken charges:
               1
     1  C    0.639281
     2  C    0.241422
     3  C    2.119714
     4  C    0.133988
     5  C    0.510696
     6  C   -0.960991
     7  H   -0.212742
     8  H   -0.202137
     9  O   -1.997768
    10  H    0.441861
    11  C   -0.835872
    12  H   -0.011793
    13  H    0.308772
    14  H    0.308771
    15  C   -0.704821
    16  H    0.272408
    17  H    0.031786
    18  H    0.272402
    19  Cl  -0.354977
 Sum of Mulliken charges =  -0.00000

 Dipole moment (field-independent basis, Debye):
    X=             -2.4901    Y=             -1.4080    Z=             -0.0001  Tot=              2.8605

 Test job not archived.
 1\1\GINC-SE458\SP\RHF\Aug-CC-pVDZ\C8H9Cl1O1\OHZDE\09-Apr-2025\0\\#t hf
  aug-cc-pvdz iop(5/13=1,5/36=2,99/5=2) pseudo=read geom=check guess=(r
 ead,tcheck) scf=(maxcycle=1)\\title\\0,1\C,0,0.663289,1.20443,-0.00000
 1\C,0,-0.724189,1.230154,-0.000004\C,0,-1.408751,0.014714,-0.000002\C,
 0,-0.73953,-1.208037,0.000001\C,0,0.65134,-1.203065,0.000002\C,0,1.338
 048,-0.004509,0.000002\H,0,1.219803,2.132824,-0.000002\H,0,1.19567,-2.
 138603,0.000004\O,0,-2.7738,0.088285,0.\H,0,-3.156782,-0.792578,-0.000
 045\C,0,-1.511841,-2.498608,0.000006\H,0,-0.836823,-3.353324,-0.00001\

 Normal termination of Gaussian 16 at Wed Apr  9 01:01:50 2025.
