 Gaussian 16, Revision C.01,

 ----------------------------------------------------------------------
 #t hf aug-cc-pvdz symm=none int=(grid=ultrafine) guess=(read,tcheck) s
 table=(opt,rrhf)
 ----------------------------------------------------------------------
 -----
 title
 -----
 Symbolic Z-matrix:
 Charge =  0 Multiplicity = 1

 SCF Done:  E(RHF) =  -1035.36981185     A.U. after   15 cycles
 Normal termination of Gaussian 16 at Wed Apr  9 01:46:48 2025.
 Gaussian 16:  ES64L-G16RevC.01  3-Jul-2019

 ----------------------------------------------------------------------
 #t hf aug-cc-pvdz iop(5/13=1,5/36=2,99/5=2) pseudo=read geom=check gue
 ss=(read,tcheck) scf=(maxcycle=1)
 ----------------------------------------------------------------------
 -----
 title
 -----
 Structure from the checkpoint file:  "BH10_288_reverse_mol2.chk"
 Charge =  0 Multiplicity = 1

                         Standard orientation:
 ---------------------------------------------------------------------
 Center     Atomic      Atomic             Coordinates (Angstroms)
 Number     Number       Type             X           Y           Z
 ---------------------------------------------------------------------
      1          6           0       -1.545972    1.519652   -1.605620
      2          1           0       -1.487852    1.326855   -2.677564
      3          1           0       -1.001553   -0.573850   -1.342076
      4          6           0        1.339358   -0.114034   -0.169057
      5          6           0        0.921262    0.492790    3.409930
      6          5           0        4.043838   -1.379705   -0.715042
      7          6           0        3.609942   -1.052930   -2.192677
      8          1           0        4.396400   -1.309734   -2.905685
      9          6           0        5.020957   -2.560765   -0.389414
     10          1           0        5.085483   -2.774298    0.678418
     11          6           0        0.498020    2.167587   -0.812052
     12          8           0        1.456562    2.859958   -0.640365
     13          1           0       -1.791982    1.096556    1.089028
     14          6           0       -3.128606   -0.409905    0.343710
     15          6           0       -5.528215   -0.125325    0.265114
     16          6           0       -4.562045   -2.254623   -0.275203
     17          1           0       -2.424818   -2.376233   -0.151281
     18          1           0       -6.672099   -1.850484   -0.302848
     19          1           0       -4.145013    1.420119    0.810963
     20          1           0       -2.559567    1.808663   -1.340041
     21          6           0       -1.012213    0.354581   -0.774749
     22          7           0        0.363089    0.803144   -0.553706
     23          6           0        2.701730    0.418104    0.266605
     24          8           0        3.612148   -0.651838    0.357166
     25          6           0        1.975497    0.165441    2.676747
     26          6           0        2.598913    1.065818    1.654837
     27          8           0        1.064284   -1.288132   -0.154963
     28          1           0        3.311918   -0.017289   -2.374180
     29          1           0        2.748101   -1.683256   -2.440563
     30          1           0        6.027688   -2.317534   -0.748858
     31          1           0        4.728316   -3.474070   -0.916256
     32          8           0       -0.669534    2.618792   -1.303280
     33          6           0       -1.744990    0.143827    0.554653
     34          1           0       -1.150233   -0.539805    1.162055
     35          6           0       -4.258130    0.388036    0.496393
     36          6           0       -5.682812   -1.447390   -0.123884
     37          6           0       -3.296315   -1.739057   -0.042767
     38          1           0       -4.675649   -3.290878   -0.570162
     39          1           0       -6.397145    0.508926    0.393217
     40          1           0        0.503517   -0.190141    4.139810
     41          1           0        0.443323    1.462930    3.313968
     42          1           0        3.625366    1.306861    1.944866
     43          1           0        2.052377    2.005134    1.576146
     44          1           0        2.432100   -0.812960    2.792061
     45          1           0        3.044563    1.169926   -0.443723
 ---------------------------------------------------------------------

 SCF Done:  E(RHF) =  -1036.42036692     A.U. after    2 cycles

 The electronic state is 1-A.
 Alpha  occ. eigenvalues --  -20.61164 -20.54679 -20.54435 -20.54395 -15.57062
 Alpha  occ. eigenvalues --  -11.43802 -11.38508 -11.32455 -11.31107 -11.30673
 Alpha  occ. eigenvalues --  -11.25856 -11.25403 -11.25286 -11.25236 -11.25092
 Alpha  occ. eigenvalues --  -11.24958 -11.24892 -11.24270 -11.24139 -11.23237
 Alpha  occ. eigenvalues --  -11.19983 -11.19036  -7.59968  -1.57704  -1.50400
 Alpha  occ. eigenvalues --   -1.48388  -1.46675  -1.29409  -1.17527  -1.10772
 Alpha  occ. eigenvalues --   -1.09520  -1.04059  -1.02899  -1.02129  -0.96977
 Alpha  occ. eigenvalues --   -0.96346  -0.95183  -0.92743  -0.90130  -0.87490
 Alpha  occ. eigenvalues --   -0.84904  -0.82100  -0.79010  -0.77174  -0.75287
 Alpha  occ. eigenvalues --   -0.73670  -0.72132  -0.71701  -0.70183  -0.67622
 Alpha  occ. eigenvalues --   -0.66871  -0.66443  -0.65475  -0.64883  -0.63599
 Alpha  occ. eigenvalues --   -0.63254  -0.61370  -0.60974  -0.60599  -0.59772
 Alpha  occ. eigenvalues --   -0.59348  -0.58769  -0.58165  -0.56484  -0.56039
 Alpha  occ. eigenvalues --   -0.54621  -0.53743  -0.53143  -0.52650  -0.52190
 Alpha  occ. eigenvalues --   -0.51758  -0.51258  -0.50660  -0.50533  -0.49407
 Alpha  occ. eigenvalues --   -0.48985  -0.47032  -0.46628  -0.44660  -0.44469
 Alpha  occ. eigenvalues --   -0.43325  -0.37450  -0.35846  -0.35102
 Alpha virt. eigenvalues --    0.02694   0.02756   0.03152   0.03414   0.03599
 Alpha virt. eigenvalues --    0.04117   0.04292   0.04625   0.05306   0.05525
 Alpha virt. eigenvalues --    0.06203   0.06572   0.06984   0.07451   0.07875

 Mulliken charges:
               1
     1  C    0.942243
     2  H    0.103856
     3  H   -0.143259
     4  C   -1.315807
     5  C   -0.111327
     6  B    1.303951
     7  C   -0.392512
     8  H   -0.133728
     9  C   -0.453547
    10  H   -0.052997
    11  C    2.128093
    12  O   -1.309021
    13  H    0.091002
    14  C    1.964225
    15  C    0.030940
    16  C   -0.263957
    17  H   -0.358958
    18  H   -0.220985
    19  H   -0.377448
    20  H    0.066788
    21  C   -1.458176
    22  N    2.726546
    23  C    1.521682
    24  O   -2.157334
    25  C    1.194747
    26  C   -0.545534
    27  O   -1.523098
    28  H    0.066965
    29  H    0.168056
    30  H    0.104063
    31  H    0.063735
    32  O   -1.418309
    33  C   -0.735299
    34  H    0.056244
    35  C    0.122248
    36  C    0.241050
    37  C    0.443664
    38  H   -0.260535
    39  H   -0.253434
    40  H   -0.185047
    41  H   -0.143643
    42  H    0.231945
    43  H    0.072811
    44  H   -0.165627
    45  H    0.334727
 Sum of Mulliken charges =  -0.00000

 Dipole moment (field-independent basis, Debye):
    X=             -3.4221    Y=             -0.7441    Z=             -1.0451  Tot=              3.6547

 Test job not archived.
 1\1\GINC-SE112\SP\RHF\Aug-CC-pVDZ\C17H22B1N1O4\OHZDE\09-Apr-2025\0\\#t
  hf aug-cc-pvdz iop(5/13=1,5/36=2,99/5=2) pseudo=read geom=check guess
 =(read,tcheck) scf=(maxcycle=1)\\title\\0,1\C,0,-1.545972,1.519652,-1.
 60562\H,0,-1.487852,1.326855,-2.677564\H,0,-1.001553,-0.57385,-1.34207
 6\C,0,1.339358,-0.114034,-0.169057\C,0,0.921262,0.49279,3.40993\B,0,4.
 043838,-1.379705,-0.715042\C,0,3.609942,-1.05293,-2.192677\H,0,4.3964,
 -1.309734,-2.905685\C,0,5.020957,-2.560765,-0.389414\H,0,5.085483,-2.7
 74298,0.678418\C,0,0.49802,2.167587,-0.812052\O,0,1.456562,2.859958,-0

 Normal termination of Gaussian 16 at Wed Apr  9 01:48:56 2025.
