 Gaussian 16, Revision C.01,

 ----------------------------------------------------------------------
 #t hf aug-cc-pvdz symm=none int=(grid=ultrafine) guess=(read,tcheck) s
 table=(opt,rrhf)
 ----------------------------------------------------------------------
 -----
 title
 -----
 Symbolic Z-matrix:
 Charge =  0 Multiplicity = 1

 SCF Done:  E(RHF) =  -1273.89262509     A.U. after   16 cycles
 Normal termination of Gaussian 16 at Wed Apr  9 01:48:13 2025.
 Gaussian 16:  ES64L-G16RevC.01  3-Jul-2019

 ----------------------------------------------------------------------
 #t hf aug-cc-pvdz iop(5/13=1,5/36=2,99/5=2) pseudo=read geom=check gue
 ss=(read,tcheck) scf=(maxcycle=1)
 ----------------------------------------------------------------------
 -----
 title
 -----
 Structure from the checkpoint file:  "BH10_350_forward_mol1.chk"
 Charge =  0 Multiplicity = 1

                         Standard orientation:
 ---------------------------------------------------------------------
 Center     Atomic      Atomic             Coordinates (Angstroms)
 Number     Number       Type             X           Y           Z
 ---------------------------------------------------------------------
      1          7           0        0.839211    0.975724   -0.191824
      2          6           0        2.174649    0.627446    0.079378
      3          6           0        2.344840   -0.711393    0.063140
      4         16           0        0.827454   -1.498853   -0.289594
      5          6           0       -0.006894   -0.021015   -0.422702
      6          6           0        3.185528    1.691568    0.345872
      7          1           0        3.218482    2.424034   -0.463675
      8          1           0        4.177608    1.254940    0.438732
      9          1           0        2.971304    2.227966    1.273661
     10          6           0        3.585166   -1.505782    0.311057
     11          1           0        4.445274   -0.856056    0.469217
     12          1           0        3.810424   -2.157935   -0.535142
     13          1           0        3.477147   -2.137180    1.195613
     14          6           0        0.386493    2.365220   -0.234471
     15          1           0        0.837005    2.927016    0.581526
     16          1           0       -0.692064    2.366321   -0.103618
     17          1           0        0.657638    2.824752   -1.185856
     18          6           0       -1.955028   -0.371632   -0.683283
     19          8           0       -2.028606   -1.594966   -0.607580
     20          6           0       -2.215150    0.359451   -1.985267
     21          1           0       -1.638395   -0.111384   -2.781064
     22          1           0       -1.966533    1.419921   -1.925153
     23          1           0       -3.278113    0.258397   -2.216196
     24         16           0       -2.655929    0.654475    0.740825
     25          6           0       -2.392214   -0.540987    2.069225
     26          1           0       -2.464472   -1.534814    1.625559
     27          1           0       -3.173995   -0.410452    2.815224
     28          1           0       -1.415680   -0.413087    2.537184
 ---------------------------------------------------------------------

 SCF Done:  E(RHF) =  -1274.50915614     A.U. after    2 cycles

 The electronic state is 1-A.
 Alpha  occ. eigenvalues --  -93.98465 -93.91435 -20.46347 -15.58830 -11.34973
 Alpha  occ. eigenvalues --  -11.30366 -11.30219 -11.29162 -11.28310 -11.26997
 Alpha  occ. eigenvalues --  -11.26209 -11.23458 -11.22305  -8.26703  -8.19620
 Alpha  occ. eigenvalues --   -6.24442  -6.24319  -6.24140  -6.17432  -6.17286
 Alpha  occ. eigenvalues --   -6.17090  -1.41580  -1.34088  -1.14578  -1.08953
 Alpha  occ. eigenvalues --   -1.04627  -1.01950  -0.99224  -0.98015  -0.94213
 Alpha  occ. eigenvalues --   -0.85835  -0.83903  -0.76048  -0.72409  -0.69515
 Alpha  occ. eigenvalues --   -0.68867  -0.63419  -0.62302  -0.61811  -0.61575
 Alpha  occ. eigenvalues --   -0.60750  -0.59938  -0.58824  -0.58224  -0.57332
 Alpha  occ. eigenvalues --   -0.56921  -0.55947  -0.55317  -0.55189  -0.50327
 Alpha  occ. eigenvalues --   -0.49661  -0.48451  -0.44993  -0.42182  -0.36589
 Alpha  occ. eigenvalues --   -0.35657  -0.34115  -0.32526
 Alpha virt. eigenvalues --    0.02131   0.02793   0.03390   0.03689   0.04636
 Alpha virt. eigenvalues --    0.04869   0.05153   0.05266   0.06444   0.07690
 Alpha virt. eigenvalues --    0.07817   0.08073   0.08446   0.09239   0.09316

 Mulliken charges:
               1
     1  N    1.452189
     2  C   -0.240142
     3  C   -0.250120
     4  S    0.707369
     5  C   -1.692581
     6  C   -0.680452
     7  H    0.334373
     8  H    0.073463
     9  H    0.325873
    10  C   -0.682367
    11  H    0.127560
    12  H    0.287577
    13  H    0.315501
    14  C   -0.212079
    15  H    0.089081
    16  H    0.057537
    17  H    0.183632
    18  C    1.485050
    19  O   -1.748551
    20  C   -0.340418
    21  H    0.189119
    22  H    0.163656
    23  H    0.174534
    24  S    0.134600
    25  C   -0.723655
    26  H    0.221768
    27  H    0.125124
    28  H    0.122359
 Sum of Mulliken charges =  -0.00000

 Dipole moment (field-independent basis, Debye):
    X=              7.1721    Y=              3.5262    Z=              0.6137  Tot=              8.0156

 Test job not archived.
 1\1\GINC-SE403\SP\RHF\Aug-CC-pVDZ\C9H15N1O1S2\OHZDE\09-Apr-2025\0\\#t
 hf aug-cc-pvdz iop(5/13=1,5/36=2,99/5=2) pseudo=read geom=check guess=
 (read,tcheck) scf=(maxcycle=1)\\title\\0,1\N,0,0.839211,0.975724,-0.19
 1824\C,0,2.174649,0.627446,0.079378\C,0,2.34484,-0.711393,0.06314\S,0,
 0.827454,-1.498853,-0.289594\C,0,-0.006894,-0.021015,-0.422702\C,0,3.1
 85528,1.691568,0.345872\H,0,3.218482,2.424034,-0.463675\H,0,4.177608,1
 .25494,0.438732\H,0,2.971304,2.227966,1.273661\C,0,3.585166,-1.505782,
 0.311057\H,0,4.445274,-0.856056,0.469217\H,0,3.810424,-2.157935,-0.535

 Normal termination of Gaussian 16 at Wed Apr  9 01:48:43 2025.
