 Gaussian 16, Revision C.01,

 ----------------------------------------------------------------------
 #t hf aug-cc-pvdz symm=none int=(grid=ultrafine) guess=(read,tcheck) s
 table=opt
 ----------------------------------------------------------------------
 -----
 title
 -----
 Symbolic Z-matrix:
 Charge =  0 Multiplicity = 2

 SCF Done:  E(UHF) =  -1247.52047547     A.U. after   17 cycles
 Normal termination of Gaussian 16 at Wed Apr  9 01:13:23 2025.
 Gaussian 16:  ES64L-G16RevC.01  3-Jul-2019

 ----------------------------------------------------------------------
 #t hf aug-cc-pvdz iop(5/13=1,5/36=2,99/5=2) pseudo=read geom=check gue
 ss=(read,tcheck) scf=(maxcycle=1)
 ----------------------------------------------------------------------
 -----
 title
 -----
 Structure from the checkpoint file:  "BH10_182_reverse_mol2.chk"
 Charge =  0 Multiplicity = 2

                         Standard orientation:
 ---------------------------------------------------------------------
 Center     Atomic      Atomic             Coordinates (Angstroms)
 Number     Number       Type             X           Y           Z
 ---------------------------------------------------------------------
      1          7           0        0.482203    0.474211   -1.113904
      2         16           0        1.857344   -0.205343   -0.509921
      3          8           0        1.584742   -0.502944    1.046038
      4          6           0        1.101885   -1.794231    1.492577
      5          6           0       -0.412772   -1.882789    1.491167
      6          1           0        1.493444   -1.866211    2.505330
      7          1           0        1.555973   -2.570532    0.875815
      8          6           0       -1.039328   -2.047633    0.149695
      9          1           0       -0.824017   -1.007957    2.006021
     10          1           0       -0.674654   -2.746036    2.126765
     11          6           0       -2.510496   -1.908962   -0.024579
     12          1           0       -0.474768   -2.575991   -0.615661
     13          6           0        0.141331    1.855422   -0.870330
     14          1           0       -0.306114    2.284705   -1.768565
     15          6           0       -0.853734    2.045242    0.255139
     16          9           0       -1.973345    1.321595    0.032924
     17          9           0       -1.219358    3.332125    0.342732
     18          9           0       -0.378745    1.670664    1.446972
     19          8           0        2.856236    0.826409   -0.516780
     20          8           0        2.012086   -1.469403   -1.185878
     21          6           0       -2.939631   -1.710747   -1.476358
     22          1           0       -2.876871   -1.081104    0.591161
     23          1           0       -3.007344   -2.809348    0.373162
     24          1           0       -2.556324   -0.768913   -1.877197
     25          1           0       -4.026802   -1.684776   -1.566824
     26          1           0       -2.569352   -2.519978   -2.110097
     27          1           0        1.047268    2.414834   -0.639473
     28          1           0       -0.278373   -0.192441   -1.198921
 ---------------------------------------------------------------------

 SCF Done:  E(UHF) =  -1248.41782049     A.U. after    2 cycles

 The electronic state is 2-A.
 Alpha  occ. eigenvalues --  -94.26215 -26.51904 -26.51868 -26.51677 -20.60638
 Alpha  occ. eigenvalues --  -20.55724 -20.55419 -15.56304 -11.52878 -11.32509
 Alpha  occ. eigenvalues --  -11.31766 -11.25388 -11.25357 -11.24383 -11.23879
 Alpha  occ. eigenvalues --   -8.50532  -6.48685  -6.48530  -6.48448  -1.72970
 Alpha  occ. eigenvalues --   -1.62782  -1.62634  -1.62059  -1.48865  -1.46647
 Alpha  occ. eigenvalues --   -1.28074  -1.11924  -1.07646  -1.04815  -0.96988
 Alpha  occ. eigenvalues --   -0.93667  -0.89860  -0.85636  -0.82830  -0.82434
 Alpha  occ. eigenvalues --   -0.82252  -0.80691  -0.78904  -0.73706  -0.72291
 Alpha  occ. eigenvalues --   -0.69914  -0.69880  -0.68443  -0.66439  -0.65654
 Alpha  occ. eigenvalues --   -0.65288  -0.64694  -0.64183  -0.63180  -0.62454
 Alpha  occ. eigenvalues --   -0.61278  -0.60040  -0.59176  -0.57317  -0.55795
 Alpha  occ. eigenvalues --   -0.53610  -0.52649  -0.52078  -0.51048  -0.50893
 Alpha  occ. eigenvalues --   -0.50071  -0.49655  -0.48015  -0.46504  -0.35953
 Alpha virt. eigenvalues --    0.03030   0.03212   0.03795   0.03985   0.05057
 Alpha virt. eigenvalues --    0.05554   0.06056   0.06324   0.07355   0.08083
 Alpha virt. eigenvalues --    0.08656   0.09258   0.09293   0.10454   0.10855

  Beta  occ. eigenvalues --  -94.26215 -26.51902 -26.51869 -26.51676 -20.60649
  Beta  occ. eigenvalues --  -20.55721 -20.55416 -15.56217 -11.52877 -11.32511
  Beta  occ. eigenvalues --  -11.31715 -11.25688 -11.24693 -11.23819 -11.22943
  Beta  occ. eigenvalues --   -8.50532  -6.48685  -6.48528  -6.48450  -1.72969
  Beta  occ. eigenvalues --   -1.62782  -1.62632  -1.62057  -1.48876  -1.46641
  Beta  occ. eigenvalues --   -1.27876  -1.09499  -1.07465  -1.04688  -0.95886
  Beta  occ. eigenvalues --   -0.93069  -0.89010  -0.85512  -0.82803  -0.82400
  Beta  occ. eigenvalues --   -0.82000  -0.78890  -0.77436  -0.73643  -0.72102
  Beta  occ. eigenvalues --   -0.69875  -0.69825  -0.68256  -0.65698  -0.65431
  Beta  occ. eigenvalues --   -0.64950  -0.64219  -0.63301  -0.63075  -0.62041
  Beta  occ. eigenvalues --   -0.61004  -0.59874  -0.58377  -0.56763  -0.54808
  Beta  occ. eigenvalues --   -0.53464  -0.52393  -0.51532  -0.50689  -0.50390
  Beta  occ. eigenvalues --   -0.49865  -0.49341  -0.47945  -0.46279
  Beta virt. eigenvalues --    0.03039   0.03177   0.03803   0.03993   0.05037
  Beta virt. eigenvalues --    0.05541   0.06008   0.06250   0.07318   0.07882
  Beta virt. eigenvalues --    0.08636   0.09156   0.09271   0.09653   0.10688

 Mulliken charges and spin densities:
               1          2
     1  N    0.775803   0.012271
     2  S    4.197067  -0.000580
     3  O   -1.813683  -0.000722
     4  C    0.531934   0.015556
     5  C   -0.482966  -0.306697
     6  H   -0.022189  -0.001400
     7  H    0.231978  -0.003404
     8  C    0.247708   1.598275
     9  H    0.139458   0.014310
    10  H    0.221803   0.049869
    11  C   -0.549810  -0.330556
    12  H   -0.278037  -0.121475
    13  C   -1.047105   0.004906
    14  H    0.090685   0.000479
    15  C    2.970528  -0.001660
    16  F   -0.862458   0.001444
    17  F   -0.786873  -0.000037
    18  F   -0.837464   0.000111
    19  O   -1.519742   0.000407
    20  O   -1.558114   0.002918
    21  C   -0.344333   0.026998
    22  H    0.195601   0.007011
    23  H    0.180828   0.050232
    24  H    0.107270   0.006006
    25  H    0.123043  -0.000876
    26  H    0.197871  -0.003229
    27  H    0.119555   0.001066
    28  H   -0.228360  -0.021225
 Sum of Mulliken charges =  -0.00000   1.00000

 Dipole moment (field-independent basis, Debye):
    X=             -3.6327    Y=             -1.4120    Z=              0.9878  Tot=              4.0207
                          Isotropic Fermi Contact Couplings
        Atom                 a.u.       MegaHertz       Gauss      10(-4) cm-1
     1  N(14)              0.01861       6.01401       2.14595       2.00606
     2  S(33)              0.00011       0.03708       0.01323       0.01237
     3  O(17)             -0.00131       0.79170       0.28250       0.26408
     4  C(13)              0.01168      13.13202       4.68583       4.38037
     5  C(13)             -0.05798     -65.17836     -23.25726     -21.74116
     6  H(1)              -0.00098      -4.37942      -1.56268      -1.46082
     7  H(1)              -0.00066      -2.96130      -1.05667      -0.98778
     8  C(13)              0.22396     251.77762      89.84052      83.98397

 Normal termination of Gaussian 16 at Wed Apr  9 01:14:04 2025.
