 Gaussian 16, Revision C.01,

 ----------------------------------------------------------------------
 #t hf aug-cc-pvdz symm=none int=(grid=ultrafine) guess=(read,tcheck) s
 table=(opt,rrhf)
 ----------------------------------------------------------------------
 -----
 title
 -----
 Symbolic Z-matrix:
 Charge =  0 Multiplicity = 1

 SCF Done:  E(RHF) =  -446.718648491     A.U. after   15 cycles

 1\1\GINC-SE460\Stability\RHF\Aug-CC-pVDZ\C9H11F1\OHZDE\09-Apr-2025\0\\
 #t hf aug-cc-pvdz symm=none int=(grid=ultrafine) guess=(read,tcheck) s
 table=(opt,rrhf)\\title\\0,1\C,0,1.447175,0.014538,0.000006\C,0,2.0168
 82,-0.604722,-1.264622\C,0,-0.069548,0.009376,-0.000003\C,0,2.016863,-
 0.604513,1.264745\H,0,1.635729,-0.080292,-2.141318\H,0,1.7329,-1.65515
 4,-1.340784\H,0,3.105767,-0.535973,-1.25389\C,0,-0.761757,-1.200213,0.
 000081\C,0,-0.791163,1.196845,-0.000092\H,0,1.732877,-1.654932,1.34107
 7\H,0,1.6357,-0.079937,2.141348\H,0,3.105749,-0.535769,1.254017\C,0,-2

 Normal termination of Gaussian 16 at Wed Apr  9 00:56:49 2025.
 Gaussian 16:  ES64L-G16RevC.01  3-Jul-2019

 ----------------------------------------------------------------------
 #t hf aug-cc-pvdz iop(5/13=1,5/36=2,99/5=2) pseudo=read geom=check gue
 ss=(read,tcheck) scf=(maxcycle=1)
 ----------------------------------------------------------------------
 -----
 title
 -----
 Structure from the checkpoint file:  "BH10_105_forward_mol2.chk"
 Charge =  0 Multiplicity = 1

                         Standard orientation:
 ---------------------------------------------------------------------
 Center     Atomic      Atomic             Coordinates (Angstroms)
 Number     Number       Type             X           Y           Z
 ---------------------------------------------------------------------
      1          6           0        1.447175    0.014538    0.000006
      2          6           0        2.016882   -0.604722   -1.264622
      3          6           0       -0.069548    0.009376   -0.000003
      4          6           0        2.016863   -0.604513    1.264745
      5          1           0        1.635729   -0.080292   -2.141318
      6          1           0        1.732900   -1.655154   -1.340784
      7          1           0        3.105767   -0.535973   -1.253890
      8          6           0       -0.761757   -1.200213    0.000081
      9          6           0       -0.791163    1.196845   -0.000092
     10          1           0        1.732877   -1.654932    1.341077
     11          1           0        1.635700   -0.079937    2.141348
     12          1           0        3.105749   -0.535769    1.254017
     13          6           0       -2.180418    1.174780   -0.000096
     14          6           0       -2.863362   -0.031612   -0.000012
     15          6           0       -2.147717   -1.221838    0.000077
     16          1           0       -0.218686   -2.138372    0.000152
     17          1           0       -2.670343   -2.170867    0.000143
     18          1           0       -0.260186    2.138503   -0.000158
     19          1           0       -2.729407    2.108912   -0.000166
     20          1           0       -3.946461   -0.046842   -0.000015
     21          9           0        1.874959    1.361653   -0.000102
 ---------------------------------------------------------------------

 SCF Done:  E(RHF) =  -447.177604935     A.U. after    2 cycles

 The electronic state is 1-A.
 Alpha  occ. eigenvalues --  -26.43591 -11.32921 -11.24783 -11.24452 -11.24340
 Alpha  occ. eigenvalues --  -11.24212 -11.24054 -11.23736 -11.23424 -11.23414
 Alpha  occ. eigenvalues --   -1.55803  -1.16541  -1.08718  -1.01996  -1.00683
 Alpha  occ. eigenvalues --   -0.95756  -0.86363  -0.83826  -0.78731  -0.73048
 Alpha  occ. eigenvalues --   -0.67116  -0.66807  -0.66164  -0.63449  -0.62438
 Alpha  occ. eigenvalues --   -0.60303  -0.57858  -0.57315  -0.55442  -0.54194
 Alpha  occ. eigenvalues --   -0.54055  -0.51491  -0.50475  -0.49125  -0.48015
 Alpha  occ. eigenvalues --   -0.34868  -0.34341
 Alpha virt. eigenvalues --    0.03196   0.03430   0.04018   0.04293   0.04839
 Alpha virt. eigenvalues --    0.05416   0.06590   0.07071   0.07673   0.07739
 Alpha virt. eigenvalues --    0.08818   0.10484   0.10890   0.11377   0.12647

 Mulliken charges:
               1
     1  C    0.141110
     2  C   -0.333729
     3  C    1.215839
     4  C   -0.333732
     5  H    0.187417
     6  H    0.224741
     7  H    0.154252
     8  C    0.296360
     9  C    0.063733
    10  H    0.224742
    11  H    0.187414
    12  H    0.154252
    13  C    0.214178
    14  C    0.072673
    15  C   -0.075471
    16  H   -0.344391
    17  H   -0.238787
    18  H   -0.308741
    19  H   -0.226349
    20  H   -0.227380
    21  F   -1.048132
 Sum of Mulliken charges =  -0.00000

 Dipole moment (field-independent basis, Debye):
    X=             -0.3935    Y=             -1.6937    Z=              0.0001  Tot=              1.7388

 Test job not archived.
 1\1\GINC-SE460\SP\RHF\Aug-CC-pVDZ\C9H11F1\OHZDE\09-Apr-2025\0\\#t hf a
 ug-cc-pvdz iop(5/13=1,5/36=2,99/5=2) pseudo=read geom=check guess=(rea
 d,tcheck) scf=(maxcycle=1)\\title\\0,1\C,0,1.447175,0.014538,0.000006\
 C,0,2.016882,-0.604722,-1.264622\C,0,-0.069548,0.009376,-0.000003\C,0,
 2.016863,-0.604513,1.264745\H,0,1.635729,-0.080292,-2.141318\H,0,1.732
 9,-1.655154,-1.340784\H,0,3.105767,-0.535973,-1.25389\C,0,-0.761757,-1
 .200213,0.000081\C,0,-0.791163,1.196845,-0.000092\H,0,1.732877,-1.6549
 32,1.341077\H,0,1.6357,-0.079937,2.141348\H,0,3.105749,-0.535769,1.254

 Normal termination of Gaussian 16 at Wed Apr  9 00:57:01 2025.
