 Gaussian 16, Revision C.01,

 ----------------------------------------------------------------------
 #t hf aug-cc-pvdz symm=none int=(grid=ultrafine) guess=(read,tcheck) s
 table=(opt,rrhf)
 ----------------------------------------------------------------------
 -----
 title
 -----
 Symbolic Z-matrix:
 Charge =  0 Multiplicity = 1

 SCF Done:  E(RHF) =  -1375.46253576     A.U. after   17 cycles
 Normal termination of Gaussian 16 at Wed Apr  9 03:38:59 2025.
 Gaussian 16:  ES64L-G16RevC.01  3-Jul-2019

 ----------------------------------------------------------------------
 #t hf aug-cc-pvdz iop(5/13=1,5/36=2,99/5=2) pseudo=read geom=check gue
 ss=(read,tcheck) scf=(maxcycle=1)
 ----------------------------------------------------------------------
 -----
 title
 -----
 Structure from the checkpoint file:  "BH10_396_reverse_mol2.chk"
 Charge =  0 Multiplicity = 1

                         Standard orientation:
 ---------------------------------------------------------------------
 Center     Atomic      Atomic             Coordinates (Angstroms)
 Number     Number       Type             X           Y           Z
 ---------------------------------------------------------------------
      1          6           0       -0.199254   -2.655136    0.829955
      2          1           0       -0.354401   -3.717809    0.614765
      3          1           0       -0.195805   -2.564071    1.937088
      4          6           0       -1.362581   -1.867967    0.308157
      5          6           0        0.176767   -0.289283   -0.796537
      6          1           0        0.460703   -0.639668   -1.793358
      7          1           0        0.202414    0.795538   -0.827090
      8          6           0        1.194909   -0.803142    0.217112
      9          1           0        0.927761   -0.375375    1.203306
     10          7           0        1.070618   -2.255199    0.261586
     11          6           0       -2.411991   -0.024312   -0.855574
     12          6           0       -2.737533   -2.319831    0.723806
     13          6           0       -3.619224   -0.594312   -0.802043
     14          6           0       -3.775831   -2.023091   -0.354484
     15          6           0       -1.202503   -0.770253   -0.439036
     16          6           0       -5.193738   -2.327065    0.115648
     17          1           0       -5.457421   -1.709399    0.978430
     18          1           0       -5.922030   -2.128402   -0.673850
     19          1           0       -5.293428   -3.374710    0.408147
     20          6           0        2.601024   -0.341741   -0.102686
     21          6           0        2.191367   -2.917461    0.896837
     22          1           0        1.962826   -3.983165    0.972764
     23          1           0        2.353368   -2.544313    1.925146
     24          6           0        3.439592   -2.704253    0.060979
     25          1           0        3.320742   -3.233570   -0.889349
     26          6           0        3.665336   -1.237040   -0.192916
     27          1           0        4.310679   -3.130718    0.565060
     28          6           0        4.939315   -0.755578   -0.489720
     29          1           0        5.764019   -1.457483   -0.556791
     30          6           0        2.842092    1.021592   -0.276445
     31          1           0        2.026739    1.728223   -0.171421
     32          6           0        5.166841    0.595129   -0.686379
     33          1           0        6.164014    0.951423   -0.915432
     34          6           0        4.110524    1.490592   -0.569816
     35          1           0        4.276670    2.552879   -0.702809
     36         16           0       -2.280279    1.622726   -1.520698
     37          6           0       -1.454788    2.483977   -0.196504
     38          6           0       -1.603704    2.114911    1.136621
     39          6           0       -0.917190    2.804249    2.125874
     40          6           0       -0.097660    3.876025    1.799269
     41          6           0        0.034332    4.255665    0.470072
     42          6           0       -0.632204    3.558555   -0.526583
     43          1           0       -2.247798    1.285031    1.397169
     44          1           0       -1.029183    2.502717    3.160571
     45          1           0        0.435985    4.411074    2.574900
     46          1           0        0.672397    5.089721    0.203370
     47          1           0       -0.502653    3.835368   -1.566231
     48          1           0       -3.022284   -1.801388    1.651947
     49          1           0       -2.734914   -3.388406    0.955456
     50          1           0       -3.552485   -2.664475   -1.220435
     51          1           0       -4.499169   -0.037613   -1.104912
 ---------------------------------------------------------------------

 SCF Done:  E(RHF) =  -1376.53113297     A.U. after    2 cycles

 The electronic state is 1-A.
 Alpha  occ. eigenvalues --  -93.95283 -15.48611 -11.27471 -11.26695 -11.26207
 Alpha  occ. eigenvalues --  -11.26027 -11.25480 -11.24817 -11.24793 -11.24632
 Alpha  occ. eigenvalues --  -11.24470 -11.24442 -11.24361 -11.24207 -11.23798
 Alpha  occ. eigenvalues --  -11.23720 -11.23581 -11.23480 -11.23445 -11.23224
 Alpha  occ. eigenvalues --  -11.23096 -11.23072 -11.23028 -11.22983 -11.22942
 Alpha  occ. eigenvalues --  -11.22144  -8.23358  -6.21187  -6.21025  -6.20816
 Alpha  occ. eigenvalues --   -1.25207  -1.17806  -1.15921  -1.15202  -1.08884
 Alpha  occ. eigenvalues --   -1.08167  -1.05381  -1.04653  -1.02861  -1.02339
 Alpha  occ. eigenvalues --   -0.99546  -0.98041  -0.95145  -0.93713  -0.89195
 Alpha  occ. eigenvalues --   -0.87012  -0.85182  -0.84563  -0.83220  -0.81740
 Alpha  occ. eigenvalues --   -0.80115  -0.77801  -0.75350  -0.71782  -0.70886
 Alpha  occ. eigenvalues --   -0.68944  -0.68294  -0.66649  -0.65756  -0.65126
 Alpha  occ. eigenvalues --   -0.64954  -0.63971  -0.63250  -0.61552  -0.60969
 Alpha  occ. eigenvalues --   -0.60773  -0.60517  -0.59531  -0.58964  -0.57975
 Alpha  occ. eigenvalues --   -0.57267  -0.56209  -0.55571  -0.54373  -0.54107
 Alpha  occ. eigenvalues --   -0.53114  -0.52953  -0.52913  -0.52141  -0.51461
 Alpha  occ. eigenvalues --   -0.51209  -0.50248  -0.49237  -0.48528  -0.48122
 Alpha  occ. eigenvalues --   -0.47117  -0.46050  -0.44448  -0.42956  -0.39503
 Alpha  occ. eigenvalues --   -0.38645  -0.35396  -0.33291  -0.32634  -0.32373
 Alpha  occ. eigenvalues --   -0.30040
 Alpha virt. eigenvalues --    0.02439   0.02641   0.03092   0.03242   0.03622
 Alpha virt. eigenvalues --    0.03949   0.04107   0.04401   0.04668   0.05468
 Alpha virt. eigenvalues --    0.05782   0.06342   0.06411   0.06781   0.07131

 Mulliken charges:
               1
     1  C   -2.229704
     2  H    0.069131
     3  H    0.293257
     4  C    0.853034
     5  C   -1.228796
     6  H    0.253556
     7  H    0.247210
     8  C   -2.985723
     9  H    0.061940
    10  N    2.107580
    11  C   -0.305963
    12  C   -0.374235
    13  C    0.177331
    14  C   -0.728253
    15  C    1.682404
    16  C   -0.277237
    17  H    0.237894
    18  H    0.159509
    19  H    0.176358
    20  C    1.805841
    21  C   -0.407360
    22  H   -0.021564
    23  H    0.063900
    24  C   -0.335253
    25  H    0.237738
    26  C    0.832389
    27  H    0.142929
    28  C    0.310201
    29  H   -0.337702
    30  C    0.592949
    31  H   -0.214047
    32  C   -0.117183
    33  H   -0.248549
    34  C   -0.567860
    35  H   -0.322681
    36  S    0.596293
    37  C   -0.225809
    38  C    0.361243
    39  C   -0.051137
    40  C    0.335398
    41  C    0.184836
    42  C    0.430306
    43  H   -0.203572
    44  H   -0.349800
    45  H   -0.280828
    46  H   -0.281473
    47  H   -0.304476
    48  H    0.207181
    49  H    0.085857
    50  H    0.189262
    51  H   -0.296325
 Sum of Mulliken charges =   0.00000

 Dipole moment (field-independent basis, Debye):
    X=             -0.1320    Y=             -1.3320    Z=              2.2269  Tot=              2.5983

 Test job not archived.
 1\1\GINC-SE038\SP\RHF\Aug-CC-pVDZ\C24H25N1S1\OHZDE\09-Apr-2025\0\\#t h
 f aug-cc-pvdz iop(5/13=1,5/36=2,99/5=2) pseudo=read geom=check guess=(
 read,tcheck) scf=(maxcycle=1)\\title\\0,1\C,0,-0.199254,-2.655136,0.82
 9955\H,0,-0.354401,-3.717809,0.614765\H,0,-0.195805,-2.564071,1.937088
 \C,0,-1.362581,-1.867967,0.308157\C,0,0.176767,-0.289283,-0.796537\H,0
 ,0.460703,-0.639668,-1.793358\H,0,0.202414,0.795538,-0.82709\C,0,1.194
 909,-0.803142,0.217112\H,0,0.927761,-0.375375,1.203306\N,0,1.070618,-2
 .255199,0.261586\C,0,-2.411991,-0.024312,-0.855574\C,0,-2.737533,-2.31

 Normal termination of Gaussian 16 at Wed Apr  9 03:42:39 2025.
