 Gaussian 16, Revision C.01,

 ----------------------------------------------------------------------
 #t hf aug-cc-pvdz symm=none int=(grid=ultrafine) guess=(read,tcheck) s
 table=(opt,rrhf)
 ----------------------------------------------------------------------
 -----
 title
 -----
 Symbolic Z-matrix:
 Charge =  0 Multiplicity = 1

 SCF Done:  E(RHF) =  -1000.91635734     A.U. after   17 cycles
 Normal termination of Gaussian 16 at Wed Apr  9 02:31:21 2025.
 Gaussian 16:  ES64L-G16RevC.01  3-Jul-2019

 ----------------------------------------------------------------------
 #t hf aug-cc-pvdz iop(5/13=1,5/36=2,99/5=2) pseudo=read geom=check gue
 ss=(read,tcheck) scf=(maxcycle=1)
 ----------------------------------------------------------------------
 -----
 title
 -----
 Structure from the checkpoint file:  "BH10_84_reverse_mol2.chk"
 Charge =  0 Multiplicity = 1

                         Standard orientation:
 ---------------------------------------------------------------------
 Center     Atomic      Atomic             Coordinates (Angstroms)
 Number     Number       Type             X           Y           Z
 ---------------------------------------------------------------------
      1          6           0        0.285168   -0.804703   -1.321804
      2          6           0       -1.944056   -0.646573   -0.394941
      3          6           0        0.608100    0.572776   -0.816270
      4          6           0       -1.797509    0.709925   -0.231869
      5          6           0       -0.890623   -1.375183   -1.075875
      6          6           0       -2.902760    1.553105    0.344890
      7          6           0       -0.488910    2.771597   -0.495997
      8          6           0       -3.113143   -1.365313    0.084284
      9          6           0        1.515592    0.581818    0.435108
     10          1           0        1.753889    1.635203    0.640533
     11          6           0        0.819017    0.007000    1.672728
     12          1           0       -0.066392    0.587721    1.943162
     13          1           0        0.496697   -1.021578    1.502519
     14          1           0        1.482668    0.010725    2.540694
     15          7           0       -0.643240    1.329574   -0.585710
     16         14           0        3.224893   -0.214913    0.159608
     17          6           0        4.390264    0.513117    1.442592
     18          6           0        3.173222   -2.077552    0.378663
     19          6           0        3.864612    0.220668   -1.554823
     20          1           0        2.834176   -2.346906    1.381685
     21          1           0        4.170872   -2.504061    0.243531
     22          1           0        2.501992   -2.559338   -0.333769
     23          1           0        4.043686    0.315493    2.459912
     24          1           0        4.484634    1.596063    1.327897
     25          1           0        5.390611    0.082515    1.349096
     26          1           0        0.469357    3.040875   -0.936679
     27          1           0       -0.496038    3.134356    0.536666
     28          1           0       -1.265891    3.293889   -1.055002
     29          1           0        3.889113    1.302929   -1.709054
     30          1           0        3.254485   -0.215072   -2.349322
     31          1           0        4.884494   -0.149956   -1.686611
     32          6           0       -4.164826   -0.562227    0.822436
     33          6           0       -4.256950    0.857869    0.287704
     34          8           0       -3.243827   -2.570381   -0.064140
     35          1           0       -2.642588    1.789098    1.385459
     36          1           0       -2.959918    2.509061   -0.175373
     37          1           0       -4.598819    0.829496   -0.751228
     38          1           0       -4.991465    1.439136    0.849526
     39          1           0       -5.111055   -1.097644    0.743613
     40          1           0       -3.886785   -0.550437    1.883447
     41          1           0        1.059053   -1.323417   -1.873872
     42          1           0       -1.113842   -2.385866   -1.393542
     43          1           0        1.138686    1.114579   -1.605669
 ---------------------------------------------------------------------

 SCF Done:  E(RHF) =  -1001.69922540     A.U. after    2 cycles

 The electronic state is 1-A.
 Alpha  occ. eigenvalues --  -69.50688 -20.49338 -15.53352 -11.30985 -11.30952
 Alpha  occ. eigenvalues --  -11.28257 -11.28243 -11.25733 -11.24407 -11.23073
 Alpha  occ. eigenvalues --  -11.22784 -11.22432 -11.22111 -11.21831 -11.21160
 Alpha  occ. eigenvalues --  -11.20878 -11.20613 -11.20429  -6.17785  -3.93124
 Alpha  occ. eigenvalues --   -3.93113  -3.93103  -1.43006  -1.28547  -1.12929
 Alpha  occ. eigenvalues --   -1.09751  -1.06115  -1.01189  -0.98639  -0.97704
 Alpha  occ. eigenvalues --   -0.97022  -0.93168  -0.92707  -0.91426  -0.86445
 Alpha  occ. eigenvalues --   -0.82264  -0.80921  -0.75934  -0.71372  -0.69469
 Alpha  occ. eigenvalues --   -0.68474  -0.67175  -0.64153  -0.63896  -0.62964
 Alpha  occ. eigenvalues --   -0.61196  -0.60780  -0.59930  -0.59201  -0.58573
 Alpha  occ. eigenvalues --   -0.57532  -0.57405  -0.56633  -0.56416  -0.55456
 Alpha  occ. eigenvalues --   -0.54885  -0.54242  -0.54002  -0.53733  -0.53039
 Alpha  occ. eigenvalues --   -0.51810  -0.49877  -0.49541  -0.48197  -0.47717
 Alpha  occ. eigenvalues --   -0.45971  -0.43996  -0.43623  -0.41710  -0.40005
 Alpha  occ. eigenvalues --   -0.38208  -0.28435
 Alpha virt. eigenvalues --    0.02210   0.02529   0.02740   0.03215   0.03852
 Alpha virt. eigenvalues --    0.03932   0.04273   0.05033   0.05282   0.06219
 Alpha virt. eigenvalues --    0.06473   0.06658   0.07134   0.07459   0.08390

 Mulliken charges:
               1
     1  C    0.610538
     2  C    2.372355
     3  C   -2.227140
     4  C   -2.277741
     5  C   -0.291731
     6  C   -0.582672
     7  C   -0.293378
     8  C    0.962679
     9  C   -0.096095
    10  H    0.048818
    11  C   -0.227112
    12  H    0.166283
    13  H    0.259935
    14  H    0.066686
    15  N    2.538034
    16  Si   2.261605
    17  C   -0.474653
    18  C   -0.442018
    19  C   -0.362533
    20  H    0.034426
    21  H   -0.068573
    22  H    0.020272
    23  H    0.031171
    24  H   -0.017038
    25  H   -0.104505
    26  H   -0.023784
    27  H    0.295699
    28  H    0.092121
    29  H    0.008208
    30  H   -0.013435
    31  H   -0.149018
    32  C   -0.362294
    33  C   -0.288690
    34  O   -1.734585
    35  H    0.216296
    36  H    0.176656
    37  H    0.156771
    38  H    0.183241
    39  H    0.155525
    40  H    0.272695
    41  H   -0.345027
    42  H   -0.419277
    43  H   -0.128712
 Sum of Mulliken charges =   0.00000

 Dipole moment (field-independent basis, Debye):
    X=              1.7785    Y=              5.8680    Z=              0.7010  Tot=              6.1716

 Test job not archived.
 1\1\GINC-SE222\SP\RHF\Aug-CC-pVDZ\C15H25N1O1Si1\OHZDE\09-Apr-2025\0\\#
 t hf aug-cc-pvdz iop(5/13=1,5/36=2,99/5=2) pseudo=read geom=check gues
 s=(read,tcheck) scf=(maxcycle=1)\\title\\0,1\C,0,0.285168,-0.804703,-1
 .321804\C,0,-1.944056,-0.646573,-0.394941\C,0,0.6081,0.572776,-0.81627
 \C,0,-1.797509,0.709925,-0.231869\C,0,-0.890623,-1.375183,-1.075875\C,
 0,-2.90276,1.553105,0.34489\C,0,-0.48891,2.771597,-0.495997\C,0,-3.113
 143,-1.365313,0.084284\C,0,1.515592,0.581818,0.435108\H,0,1.753889,1.6
 35203,0.640533\C,0,0.819017,0.007,1.672728\H,0,-0.066392,0.587721,1.94

 Normal termination of Gaussian 16 at Wed Apr  9 02:33:01 2025.
