 Gaussian 16, Revision C.01,

 ----------------------------------------------------------------------
 #t hf aug-cc-pvdz symm=none int=(grid=ultrafine) guess=(read,tcheck) s
 table=opt
 ----------------------------------------------------------------------
 -----
 title
 -----
 Symbolic Z-matrix:
 Charge =  0 Multiplicity = 2

 SCF Done:  E(UHF) =  -950.846243230     A.U. after   20 cycles
 Normal termination of Gaussian 16 at Wed Apr  9 01:08:03 2025.
 Gaussian 16:  ES64L-G16RevC.01  3-Jul-2019

 ----------------------------------------------------------------------
 #t hf aug-cc-pvdz iop(5/13=1,5/36=2,99/5=2) pseudo=read geom=check gue
 ss=(read,tcheck) scf=(maxcycle=1)
 ----------------------------------------------------------------------
 -----
 title
 -----
 Structure from the checkpoint file:  "BH10_181_forward_mol1.chk"
 Charge =  0 Multiplicity = 2

                         Standard orientation:
 ---------------------------------------------------------------------
 Center     Atomic      Atomic             Coordinates (Angstroms)
 Number     Number       Type             X           Y           Z
 ---------------------------------------------------------------------
      1          7           0        0.567390    0.009357   -0.737660
      2         16           0       -0.479765   -1.163387   -0.226520
      3          8           0       -1.309237   -0.507705    1.011069
      4          6           0       -2.427565    0.354059    0.718037
      5          6           0       -1.987132    1.761949    0.345566
      6          1           0       -2.999688    0.361120    1.643842
      7          1           0       -3.027116   -0.102199   -0.071218
      8          6           0       -1.244142    1.851003   -0.961906
      9          1           0       -1.388072    2.178426    1.159207
     10          1           0       -2.894998    2.375590    0.283698
     11          1           0       -0.248847    1.027614   -0.940594
     12          1           0       -1.786350    1.466346   -1.825049
     13          6           0        1.755950    0.406256    0.063306
     14          6           0        2.841057   -0.647430   -0.199557
     15          6           0        1.505955    0.553117    1.565073
     16          6           0        2.208932    1.743603   -0.524783
     17          1           0        2.327497    1.667954   -1.606643
     18          1           0        3.167863    2.027792   -0.089217
     19          1           0        1.492671    2.537383   -0.305321
     20          1           0        2.553265   -1.616002    0.204074
     21          1           0        3.771158   -0.327921    0.275800
     22          1           0        3.013030   -0.752618   -1.271462
     23          1           0        1.197654   -0.389222    2.016031
     24          1           0        0.737336    1.299394    1.769507
     25          1           0        2.429498    0.877106    2.048965
     26          8           0        0.258500   -2.247388    0.365249
     27          8           0       -1.422500   -1.373492   -1.298523
     28          1           0       -0.772825    2.811264   -1.160440
 ---------------------------------------------------------------------

 SCF Done:  E(UHF) =  -951.482270625     A.U. after    2 cycles

 The electronic state is 2-A.
 Alpha  occ. eigenvalues --  -94.24423 -20.59916 -20.54568 -20.54205 -15.56005
 Alpha  occ. eigenvalues --  -11.31530 -11.29502 -11.27519 -11.26314 -11.23919
 Alpha  occ. eigenvalues --  -11.23073 -11.22533  -8.48821  -6.46964  -6.46822
 Alpha  occ. eigenvalues --   -6.46683  -1.60627  -1.47940  -1.45184  -1.26732
 Alpha  occ. eigenvalues --   -1.10376  -1.09246  -0.98058  -0.95792  -0.94885
 Alpha  occ. eigenvalues --   -0.90082  -0.84636  -0.78831  -0.76275  -0.71506
 Alpha  occ. eigenvalues --   -0.70403  -0.67982  -0.66608  -0.65421  -0.63174
 Alpha  occ. eigenvalues --   -0.62720  -0.61162  -0.57969  -0.57668  -0.57500
 Alpha  occ. eigenvalues --   -0.56815  -0.54952  -0.53892  -0.53477  -0.52289
 Alpha  occ. eigenvalues --   -0.51337  -0.50210  -0.49540  -0.48984  -0.47935
 Alpha  occ. eigenvalues --   -0.46923  -0.45659  -0.41466
 Alpha virt. eigenvalues --    0.02644   0.03117   0.03350   0.04049   0.04696
 Alpha virt. eigenvalues --    0.05070   0.05365   0.06349   0.06713   0.07928
 Alpha virt. eigenvalues --    0.08376   0.08624   0.09051   0.09657   0.10327

  Beta  occ. eigenvalues --  -94.24463 -20.59939 -20.54403 -20.54235 -15.53477
  Beta  occ. eigenvalues --  -11.31498 -11.29629 -11.26450 -11.25862 -11.23888
  Beta  occ. eigenvalues --  -11.23067 -11.22418  -8.48875  -6.47000  -6.46857
  Beta  occ. eigenvalues --   -6.46791  -1.60492  -1.47889  -1.45028  -1.21335
  Beta  occ. eigenvalues --   -1.08993  -1.07977  -0.95829  -0.95469  -0.94325
  Beta  occ. eigenvalues --   -0.88125  -0.83401  -0.78451  -0.72765  -0.70033
  Beta  occ. eigenvalues --   -0.69406  -0.65710  -0.65383  -0.64749  -0.62772
  Beta  occ. eigenvalues --   -0.62076  -0.60262  -0.57203  -0.57037  -0.56248
  Beta  occ. eigenvalues --   -0.56047  -0.53905  -0.53429  -0.51956  -0.51736
  Beta  occ. eigenvalues --   -0.50529  -0.49925  -0.48608  -0.48171  -0.47238
  Beta  occ. eigenvalues --   -0.46071  -0.43702
  Beta virt. eigenvalues --    0.01332   0.02764   0.03163   0.03475   0.04181
  Beta virt. eigenvalues --    0.04731   0.05121   0.05401   0.06361   0.06722
  Beta virt. eigenvalues --    0.07974   0.08383   0.08629   0.09098   0.09671

 Mulliken charges and spin densities:
               1          2
     1  N    0.896128   0.745994
     2  S    4.193449  -0.037655
     3  O   -1.767451  -0.003097
     4  C    0.501186   0.009177
     5  C   -0.389878  -0.109197
     6  H   -0.053489  -0.000291
     7  H    0.227672  -0.002185
     8  C   -0.466057   0.877786
     9  H    0.175652   0.001370
    10  H    0.164834   0.020170
    11  H    0.258104  -0.402430
    12  H    0.169122  -0.042130
    13  C   -3.560434  -0.083609
    14  C    0.230873   0.053393
    15  C    0.253468   0.011227
    16  C    0.333685   0.003597
    17  H    0.235905  -0.000535
    18  H    0.160462  -0.001666
    19  H    0.205073  -0.005662
    20  H    0.239047  -0.001206
    21  H    0.249263   0.003400
    22  H    0.204017  -0.000893
    23  H    0.158542  -0.000244
    24  H    0.161240  -0.001761
    25  H    0.232793  -0.000882
    26  O   -1.592257   0.020088
    27  O   -1.537056  -0.006701
    28  H    0.116108  -0.046056
 Sum of Mulliken charges =  -0.00000   1.00000

 Dipole moment (field-independent basis, Debye):
    X=             -0.4065    Y=              5.7695    Z=              1.3530  Tot=              5.9399
                          Isotropic Fermi Contact Couplings
        Atom                 a.u.       MegaHertz       Gauss      10(-4) cm-1
     1  N(14)              0.37012     119.58866      42.67221      39.89048
     2  S(33)             -0.05835     -20.04327      -7.15194      -6.68571
     3  O(17)             -0.00483       2.92567       1.04395       0.97590
     4  C(13)              0.00722       8.11807       2.89673       2.70790
     5  C(13)             -0.02572     -28.90935     -10.31557      -9.64312
     6  H(1)              -0.00057      -2.53348      -0.90401      -0.84508
     7  H(1)              -0.00031      -1.37055      -0.48905      -0.45717
     8  C(13)              0.19966     224.45545      80.09129      74.87028

 1\1\GINC-SE069\SP\UHF\Aug-CC-pVDZ\C7H16N1O3S1(2)\OHZDE\09-Apr-2025\0\\
 #t hf aug-cc-pvdz iop(5/13=1,5/36=2,99/5=2) pseudo=read geom=check gue
 ss=(read,tcheck) scf=(maxcycle=1)\\title\\0,2\N,0,0.56739,0.009357,-0.
 73766\S,0,-0.479765,-1.163387,-0.22652\O,0,-1.309237,-0.507705,1.01106
 9\C,0,-2.427565,0.354059,0.718037\C,0,-1.987132,1.761949,0.345566\H,0,
 -2.999688,0.36112,1.643842\H,0,-3.027116,-0.102199,-0.071218\C,0,-1.24
 4142,1.851003,-0.961906\H,0,-1.388072,2.178426,1.159207\H,0,-2.894998,
 2.37559,0.283698\H,0,-0.248847,1.027614,-0.940594\H,0,-1.78635,1.46634

 Normal termination of Gaussian 16 at Wed Apr  9 01:08:34 2025.
