 Gaussian 16, Revision C.01,

 ----------------------------------------------------------------------
 #t hf aug-cc-pvdz symm=none int=(grid=ultrafine) guess=(read,tcheck) s
 table=(opt,rrhf)
 ----------------------------------------------------------------------
 -----
 title
 -----
 Symbolic Z-matrix:
 Charge =  0 Multiplicity = 1

 SCF Done:  E(RHF) =  -997.710219521     A.U. after   16 cycles
 Normal termination of Gaussian 16 at Wed Apr  9 02:16:44 2025.
 Gaussian 16:  ES64L-G16RevC.01  3-Jul-2019

 ----------------------------------------------------------------------
 #t hf aug-cc-pvdz iop(5/13=1,5/36=2,99/5=2) pseudo=read geom=check gue
 ss=(read,tcheck) scf=(maxcycle=1)
 ----------------------------------------------------------------------
 -----
 title
 -----
 Structure from the checkpoint file:  "BH10_82_forward_mol2.chk"
 Charge =  0 Multiplicity = 1

                         Standard orientation:
 ---------------------------------------------------------------------
 Center     Atomic      Atomic             Coordinates (Angstroms)
 Number     Number       Type             X           Y           Z
 ---------------------------------------------------------------------
      1          6           0        0.009672   -0.131161   -0.686832
      2          6           0       -2.373926   -0.595372   -0.170093
      3          6           0        1.212802   -0.640533   -1.000010
      4          6           0       -2.921248    0.731856    0.091767
      5          6           0       -4.393791    0.503301    0.409589
      6          6           0       -1.128507   -0.985416   -0.503201
      7          6           0       -3.467203   -1.572653   -0.009926
      8          6           0        2.475343    0.118708   -1.161182
      9          6           0        2.289133    1.615200   -1.422540
     10          1           0        1.835463    2.124201   -0.569563
     11          1           0        1.639901    1.785172   -2.285033
     12          1           0        3.034250   -0.330310   -1.992323
     13          1           0        3.246591    2.098480   -1.623594
     14          7           0       -2.286649    1.827052    0.057583
     15          6           0       -2.979272    3.064546    0.343125
     16          1           0       -4.043895    2.961520    0.580961
     17          1           0       -2.486001    3.560613    1.182562
     18          1           0       -2.882439    3.730717   -0.517648
     19          8           0       -3.444259   -2.762424   -0.131091
     20          8           0       -4.609175   -0.905158    0.322435
     21          1           0       -5.050992    0.999775   -0.306782
     22          1           0       -4.653140    0.831868    1.417674
     23         14           0        3.584957   -0.197503    0.373499
     24          6           0        3.758827   -2.047586    0.632696
     25          6           0        5.271355    0.558080    0.045900
     26          6           0        2.792187    0.595831    1.874229
     27          1           0        4.461322   -2.257846    1.443193
     28          1           0        2.805224   -2.509550    0.897933
     29          1           0        4.135377   -2.545932   -0.264501
     30          1           0        5.728436    0.138889   -0.854081
     31          1           0        5.213217    1.641267   -0.081035
     32          1           0        5.948411    0.361688    0.881335
     33          1           0        2.744930    1.682971    1.779323
     34          1           0        1.774064    0.229139    2.022992
     35          1           0        3.364094    0.369240    2.777674
     36          1           0       -0.144825    0.931956   -0.559833
     37          1           0        1.289159   -1.720912   -1.111150
     38          1           0       -0.986756   -2.055421   -0.642056
 ---------------------------------------------------------------------

 SCF Done:  E(RHF) =  -998.479431553     A.U. after    2 cycles

 The electronic state is 1-A.
 Alpha  occ. eigenvalues --  -69.51842 -20.58561 -20.51813 -15.49937 -11.37844
 Alpha  occ. eigenvalues --  -11.31304 -11.30102 -11.28372 -11.27270 -11.26422
 Alpha  occ. eigenvalues --  -11.24336 -11.23776 -11.23679 -11.23536 -11.21693
 Alpha  occ. eigenvalues --  -11.21683 -11.21273  -6.18924  -3.94254  -3.94244
 Alpha  occ. eigenvalues --   -3.94238  -1.53849  -1.44854  -1.24584  -1.13379
 Alpha  occ. eigenvalues --   -1.09114  -1.02954  -0.99852  -0.98039  -0.95948
 Alpha  occ. eigenvalues --   -0.93932  -0.93550  -0.92542  -0.86950  -0.78756
 Alpha  occ. eigenvalues --   -0.76837  -0.74889  -0.71381  -0.69261  -0.67749
 Alpha  occ. eigenvalues --   -0.66579  -0.65982  -0.62511  -0.61872  -0.61368
 Alpha  occ. eigenvalues --   -0.61047  -0.60209  -0.58041  -0.57677  -0.57518
 Alpha  occ. eigenvalues --   -0.57124  -0.56662  -0.55690  -0.55253  -0.55045
 Alpha  occ. eigenvalues --   -0.54552  -0.53580  -0.52036  -0.51006  -0.50203
 Alpha  occ. eigenvalues --   -0.46060  -0.44949  -0.44887  -0.44747  -0.43940
 Alpha  occ. eigenvalues --   -0.41905  -0.41258  -0.32493
 Alpha virt. eigenvalues --    0.02522   0.02719   0.02868   0.03300   0.03450
 Alpha virt. eigenvalues --    0.04164   0.04408   0.04952   0.05282   0.05534
 Alpha virt. eigenvalues --    0.05921   0.06094   0.06272   0.07287   0.08071

 Mulliken charges:
               1
     1  C    1.001468
     2  C    2.612506
     3  C    0.661645
     4  C   -4.101507
     5  C    0.715538
     6  C    0.038611
     7  C    1.016824
     8  C   -1.118723
     9  C   -0.217618
    10  H    0.225080
    11  H    0.194116
    12  H    0.035005
    13  H    0.021281
    14  N    1.808430
    15  C   -0.317826
    16  H    0.046279
    17  H    0.107657
    18  H    0.110139
    19  O   -1.449046
    20  O   -1.609194
    21  H    0.210132
    22  H    0.212271
    23  Si   2.448682
    24  C   -0.508581
    25  C   -0.526646
    26  C   -0.450654
    27  H   -0.058176
    28  H   -0.005716
    29  H   -0.008783
    30  H    0.006367
    31  H   -0.030008
    32  H   -0.073159
    33  H   -0.008724
    34  H    0.020000
    35  H   -0.106572
    36  H   -0.202173
    37  H   -0.297048
    38  H   -0.401877
 Sum of Mulliken charges =  -0.00000

 Dipole moment (field-independent basis, Debye):
    X=              3.5983    Y=              3.6427    Z=              0.0475  Tot=              5.1205

 Test job not archived.
 1\1\GINC-SE132\SP\RHF\Aug-CC-pVDZ\C13H21N1O2Si1\OHZDE\09-Apr-2025\0\\#
 t hf aug-cc-pvdz iop(5/13=1,5/36=2,99/5=2) pseudo=read geom=check gues
 s=(read,tcheck) scf=(maxcycle=1)\\title\\0,1\C,0,0.009672,-0.131161,-0
 .686832\C,0,-2.373926,-0.595372,-0.170093\C,0,1.212802,-0.640533,-1.00
 001\C,0,-2.921248,0.731856,0.091767\C,0,-4.393791,0.503301,0.409589\C,
 0,-1.128507,-0.985416,-0.503201\C,0,-3.467203,-1.572653,-0.009926\C,0,
 2.475343,0.118708,-1.161182\C,0,2.289133,1.6152,-1.42254\H,0,1.835463,
 2.124201,-0.569563\H,0,1.639901,1.785172,-2.285033\H,0,3.03425,-0.3303

 Normal termination of Gaussian 16 at Wed Apr  9 02:17:47 2025.
