 Gaussian 16, Revision C.01,

 ----------------------------------------------------------------------
 #t hf aug-cc-pvdz symm=none int=(grid=ultrafine) guess=(read,tcheck) s
 table=opt
 ----------------------------------------------------------------------
 -----
 title
 -----
 Symbolic Z-matrix:
 Charge =  0 Multiplicity = 2

 SCF Done:  E(UHF) =  -1247.52659526     A.U. after   19 cycles
 Normal termination of Gaussian 16 at Wed Apr  9 01:07:23 2025.
 Gaussian 16:  ES64L-G16RevC.01  3-Jul-2019

 ----------------------------------------------------------------------
 #t hf aug-cc-pvdz iop(5/13=1,5/36=2,99/5=2) pseudo=read geom=check gue
 ss=(read,tcheck) scf=(maxcycle=1)
 ----------------------------------------------------------------------
 -----
 title
 -----
 Structure from the checkpoint file:  "BH10_182_forward_mol2.chk"
 Charge =  0 Multiplicity = 2

                         Standard orientation:
 ---------------------------------------------------------------------
 Center     Atomic      Atomic             Coordinates (Angstroms)
 Number     Number       Type             X           Y           Z
 ---------------------------------------------------------------------
      1          7           0        1.371440    0.089016   -0.085823
      2         16           0        0.652350    1.600634    0.057605
      3          8           0       -0.788271    1.275184   -0.496546
      4          6           0       -1.658618    0.404434    0.287595
      5          6           0       -2.962999    0.299927   -0.462581
      6          1           0       -1.783248    0.851389    1.274505
      7          1           0       -1.164310   -0.564141    0.384208
      8          6           0       -3.953956   -0.601119    0.268119
      9          1           0       -2.765840   -0.091542   -1.464153
     10          1           0       -3.382959    1.301817   -0.585842
     11          6           0       -5.285557   -0.729885   -0.464510
     12          6           0        2.794754    0.137428    0.060434
     13          1           0        3.080847    0.566216    1.029681
     14          6           0        3.366135   -1.260337   -0.032359
     15          9           0        2.886076   -2.059541    0.927163
     16          9           0        4.701170   -1.211565    0.105212
     17          9           0        3.096840   -1.830383   -1.211634
     18          8           0        1.253303    2.518208   -0.870005
     19          8           0        0.597310    1.879083    1.474380
     20          6           0       -6.275871   -1.628954    0.265774
     21          1           0       -5.105371   -1.121190   -1.471158
     22          1           0       -5.720524    0.266180   -0.597184
     23          1           0       -5.876881   -2.639760    0.384187
     24          1           0       -7.219728   -1.706178   -0.277240
     25          1           0       -6.497289   -1.241923    1.263834
     26          1           0        3.250146    0.758211   -0.721016
     27          1           0       -4.133880   -0.209791    1.275976
     28          1           0       -3.517486   -1.597908    0.399162
 ---------------------------------------------------------------------

 SCF Done:  E(UHF) =  -1248.42466138     A.U. after    2 cycles

 The electronic state is 2-A.
 Alpha  occ. eigenvalues --  -94.27259 -26.51894 -26.51799 -26.51795 -20.62716
 Alpha  occ. eigenvalues --  -20.57468 -20.57341 -15.61640 -11.53352 -11.33189
 Alpha  occ. eigenvalues --  -11.32416 -11.25139 -11.24533 -11.23945 -11.23169
 Alpha  occ. eigenvalues --   -8.51752  -6.49866  -6.49785  -6.49593  -1.73148
 Alpha  occ. eigenvalues --   -1.64164  -1.62841  -1.62786  -1.51122  -1.48052
 Alpha  occ. eigenvalues --   -1.31899  -1.11568  -1.08067  -1.04612  -0.96461
 Alpha  occ. eigenvalues --   -0.93536  -0.88212  -0.85635  -0.83094  -0.82955
 Alpha  occ. eigenvalues --   -0.81382  -0.80358  -0.77945  -0.75960  -0.74313
 Alpha  occ. eigenvalues --   -0.70974  -0.70014  -0.69746  -0.68540  -0.65400
 Alpha  occ. eigenvalues --   -0.64832  -0.64807  -0.63248  -0.63170  -0.62836
 Alpha  occ. eigenvalues --   -0.60672  -0.59278  -0.58780  -0.57943  -0.56667
 Alpha  occ. eigenvalues --   -0.54955  -0.53599  -0.52824  -0.51868  -0.51011
 Alpha  occ. eigenvalues --   -0.50005  -0.49639  -0.49069  -0.48598  -0.48476
 Alpha virt. eigenvalues --    0.03265   0.03331   0.03421   0.04096   0.05065
 Alpha virt. eigenvalues --    0.05765   0.06213   0.06378   0.06550   0.07263
 Alpha virt. eigenvalues --    0.08049   0.09356   0.09517   0.09839   0.10793

  Beta  occ. eigenvalues --  -94.27325 -26.51903 -26.51800 -26.51796 -20.62746
  Beta  occ. eigenvalues --  -20.57251 -20.57244 -15.58197 -11.53344 -11.33472
  Beta  occ. eigenvalues --  -11.32416 -11.25139 -11.24533 -11.23945 -11.23169
  Beta  occ. eigenvalues --   -8.51839  -6.49943  -6.49826  -6.49788  -1.73151
  Beta  occ. eigenvalues --   -1.63939  -1.62843  -1.62802  -1.51041  -1.47632
  Beta  occ. eigenvalues --   -1.23362  -1.11555  -1.07016  -1.04215  -0.96232
  Beta  occ. eigenvalues --   -0.93298  -0.87121  -0.85268  -0.82882  -0.82860
  Beta  occ. eigenvalues --   -0.81332  -0.79298  -0.76855  -0.74332  -0.71035
  Beta  occ. eigenvalues --   -0.70492  -0.69753  -0.69455  -0.66087  -0.65308
  Beta  occ. eigenvalues --   -0.64697  -0.63494  -0.63166  -0.62688  -0.61356
  Beta  occ. eigenvalues --   -0.60430  -0.58936  -0.57755  -0.57626  -0.54791
  Beta  occ. eigenvalues --   -0.53642  -0.52747  -0.51604  -0.50338  -0.49872
  Beta  occ. eigenvalues --   -0.49569  -0.48715  -0.48553  -0.48259
  Beta virt. eigenvalues --    0.00261   0.03285   0.03335   0.03436   0.04111
  Beta virt. eigenvalues --    0.05075   0.05773   0.06218   0.06425   0.06584
  Beta virt. eigenvalues --    0.07287   0.08052   0.09374   0.09530   0.09874

 Mulliken charges and spin densities:
               1          2
     1  N    0.184568   1.110617
     2  S    4.447693  -0.064333
     3  O   -1.836090  -0.008001
     4  C    0.348013  -0.002768
     5  C   -0.358056  -0.000263
     6  H    0.143266  -0.001293
     7  H    0.174773  -0.000557
     8  C   -0.193303  -0.001228
     9  H    0.115487  -0.000292
    10  H    0.122276   0.000047
    11  C   -0.207478  -0.000115
    12  C   -1.103185  -0.173522
    13  H    0.167116   0.050591
    14  C    2.795643   0.001865
    15  F   -0.803597   0.000279
    16  F   -0.751577   0.000398
    17  F   -0.801705  -0.000253
    18  O   -1.530095   0.010092
    19  O   -1.557183   0.030201
    20  C   -0.392711  -0.000017
    21  H    0.109354   0.000012
    22  H    0.111596  -0.000021
    23  H    0.159447  -0.000002
    24  H    0.116416  -0.000005
    25  H    0.161627   0.000002
    26  H    0.154035   0.048611
    27  H    0.111110   0.000140
    28  H    0.112559  -0.000184
 Sum of Mulliken charges =  -0.00000   1.00000

 Dipole moment (field-independent basis, Debye):
    X=             -2.5086    Y=             -1.3851    Z=              0.2592  Tot=              2.8772
                          Isotropic Fermi Contact Couplings
        Atom                 a.u.       MegaHertz       Gauss      10(-4) cm-1
     1  N(14)              0.31993     103.37198      36.88569      34.48118
     2  S(33)             -0.07606     -26.12433      -9.32181      -8.71414
     3  O(17)             -0.00337       2.04380       0.72928       0.68174
     4  C(13)             -0.00043      -0.48077      -0.17155      -0.16037
     5  C(13)              0.00001       0.01653       0.00590       0.00551
     6  H(1)               0.00002       0.10181       0.03633       0.03396
     7  H(1)               0.00020       0.90789       0.32396       0.30284
     8  C(13)             -0.00005      -0.05061      -0.01806      -0.01688

 Normal termination of Gaussian 16 at Wed Apr  9 01:07:49 2025.
