 Gaussian 16, Revision C.01,

 ----------------------------------------------------------------------
 #t hf aug-cc-pvdz symm=none int=(grid=ultrafine) guess=(read,tcheck) s
 table=(opt,rrhf)
 ----------------------------------------------------------------------
 -----
 title
 -----
 Symbolic Z-matrix:
 Charge =  0 Multiplicity = 1

 SCF Done:  E(RHF) =  -482.545365443     A.U. after   15 cycles
 Normal termination of Gaussian 16 at Wed Apr  9 01:01:29 2025.
 Gaussian 16:  ES64L-G16RevC.01  3-Jul-2019

 ----------------------------------------------------------------------
 #t hf aug-cc-pvdz iop(5/13=1,5/36=2,99/5=2) pseudo=read geom=check gue
 ss=(read,tcheck) scf=(maxcycle=1)
 ----------------------------------------------------------------------
 -----
 title
 -----
 Structure from the checkpoint file:  "BH10_205_forward_mol3.chk"
 Charge =  0 Multiplicity = 1

                         Standard orientation:
 ---------------------------------------------------------------------
 Center     Atomic      Atomic             Coordinates (Angstroms)
 Number     Number       Type             X           Y           Z
 ---------------------------------------------------------------------
      1          6           0       -1.021818   -1.220907   -0.000050
      2          6           0        0.370246   -1.205798   -0.000014
      3          6           0        1.022699    0.025927    0.000029
      4          6           0        0.322956    1.233059    0.000035
      5          6           0       -1.065095    1.191214   -0.000005
      6          6           0       -1.708576   -0.028498   -0.000046
      7          1           0       -1.568770   -2.155117   -0.000083
      8          1           0       -1.647952    2.103553   -0.000001
      9          9           0       -3.062186   -0.053382   -0.000082
     10          8           0        2.389320    0.118261    0.000060
     11          1           0        2.783409   -0.757435    0.000120
     12          6           0        1.076221    2.530558    0.000079
     13          1           0        0.390675    3.377747    0.000131
     14          1           0        1.724060    2.605177    0.876132
     15          1           0        1.724023    2.605259   -0.875995
     16          6           0        1.160416   -2.485426   -0.000023
     17          1           0        1.799703   -2.567881    0.885351
     18          1           0        0.497947   -3.349877   -0.000043
     19          1           0        1.799724   -2.567852   -0.885383
 ---------------------------------------------------------------------

 SCF Done:  E(RHF) =  -483.032396255     A.U. after    2 cycles

 The electronic state is 1-A.
 Alpha  occ. eigenvalues --  -26.46508 -20.58007 -11.32119 -11.29947 -11.25678
 Alpha  occ. eigenvalues --  -11.25413 -11.25157 -11.24470 -11.24267 -11.23305
 Alpha  occ. eigenvalues --   -1.59350  -1.49507  -1.16872  -1.07854  -1.03029
 Alpha  occ. eigenvalues --   -0.96081  -0.94857  -0.83901  -0.82496  -0.75417
 Alpha  occ. eigenvalues --   -0.71953  -0.70500  -0.66389  -0.63331  -0.62086
 Alpha  occ. eigenvalues --   -0.60672  -0.59776  -0.59077  -0.58602  -0.57055
 Alpha  occ. eigenvalues --   -0.55216  -0.54295  -0.53446  -0.50263  -0.48066
 Alpha  occ. eigenvalues --   -0.34849  -0.31599
 Alpha virt. eigenvalues --    0.02886   0.03671   0.04054   0.04496   0.05004
 Alpha virt. eigenvalues --    0.05513   0.06542   0.07614   0.08250   0.09950
 Alpha virt. eigenvalues --    0.10674   0.11559   0.12428   0.12583   0.12944

 Mulliken charges:
               1
     1  C    0.017608
     2  C    0.403393
     3  C    2.010764
     4  C    0.246395
     5  C    0.117248
     6  C    0.670896
     7  H   -0.251714
     8  H   -0.254998
     9  F   -1.025726
    10  O   -1.960330
    11  H    0.419198
    12  C   -0.704202
    13  H    0.033163
    14  H    0.262620
    15  H    0.262630
    16  C   -0.836586
    17  H    0.299841
    18  H   -0.010039
    19  H    0.299841
 Sum of Mulliken charges =   0.00000

 Dipole moment (field-independent basis, Debye):
    X=              2.0220    Y=             -1.3753    Z=              0.0001  Tot=              2.4454

 Test job not archived.
 1\1\GINC-SE455\SP\RHF\Aug-CC-pVDZ\C8H9F1O1\OHZDE\09-Apr-2025\0\\#t hf
 aug-cc-pvdz iop(5/13=1,5/36=2,99/5=2) pseudo=read geom=check guess=(re
 ad,tcheck) scf=(maxcycle=1)\\title\\0,1\C,0,1.021818,-1.220907,0.00005
 \C,0,-0.370246,-1.205798,0.000014\C,0,-1.022699,0.025927,-0.000029\C,0
 ,-0.322956,1.233059,-0.000035\C,0,1.065095,1.191214,0.000005\C,0,1.708
 576,-0.028498,0.000046\H,0,1.568769,-2.155117,0.000083\H,0,1.647953,2.
 103553,0.000001\F,0,3.062186,-0.053383,0.000082\O,0,-2.38932,0.118262,
 -0.00006\H,0,-2.783409,-0.757434,-0.00012\C,0,-1.07622,2.530558,-0.000

 Normal termination of Gaussian 16 at Wed Apr  9 01:01:39 2025.
