 Gaussian 16, Revision C.01,

 ----------------------------------------------------------------------
 #t hf aug-cc-pvdz symm=none int=(grid=ultrafine) guess=(read,tcheck) s
 table=(opt,rrhf)
 ----------------------------------------------------------------------
 -----
 title
 -----
 Symbolic Z-matrix:
 Charge =  0 Multiplicity = 1

 SCF Done:  E(RHF) =  -743.238097176     A.U. after   14 cycles
 Normal termination of Gaussian 16 at Wed Apr  9 01:58:11 2025.
 Gaussian 16:  ES64L-G16RevC.01  3-Jul-2019

 ----------------------------------------------------------------------
 #t hf aug-cc-pvdz iop(5/13=1,5/36=2,99/5=2) pseudo=read geom=check gue
 ss=(read,tcheck) scf=(maxcycle=1)
 ----------------------------------------------------------------------
 -----
 title
 -----
 Structure from the checkpoint file:  "BH10_418_forward_mol2.chk"
 Charge =  0 Multiplicity = 1

                         Standard orientation:
 ---------------------------------------------------------------------
 Center     Atomic      Atomic             Coordinates (Angstroms)
 Number     Number       Type             X           Y           Z
 ---------------------------------------------------------------------
      1          6           0        0.617010    1.558571    0.963941
      2          6           0       -0.639698    2.054220    0.225935
      3          6           0       -1.454502    0.926887   -0.372678
      4          6           0       -1.152686   -0.426735    0.199021
      5          6           0        0.335546   -0.797355   -0.009672
      6          6           0        1.240841    0.384531    0.247618
      7          6           0       -2.336978    1.065373   -1.348098
      8          9           0       -1.925919   -1.403571   -0.319750
      9          9           0        0.641206   -1.846903    0.800573
     10          6           0        2.473727    0.341662   -0.165339
     11          6           0        3.700828    0.297622   -0.579986
     12          9           0        0.469654   -1.247309   -1.285631
     13          9           0       -1.388635   -0.413681    1.550317
     14          1           0        3.969034    0.642037   -1.572503
     15          1           0        4.490174   -0.094474    0.051610
     16          1           0       -2.881869    0.216965   -1.739143
     17          1           0       -2.536262    2.037694   -1.782994
     18          1           0       -1.260789    2.625244    0.920521
     19          1           0       -0.350386    2.732575   -0.578729
     20          1           0        1.346844    2.361857    1.048916
     21          1           0        0.351960    1.252608    1.978278
 ---------------------------------------------------------------------

 SCF Done:  E(RHF) =  -743.952952043     A.U. after    2 cycles

 The electronic state is 1-A.
 Alpha  occ. eigenvalues --  -26.48810 -26.48581 -26.48247 -26.48003 -11.43922
 Alpha  occ. eigenvalues --  -11.43713 -11.28318 -11.27166 -11.26987 -11.26600
 Alpha  occ. eigenvalues --  -11.26311 -11.26193 -11.25764  -1.66774  -1.64186
 Alpha  occ. eigenvalues --   -1.59057  -1.57783  -1.16730  -1.11050  -1.04651
 Alpha  occ. eigenvalues --   -1.03545  -0.97528  -0.89681  -0.88054  -0.82400
 Alpha  occ. eigenvalues --   -0.79495  -0.78511  -0.75709  -0.73570  -0.71715
 Alpha  occ. eigenvalues --   -0.69336  -0.67246  -0.66753  -0.65822  -0.64720
 Alpha  occ. eigenvalues --   -0.63991  -0.62871  -0.62559  -0.60882  -0.60355
 Alpha  occ. eigenvalues --   -0.60216  -0.58675  -0.56146  -0.54300  -0.51663
 Alpha  occ. eigenvalues --   -0.49982  -0.40765  -0.39757  -0.39392
 Alpha virt. eigenvalues --    0.02927   0.03291   0.03663   0.04486   0.05361
 Alpha virt. eigenvalues --    0.05631   0.06184   0.07025   0.08566   0.09292
 Alpha virt. eigenvalues --    0.09629   0.09951   0.10998   0.12116   0.12279

 Mulliken charges:
               1
     1  C   -0.760830
     2  C   -0.714725
     3  C    0.355166
     4  C    2.257231
     5  C    1.805014
     6  C    0.596481
     7  C    0.037344
     8  F   -0.992973
     9  F   -0.933403
    10  C   -0.043771
    11  C   -0.049167
    12  F   -0.990388
    13  F   -0.967650
    14  H   -0.060033
    15  H   -0.044045
    16  H   -0.151794
    17  H   -0.135612
    18  H    0.240665
    19  H    0.172492
    20  H    0.082202
    21  H    0.297796
 Sum of Mulliken charges =  -0.00000

 Dipole moment (field-independent basis, Debye):
    X=              1.2126    Y=              3.8878    Z=             -0.7006  Tot=              4.1323

 Test job not archived.
 1\1\GINC-SE462\SP\RHF\Aug-CC-pVDZ\C9H8F4\OHZDE\09-Apr-2025\0\\#t hf au
 g-cc-pvdz iop(5/13=1,5/36=2,99/5=2) pseudo=read geom=check guess=(read
 ,tcheck) scf=(maxcycle=1)\\title\\0,1\C,0,0.61701,1.558571,0.963941\C,
 0,-0.639698,2.05422,0.225935\C,0,-1.454502,0.926887,-0.372678\C,0,-1.1
 52686,-0.426735,0.199021\C,0,0.335546,-0.797355,-0.009672\C,0,1.240841
 ,0.384531,0.247618\C,0,-2.336978,1.065373,-1.348098\F,0,-1.925919,-1.4
 03571,-0.31975\F,0,0.641206,-1.846903,0.800573\C,0,2.473727,0.341662,-
 0.165339\C,0,3.700828,0.297622,-0.579986\F,0,0.469654,-1.247309,-1.285

 Normal termination of Gaussian 16 at Wed Apr  9 01:58:26 2025.
