 Gaussian 16, Revision C.01,

 ----------------------------------------------------------------------
 #t hf aug-cc-pvdz symm=none int=(grid=ultrafine) guess=(read,tcheck) s
 table=(opt,rrhf)
 ----------------------------------------------------------------------
 -----
 title
 -----
 Symbolic Z-matrix:
 Charge =  0 Multiplicity = 1

 SCF Done:  E(RHF) =  -589.523627606     A.U. after   14 cycles
 Normal termination of Gaussian 16 at Wed Apr  9 01:40:40 2025.
 Gaussian 16:  ES64L-G16RevC.01  3-Jul-2019

 ----------------------------------------------------------------------
 #t hf aug-cc-pvdz iop(5/13=1,5/36=2,99/5=2) pseudo=read geom=check gue
 ss=(read,tcheck) scf=(maxcycle=1)
 ----------------------------------------------------------------------
 -----
 title
 -----
 Structure from the checkpoint file:  "BH10_350_forward_mol2.chk"
 Charge =  0 Multiplicity = 1

                         Standard orientation:
 ---------------------------------------------------------------------
 Center     Atomic      Atomic             Coordinates (Angstroms)
 Number     Number       Type             X           Y           Z
 ---------------------------------------------------------------------
      1          6           0       -0.745946    0.268767   -0.004698
      2          8           0       -0.626695    1.465026   -0.004914
      3          6           0       -2.078309   -0.434348    0.005276
      4          1           0       -2.586853   -0.194575    0.940857
      5          1           0       -1.982420   -1.515470   -0.086567
      6          1           0       -2.683299   -0.045760   -0.814795
      7         16           0        0.656837   -0.826938   -0.004811
      8          6           0        1.987967    0.396177    0.007441
      9          1           0        1.923579    1.030072   -0.873932
     10          1           0        2.924713   -0.158277    0.000329
     11          1           0        1.926170    1.011235    0.902287
 ---------------------------------------------------------------------

 SCF Done:  E(RHF) =  -589.782498976     A.U. after    2 cycles

 The electronic state is 1-A.
 Alpha  occ. eigenvalues --  -93.96404 -20.54424 -11.37082 -11.26971 -11.25590
 Alpha  occ. eigenvalues --   -8.24690  -6.22501  -6.22321  -6.22137  -1.48861
 Alpha  occ. eigenvalues --   -1.09861  -1.02633  -0.90767  -0.74495  -0.66432
 Alpha  occ. eigenvalues --   -0.64591  -0.62883  -0.59783  -0.59308  -0.54742
 Alpha  occ. eigenvalues --   -0.51817  -0.49230  -0.40719  -0.37744
 Alpha virt. eigenvalues --    0.03708   0.03877   0.04987   0.05208   0.06445
 Alpha virt. eigenvalues --    0.06993   0.08709   0.11331   0.11957   0.12807
 Alpha virt. eigenvalues --    0.13414   0.13695   0.14246   0.16186   0.16259

 Mulliken charges:
               1
     1  C    0.782031
     2  O   -1.272817
     3  C   -0.441240
     4  H    0.246666
     5  H    0.175442
     6  H    0.223480
     7  S    0.400944
     8  C   -0.691698
     9  H    0.223448
    10  H    0.131910
    11  H    0.221834
 Sum of Mulliken charges =  -0.00000

 Dipole moment (field-independent basis, Debye):
    X=              0.1058    Y=             -1.2722    Z=              0.0288  Tot=              1.2769

 Test job not archived.
 1\1\GINC-SE328\SP\RHF\Aug-CC-pVDZ\C3H6O1S1\OHZDE\09-Apr-2025\0\\#t hf
 aug-cc-pvdz iop(5/13=1,5/36=2,99/5=2) pseudo=read geom=check guess=(re
 ad,tcheck) scf=(maxcycle=1)\\title\\0,1\C,0,-0.745946,0.268767,-0.0046
 98\O,0,-0.626695,1.465026,-0.004914\C,0,-2.078309,-0.434348,0.005276\H
 ,0,-2.586853,-0.194575,0.940857\H,0,-1.98242,-1.51547,-0.086567\H,0,-2
 .683299,-0.04576,-0.814795\S,0,0.656837,-0.826938,-0.004811\C,0,1.9879
 67,0.396178,0.007441\H,0,1.923579,1.030073,-0.873932\H,0,2.924713,-0.1
 58276,0.000329\H,0,1.92617,1.011236,0.902287\\Version=ES64L-G16RevC.01

 Normal termination of Gaussian 16 at Wed Apr  9 01:40:44 2025.
