 Gaussian 16, Revision C.01,

 ----------------------------------------------------------------------
 #t hf aug-cc-pvdz symm=none int=(grid=ultrafine) guess=(read,tcheck) s
 table=opt
 ----------------------------------------------------------------------
 -----
 title
 -----
 Symbolic Z-matrix:
 Charge =  0 Multiplicity = 2

 SCF Done:  E(UHF) =  -1806.41024702     A.U. after   18 cycles
 Normal termination of Gaussian 16 at Wed Apr  9 04:01:11 2025.
 Gaussian 16:  ES64L-G16RevC.01  3-Jul-2019

 ----------------------------------------------------------------------
 #t hf aug-cc-pvdz iop(5/13=1,5/36=2,99/5=2) pseudo=read geom=check gue
 ss=(read,tcheck) scf=(maxcycle=1)
 ----------------------------------------------------------------------
 -----
 title
 -----
 Structure from the checkpoint file:  "BH10_304_reverse_mol2.chk"
 Charge =  0 Multiplicity = 2

                         Standard orientation:
 ---------------------------------------------------------------------
 Center     Atomic      Atomic             Coordinates (Angstroms)
 Number     Number       Type             X           Y           Z
 ---------------------------------------------------------------------
      1          6           0        0.997667   -0.203641   -1.566773
      2          6           0        2.370922   -0.276744   -1.014786
      3          9           0        2.639817   -1.477058   -0.401432
      4         14           0       -0.303791    0.011911   -0.147047
      5         14           0        0.028332    2.120006    0.839169
      6         14           0       -0.118639   -1.653094    1.503288
      7         14           0       -2.462150   -0.039737   -1.082438
      8          6           0       -0.567230    3.487145   -0.317913
      9          1           0       -0.364709    4.471730    0.113388
     10          1           0       -0.062783    3.441231   -1.286471
     11          1           0       -1.641919    3.420890   -0.501193
     12          6           0       -0.938243    2.236092    2.453624
     13          1           0       -0.837650    3.235558    2.886321
     14          1           0       -2.002653    2.042881    2.306146
     15          1           0       -0.569063    1.519350    3.190594
     16          6           0        1.849336    2.426327    1.212912
     17          1           0        1.973556    3.375979    1.741890
     18          1           0        2.270636    1.634669    1.835510
     19          1           0        2.440505    2.475050    0.296399
     20          6           0       -1.702654   -1.637888    2.530710
     21          1           0       -2.575269   -1.910350    1.932796
     22          1           0       -1.627643   -2.358483    3.350256
     23          1           0       -1.892900   -0.656222    2.969937
     24          6           0        0.084713   -3.365084    0.747323
     25          1           0        1.029839   -3.438279    0.206704
     26          1           0        0.084457   -4.128726    1.530632
     27          1           0       -0.725839   -3.599727    0.053577
     28          6           0        1.333721   -1.308682    2.651075
     29          1           0        2.271270   -1.283731    2.093364
     30          1           0        1.219312   -0.353658    3.169121
     31          1           0        1.413314   -2.090306    3.412247
     32          6           0       -3.023186   -1.806677   -1.429786
     33          1           0       -3.073037   -2.395225   -0.510870
     34          1           0       -4.020073   -1.810943   -1.880079
     35          1           0       -2.346220   -2.321707   -2.114481
     36          6           0       -3.699922    0.744687    0.104341
     37          1           0       -4.711699    0.680505   -0.306221
     38          1           0       -3.702855    0.243189    1.074362
     39          1           0       -3.480225    1.800720    0.275677
     40          6           0       -2.492819    0.935307   -2.697577
     41          1           0       -3.497647    0.929699   -3.129787
     42          1           0       -2.205759    1.976976   -2.537750
     43          1           0       -1.812292    0.515206   -3.441654
     44          6           0        0.687207   -1.387384   -2.504916
     45          1           0        1.439578   -1.471517   -3.294180
     46          1           0        0.671658   -2.330020   -1.957817
     47          1           0       -0.283976   -1.262081   -2.984986
     48          6           0        3.581469    0.343330   -1.612529
     49          6           0        4.769832    0.419351   -0.655763
     50          1           0        3.305744    1.342895   -1.959347
     51          1           0        3.876459   -0.220409   -2.513255
     52          1           0        5.633688    0.868478   -1.148912
     53          1           0        4.525531    1.019792    0.222261
     54          1           0        5.054539   -0.575879   -0.313123
     55          1           0        0.948378    0.721944   -2.149416
 ---------------------------------------------------------------------

 SCF Done:  E(UHF) =  -1807.23957707     A.U. after    2 cycles

 The electronic state is 2-A.
 Alpha  occ. eigenvalues --  -69.50242 -69.50156 -69.49796 -69.48067 -26.45518
 Alpha  occ. eigenvalues --  -11.31142 -11.24070 -11.23124 -11.23029 -11.22613
 Alpha  occ. eigenvalues --  -11.20846 -11.20782 -11.20717 -11.20691 -11.20646
 Alpha  occ. eigenvalues --  -11.20553 -11.20336 -11.19922 -11.19893  -6.17345
 Alpha  occ. eigenvalues --   -6.17263  -6.16887  -6.15579  -3.92662  -3.92659
 Alpha  occ. eigenvalues --   -3.92656  -3.92587  -3.92581  -3.92569  -3.92209
 Alpha  occ. eigenvalues --   -3.92200  -3.92197  -3.90862  -3.90805  -3.90800
 Alpha  occ. eigenvalues --   -1.58352  -1.09541  -1.03486  -0.98243  -0.97423
 Alpha  occ. eigenvalues --   -0.96972  -0.93429  -0.92843  -0.92694  -0.92410
 Alpha  occ. eigenvalues --   -0.92194  -0.91839  -0.91652  -0.85683  -0.79028
 Alpha  occ. eigenvalues --   -0.72962  -0.69493  -0.68698  -0.64899  -0.64272
 Alpha  occ. eigenvalues --   -0.63847  -0.61274  -0.60441  -0.58989  -0.58058
 Alpha  occ. eigenvalues --   -0.57903  -0.57834  -0.56984  -0.56849  -0.56500
 Alpha  occ. eigenvalues --   -0.56118  -0.55942  -0.55639  -0.55385  -0.54670
 Alpha  occ. eigenvalues --   -0.54535  -0.54427  -0.54174  -0.53925  -0.53866
 Alpha  occ. eigenvalues --   -0.53597  -0.53410  -0.53268  -0.52944  -0.52727
 Alpha  occ. eigenvalues --   -0.51240  -0.50323  -0.49984  -0.44647  -0.44212
 Alpha  occ. eigenvalues --   -0.43900  -0.43608  -0.43195  -0.43044  -0.41164
 Alpha  occ. eigenvalues --   -0.35079  -0.34721  -0.32602
 Alpha virt. eigenvalues --    0.02283   0.02400   0.02550   0.03360   0.04144
 Alpha virt. eigenvalues --    0.04324   0.04481   0.04516   0.04791   0.06205
 Alpha virt. eigenvalues --    0.06466   0.06664   0.06719   0.06903   0.07103

  Beta  occ. eigenvalues --  -69.50235 -69.50158 -69.49798 -69.48031 -26.45198
  Beta  occ. eigenvalues --  -11.28439 -11.24319 -11.23259 -11.22916 -11.22539
  Beta  occ. eigenvalues --  -11.20846 -11.20783 -11.20712 -11.20690 -11.20647
  Beta  occ. eigenvalues --  -11.20545 -11.20335 -11.19922 -11.19895  -6.17335
  Beta  occ. eigenvalues --   -6.17265  -6.16890  -6.15520  -3.92658  -3.92652
  Beta  occ. eigenvalues --   -3.92634  -3.92588  -3.92582  -3.92576  -3.92211
  Beta  occ. eigenvalues --   -3.92205  -3.92199  -3.90786  -3.90770  -3.90739
  Beta  occ. eigenvalues --   -1.57210  -1.07308  -1.03215  -0.98212  -0.97402
  Beta  occ. eigenvalues --   -0.96971  -0.92894  -0.92697  -0.92409  -0.92223
  Beta  occ. eigenvalues --   -0.91864  -0.91656  -0.90890  -0.85329  -0.77290
  Beta  occ. eigenvalues --   -0.72433  -0.68720  -0.64379  -0.64170  -0.63651
  Beta  occ. eigenvalues --   -0.63327  -0.60524  -0.60093  -0.58903  -0.57958
  Beta  occ. eigenvalues --   -0.57879  -0.57658  -0.56933  -0.56537  -0.56446
  Beta  occ. eigenvalues --   -0.56024  -0.55894  -0.55558  -0.55037  -0.54605
  Beta  occ. eigenvalues --   -0.54489  -0.54222  -0.54069  -0.53858  -0.53604
  Beta  occ. eigenvalues --   -0.53500  -0.53401  -0.53254  -0.52879  -0.51971
  Beta  occ. eigenvalues --   -0.50912  -0.49977  -0.49218  -0.44534  -0.44201
  Beta  occ. eigenvalues --   -0.43895  -0.43593  -0.43172  -0.43042  -0.39568
  Beta  occ. eigenvalues --   -0.34844  -0.34680
  Beta virt. eigenvalues --    0.02285   0.02395   0.02537   0.03353   0.04110
  Beta virt. eigenvalues --    0.04321   0.04483   0.04515   0.04792   0.06203
  Beta virt. eigenvalues --    0.06450   0.06664   0.06704   0.06890   0.07104

 Mulliken charges and spin densities:
               1          2
     1  C   -0.524233  -0.135838
     2  C    1.229775   1.238906
     3  F   -1.105826   0.027363
     4  Si   3.220446  -0.032432
     5  Si   1.130538   0.010802
     6  Si   1.502672   0.014800
     7  Si   1.138638   0.031794
     8  C   -0.330181  -0.000861
     9  H   -0.197512  -0.000063
    10  H   -0.067015  -0.000517
    11  H   -0.115860   0.000248
    12  C   -0.235203  -0.000511
    13  H   -0.153246  -0.000003
    14  H   -0.116420  -0.000292
    15  H   -0.101721  -0.000316
    16  C   -0.243284   0.004300
    17  H   -0.175112   0.001862
    18  H   -0.142221   0.000627
    19  H   -0.108791  -0.003893
    20  C   -0.286265  -0.000137
    21  H   -0.135789  -0.000224
    22  H   -0.199370   0.000388
    23  H   -0.077751   0.000514
    24  C   -0.356969  -0.002548
    25  H   -0.034014  -0.001684
    26  H   -0.212047   0.000061
    27  H   -0.098690  -0.000284
    28  C   -0.239010   0.006137
    29  H   -0.104844  -0.002184
    30  H   -0.157360   0.003174
    31  H   -0.162416   0.001360
    32  C   -0.298483  -0.001620
    33  H   -0.122401  -0.000081
    34  H   -0.180342   0.000121
    35  H   -0.098986   0.000169
    36  C   -0.273489   0.001888
    37  H   -0.223978   0.000824
    38  H   -0.091750  -0.000379
    39  H   -0.115207  -0.000561
    40  C   -0.313080  -0.003061
    41  H   -0.172964  -0.000166
    42  H   -0.120980   0.000254
    43  H   -0.110387   0.000149
    44  C   -0.322757   0.044712
    45  H    0.095597  -0.008158
    46  H    0.123713  -0.007246
    47  H    0.005790   0.000535
    48  C   -0.663669  -0.249337
    49  C   -0.286011   0.037372
    50  H    0.165787  -0.003835
    51  H    0.199086   0.043564
    52  H    0.102383  -0.002482
    53  H    0.144562   0.010008
    54  H    0.194143  -0.003208
    55  H   -0.177494  -0.020012
 Sum of Mulliken charges =  -0.00000   1.00000

 Dipole moment (field-independent basis, Debye):
    X=             -0.0231    Y=              0.9936    Z=             -1.0254  Tot=              1.4280
                          Isotropic Fermi Contact Couplings
        Atom                 a.u.       MegaHertz       Gauss      10(-4) cm-1
     1  C(13)             -0.03591     -40.36822     -14.40439     -13.46539
     2  C(13)              0.31240     351.19547     125.31528     117.14620
     3  F(19)              0.04733     199.15669      71.06406      66.43152
     4  Si(29)             0.05262     -46.76662     -16.68749     -15.59967
     5  Si(29)            -0.00240       2.13618       0.76224       0.71255
     6  Si(29)            -0.00182       1.61590       0.57659       0.53901
     7  Si(29)             0.00753      -6.69178      -2.38779      -2.23214
     8  C(13)              0.00006       0.06629       0.02365       0.02211

 1\1\GINC-SE284\SP\UHF\Aug-CC-pVDZ\C14H36F1Si4(2)\OHZDE\09-Apr-2025\0\\
 #t hf aug-cc-pvdz iop(5/13=1,5/36=2,99/5=2) pseudo=read geom=check gue
 ss=(read,tcheck) scf=(maxcycle=1)\\title\\0,2\C,0,0.997667,-0.203641,-
 1.566773\C,0,2.370922,-0.276744,-1.014786\F,0,2.639817,-1.477058,-0.40
 1432\Si,0,-0.303791,0.011911,-0.147047\Si,0,0.028332,2.120006,0.839169
 \Si,0,-0.118639,-1.653094,1.503288\Si,0,-2.46215,-0.039737,-1.082438\C
 ,0,-0.56723,3.487145,-0.317913\H,0,-0.364709,4.47173,0.113388\H,0,-0.0
 62783,3.441231,-1.286471\H,0,-1.641919,3.42089,-0.501193\C,0,-0.938243

 Normal termination of Gaussian 16 at Wed Apr  9 04:05:25 2025.
