 Gaussian 16, Revision C.01,

 ----------------------------------------------------------------------
 #t hf aug-cc-pvdz symm=none int=(grid=ultrafine) guess=(read,tcheck) s
 table=(opt,rrhf)
 ----------------------------------------------------------------------
 -----
 title
 -----
 Symbolic Z-matrix:
 Charge =  0 Multiplicity = 1

 SCF Done:  E(RHF) =  -1155.61176108     A.U. after   15 cycles
 Normal termination of Gaussian 16 at Wed Apr  9 02:59:25 2025.
 Gaussian 16:  ES64L-G16RevC.01  3-Jul-2019

 ----------------------------------------------------------------------
 #t hf aug-cc-pvdz iop(5/13=1,5/36=2,99/5=2) pseudo=read geom=check gue
 ss=(read,tcheck) scf=(maxcycle=1)
 ----------------------------------------------------------------------
 -----
 title
 -----
 Structure from the checkpoint file:  "BH10_401_reverse_mol2.chk"
 Charge =  0 Multiplicity = 1

                         Standard orientation:
 ---------------------------------------------------------------------
 Center     Atomic      Atomic             Coordinates (Angstroms)
 Number     Number       Type             X           Y           Z
 ---------------------------------------------------------------------
      1          6           0       -0.288069   -2.561065    0.162216
      2          1           0       -0.459806   -3.176339   -0.744858
      3          6           0        0.985207   -1.791261   -0.001450
      4          6           0       -0.284057    0.310431   -0.229357
      5          1           0       -0.476904    0.879251    0.685973
      6          1           0       -0.194689    1.036861   -1.038633
      7          6           0       -1.481342   -0.600092   -0.499148
      8          1           0       -1.382892   -0.991827   -1.531078
      9          7           0       -1.425849   -1.710278    0.443635
     10          6           0        2.298408    0.263500   -0.140547
     11          6           0        2.270083   -2.569684    0.040912
     12          6           0        3.400277   -0.432402   -0.457251
     13          6           0        3.350625   -1.899124   -0.801327
     14          6           0        1.002524   -0.461104   -0.122892
     15          6           0        4.706944   -2.577430   -0.647279
     16          1           0        4.656392   -3.630653   -0.933197
     17          1           0        5.462182   -2.096211   -1.273302
     18          1           0        5.050090   -2.526704    0.389781
     19          6           0       -2.662995   -2.461191    0.519032
     20          1           0       -2.971917   -2.832473   -0.475778
     21          1           0       -2.495976   -3.335571    1.152015
     22          6           0       -2.791014    0.161608   -0.427355
     23          6           0       -3.861459   -0.291183    0.342909
     24          6           0       -3.748912   -1.582570    1.108621
     25          1           0       -3.503963   -1.374077    2.154545
     26          1           0       -4.708929   -2.105052    1.096468
     27          1           0       -0.170016   -3.267896    0.991731
     28          6           0       -5.040952    0.450613    0.378642
     29          1           0       -5.869551    0.089746    0.979030
     30          6           0       -2.939987    1.335339   -1.166786
     31          1           0       -2.124273    1.683501   -1.789332
     32          6           0       -5.172944    1.624363   -0.341883
     33          1           0       -6.097923    2.186935   -0.302533
     34          6           0       -4.114926    2.065650   -1.126690
     35          1           0       -4.206838    2.974964   -1.708327
     36         14           0        2.468291    2.068890    0.382352
     37          6           0        1.877828    2.253319    2.156763
     38          1           0        2.461208    1.616223    2.825837
     39          1           0        1.985469    3.286453    2.498145
     40          1           0        0.827890    1.975401    2.269256
     41          6           0        4.278177    2.563843    0.290473
     42          1           0        4.670322    2.493624   -0.726878
     43          1           0        4.389666    3.602244    0.613793
     44          1           0        4.905723    1.948663    0.938907
     45          6           0        1.492639    3.240199   -0.722427
     46          1           0        1.679612    3.038572   -1.780116
     47          1           0        0.417153    3.175945   -0.550127
     48          1           0        1.794563    4.272521   -0.524597
     49          1           0        2.104822   -3.594455   -0.306084
     50          1           0        2.611642   -2.645973    1.084500
     51          1           0        3.042251   -1.975382   -1.855273
     52          1           0        4.373218    0.048638   -0.489292
 ---------------------------------------------------------------------

 SCF Done:  E(RHF) =  -1156.55736977     A.U. after    2 cycles

 The electronic state is 1-A.
 Alpha  occ. eigenvalues --  -69.50372 -15.48613 -11.26327 -11.25727 -11.25428
 Alpha  occ. eigenvalues --  -11.23827 -11.23765 -11.23481 -11.23409 -11.23407
 Alpha  occ. eigenvalues --  -11.23357 -11.23262 -11.23179 -11.23047 -11.22909
 Alpha  occ. eigenvalues --  -11.22630 -11.22604 -11.22460 -11.22445 -11.21126
 Alpha  occ. eigenvalues --  -11.20266 -11.20231 -11.19979  -6.17400  -3.92750
 Alpha  occ. eigenvalues --   -3.92742  -3.92730  -1.25139  -1.15678  -1.14295
 Alpha  occ. eigenvalues --   -1.07942  -1.05857  -1.04315  -1.02086  -0.99549
 Alpha  occ. eigenvalues --   -0.97744  -0.96677  -0.93359  -0.92253  -0.92093
 Alpha  occ. eigenvalues --   -0.88570  -0.87020  -0.85088  -0.82271  -0.81853
 Alpha  occ. eigenvalues --   -0.77234  -0.75234  -0.70906  -0.69279  -0.67852
 Alpha  occ. eigenvalues --   -0.66650  -0.65533  -0.65263  -0.63694  -0.62937
 Alpha  occ. eigenvalues --   -0.61207  -0.60817  -0.60106  -0.59088  -0.58698
 Alpha  occ. eigenvalues --   -0.57451  -0.56413  -0.56336  -0.55919  -0.55548
 Alpha  occ. eigenvalues --   -0.54728  -0.54610  -0.54025  -0.53809  -0.53537
 Alpha  occ. eigenvalues --   -0.53032  -0.52906  -0.52353  -0.51096  -0.50458
 Alpha  occ. eigenvalues --   -0.49391  -0.48787  -0.48341  -0.46980  -0.44926
 Alpha  occ. eigenvalues --   -0.44052  -0.43319  -0.41779  -0.39680  -0.39027
 Alpha  occ. eigenvalues --   -0.33612  -0.32887  -0.30088
 Alpha virt. eigenvalues --    0.02686   0.02874   0.02989   0.03351   0.03575
 Alpha virt. eigenvalues --    0.03670   0.04221   0.04302   0.04489   0.05313
 Alpha virt. eigenvalues --    0.05541   0.06391   0.06546   0.06875   0.07311

 Mulliken charges:
               1
     1  C   -2.109554
     2  H    0.289652
     3  C    1.358761
     4  C   -1.199787
     5  H    0.216477
     6  H    0.210976
     7  C   -2.816492
     8  H    0.125515
     9  N    2.059214
    10  C   -1.403479
    11  C   -0.497643
    12  C    0.260828
    13  C   -0.652567
    14  C    1.400228
    15  C   -0.261224
    16  H    0.156061
    17  H    0.158783
    18  H    0.239161
    19  C   -0.301013
    20  H    0.073210
    21  H   -0.018950
    22  C    1.861597
    23  C    0.773065
    24  C   -0.475228
    25  H    0.244053
    26  H    0.132149
    27  H    0.030771
    28  C    0.449472
    29  H   -0.336245
    30  C    0.350679
    31  H   -0.347737
    32  C   -0.052806
    33  H   -0.247792
    34  C   -0.459338
    35  H   -0.309870
    36  Si   2.740077
    37  C   -0.316051
    38  H   -0.081420
    39  H   -0.063688
    40  H   -0.018344
    41  C   -0.576553
    42  H   -0.001361
    43  H   -0.205130
    44  H    0.010234
    45  C   -0.342934
    46  H   -0.045760
    47  H   -0.041868
    48  H   -0.042618
    49  H    0.085826
    50  H    0.232285
    51  H    0.197363
    52  H   -0.430983
 Sum of Mulliken charges =  -0.00000

 Dipole moment (field-independent basis, Debye):
    X=              0.1955    Y=             -1.0801    Z=             -0.4966  Tot=              1.2047

 Test job not archived.
 1\1\GINC-SE458\SP\RHF\Aug-CC-pVDZ\C21H29N1Si1\OHZDE\09-Apr-2025\0\\#t
 hf aug-cc-pvdz iop(5/13=1,5/36=2,99/5=2) pseudo=read geom=check guess=
 (read,tcheck) scf=(maxcycle=1)\\title\\0,1\C,0,-0.288069,-2.561065,0.1
 62216\H,0,-0.459806,-3.176339,-0.744858\C,0,0.985207,-1.791261,-0.0014
 5\C,0,-0.284057,0.310431,-0.229357\H,0,-0.476904,0.879251,0.685973\H,0
 ,-0.194689,1.036861,-1.038633\C,0,-1.481342,-0.600092,-0.499148\H,0,-1
 .382892,-0.991827,-1.531078\N,0,-1.425849,-1.710278,0.443635\C,0,2.298
 408,0.2635,-0.140547\C,0,2.270083,-2.569684,0.040912\C,0,3.400277,-0.4

 Normal termination of Gaussian 16 at Wed Apr  9 03:02:17 2025.
