 Gaussian 16, Revision C.01,

 ----------------------------------------------------------------------
 #t hf aug-cc-pvdz symm=none int=(grid=ultrafine) guess=(read,tcheck) s
 table=opt
 ----------------------------------------------------------------------
 -----
 title
 -----
 Symbolic Z-matrix:
 Charge =  0 Multiplicity = 2

 SCF Done:  E(UHF) =  -745.054192789     A.U. after   18 cycles
 Normal termination of Gaussian 16 at Wed Apr  9 00:57:17 2025.
 Gaussian 16:  ES64L-G16RevC.01  3-Jul-2019

 ----------------------------------------------------------------------
 #t hf aug-cc-pvdz iop(5/13=1,5/36=2,99/5=2) pseudo=read geom=check gue
 ss=(read,tcheck) scf=(maxcycle=1)
 ----------------------------------------------------------------------
 -----
 title
 -----
 Structure from the checkpoint file:  "BH10-RE_124_mol1.chk"
 Charge =  0 Multiplicity = 2

                         Standard orientation:
 ---------------------------------------------------------------------
 Center     Atomic      Atomic             Coordinates (Angstroms)
 Number     Number       Type             X           Y           Z
 ---------------------------------------------------------------------
      1          6           0        2.188118   -0.182736    0.066647
      2          6           0        1.341612   -0.111499   -1.167785
      3          6           0       -0.045625    0.393162   -0.795901
      4          8           0       -0.298728    1.552653   -0.599821
      5          6           0       -2.661401    0.068691    0.017407
      6          6           0       -2.575982    0.393302    1.499688
      7          6           0        2.715243    1.089271    0.633087
      8          6           0        2.118691   -1.396269    0.928144
      9          1           0        1.753704    0.606846   -1.881228
     10          1           0       -3.542388   -0.531179   -0.213038
     11          1           0       -2.698511    0.977067   -0.582770
     12          1           0       -2.525146   -0.515229    2.102001
     13          1           0       -3.457448    0.960082    1.809866
     14          1           0       -1.695290    1.000462    1.709611
     15          1           0        3.088916    1.754921   -0.149204
     16          1           0        3.520766    0.902228    1.346823
     17          1           0        1.930967    1.650048    1.163594
     18          1           0        1.962504   -2.304008    0.340724
     19          1           0        1.288199   -1.340777    1.648463
     20          1           0        3.034580   -1.515444    1.512966
     21          1           0        1.263865   -1.090243   -1.646783
     22         16           0       -1.251177   -0.906220   -0.590637
 ---------------------------------------------------------------------

 SCF Done:  E(UHF) =  -745.480774778     A.U. after    2 cycles

 The electronic state is 2-A.
 Alpha  occ. eigenvalues --  -93.95759 -20.54262 -11.36723 -11.27036 -11.25132
 Alpha  occ. eigenvalues --  -11.24869 -11.23246 -11.22920 -11.22490  -8.24039
 Alpha  occ. eigenvalues --   -6.21852  -6.21670  -6.21491  -1.48737  -1.12429
 Alpha  occ. eigenvalues --   -1.09875  -1.01342  -0.96241  -0.94602  -0.84947
 Alpha  occ. eigenvalues --   -0.78191  -0.73224  -0.67613  -0.65973  -0.63753
 Alpha  occ. eigenvalues --   -0.62950  -0.60384  -0.58956  -0.58255  -0.55530
 Alpha  occ. eigenvalues --   -0.54869  -0.54476  -0.53061  -0.51322  -0.50581
 Alpha  occ. eigenvalues --   -0.49594  -0.46574  -0.41326  -0.37410  -0.32407
 Alpha virt. eigenvalues --    0.03573   0.03685   0.03859   0.04233   0.05200
 Alpha virt. eigenvalues --    0.05542   0.06151   0.06346   0.06919   0.08306
 Alpha virt. eigenvalues --    0.09335   0.09481   0.09947   0.10289   0.12043

  Beta  occ. eigenvalues --  -93.95752 -20.54220 -11.36494 -11.27036 -11.25451
  Beta  occ. eigenvalues --  -11.23246 -11.23242 -11.22806 -11.22340  -8.24030
  Beta  occ. eigenvalues --   -6.21832  -6.21658  -6.21489  -1.48603  -1.10860
  Beta  occ. eigenvalues --   -1.08023  -1.00632  -0.96182  -0.94556  -0.84705
  Beta  occ. eigenvalues --   -0.75131  -0.71516  -0.67336  -0.64627  -0.62521
  Beta  occ. eigenvalues --   -0.62426  -0.60054  -0.57944  -0.56543  -0.55217
  Beta  occ. eigenvalues --   -0.54504  -0.53736  -0.52893  -0.51161  -0.49985
  Beta  occ. eigenvalues --   -0.49075  -0.46367  -0.40341  -0.37324
  Beta virt. eigenvalues --    0.03590   0.03672   0.03838   0.04248   0.05186
  Beta virt. eigenvalues --    0.05546   0.06157   0.06347   0.06914   0.08284
  Beta virt. eigenvalues --    0.08786   0.09412   0.09852   0.10250   0.10709

 Mulliken charges and spin densities:
               1          2
     1  C   -0.091950   1.610969
     2  C   -0.329959  -0.275149
     3  C    1.124466   0.030450
     4  O   -1.371451   0.013227
     5  C   -0.649370  -0.002933
     6  C   -0.382093  -0.000592
     7  C   -0.550335  -0.265633
     8  C   -0.534658  -0.266970
     9  H    0.159018   0.011978
    10  H    0.127029   0.000127
    11  H    0.284469  -0.000046
    12  H    0.182921  -0.000381
    13  H    0.112863   0.000274
    14  H    0.181243   0.001112
    15  H    0.181337   0.010588
    16  H    0.139706   0.005427
    17  H    0.215267   0.047625
    18  H    0.165218   0.004057
    19  H    0.280505   0.048881
    20  H    0.137762   0.010170
    21  H    0.164388   0.005040
    22  S    0.453624   0.011779
 Sum of Mulliken charges =  -0.00000   1.00000

 Dipole moment (field-independent basis, Debye):
    X=             -0.0012    Y=             -1.0416    Z=              0.4723  Tot=              1.1437
                          Isotropic Fermi Contact Couplings
        Atom                 a.u.       MegaHertz       Gauss      10(-4) cm-1
     1  C(13)              0.25388     285.40632     101.84007      95.20130
     2  C(13)             -0.05751     -64.65517     -23.07057     -21.56664
     3  C(13)              0.06579      73.95625      26.38943      24.66915
     4  O(17)              0.00281      -1.70496      -0.60837      -0.56871
     5  C(13)              0.00003       0.03011       0.01075       0.01004
     6  C(13)              0.00018       0.20124       0.07181       0.06712
     7  C(13)             -0.05714     -64.23183     -22.91951     -21.42543
     8  C(13)             -0.05811     -65.33213     -23.31213     -21.79245

 Normal termination of Gaussian 16 at Wed Apr  9 00:57:31 2025.
