 Gaussian 16, Revision C.01,

 ----------------------------------------------------------------------
 #t hf aug-cc-pvdz symm=none int=(grid=ultrafine) guess=(read,tcheck) s
 table=opt
 ----------------------------------------------------------------------
 -----
 title
 -----
 Symbolic Z-matrix:
 Charge =  0 Multiplicity = 2

 SCF Done:  E(UHF) =  -1706.37272290     A.U. after   18 cycles
 Normal termination of Gaussian 16 at Wed Apr  9 03:10:22 2025.
 Gaussian 16:  ES64L-G16RevC.01  3-Jul-2019

 ----------------------------------------------------------------------
 #t hf aug-cc-pvdz iop(5/13=1,5/36=2,99/5=2) pseudo=read geom=check gue
 ss=(read,tcheck) scf=(maxcycle=1)
 ----------------------------------------------------------------------
 -----
 title
 -----
 Structure from the checkpoint file:  "BH10_303_reverse_mol2.chk"
 Charge =  0 Multiplicity = 2

                         Standard orientation:
 ---------------------------------------------------------------------
 Center     Atomic      Atomic             Coordinates (Angstroms)
 Number     Number       Type             X           Y           Z
 ---------------------------------------------------------------------
      1         14           0        1.009991   -0.256438    1.884303
      2         14           0       -1.200987    2.056673   -0.200994
      3         14           0       -1.692643   -1.712535   -0.442613
      4          6           0       -0.216905    0.178798    3.250789
      5          1           0        0.237274    0.016045    4.232524
      6          1           0       -0.516298    1.228061    3.197695
      7          1           0       -1.122594   -0.428213    3.198740
      8          6           0        1.574619   -2.036687    2.151247
      9          1           0        2.089746   -2.139097    3.110697
     10          1           0        0.722493   -2.720702    2.158999
     11          1           0        2.259273   -2.371292    1.369010
     12          6           0        2.485723    0.901675    2.062191
     13          1           0        2.919441    0.805869    3.062063
     14          1           0        3.271250    0.688465    1.336423
     15          1           0        2.185943    1.942595    1.926083
     16          6           0       -1.595712    2.533109   -1.982613
     17          1           0       -2.227738    1.783995   -2.465007
     18          1           0       -2.125127    3.489559   -2.018874
     19          1           0       -0.687298    2.633870   -2.581059
     20          6           0       -2.816323    1.957195    0.767858
     21          1           0       -2.647119    1.646584    1.801263
     22          1           0       -3.305969    2.934988    0.791263
     23          1           0       -3.515683    1.249057    0.318252
     24          6           0       -0.147728    3.419490    0.567220
     25          1           0        0.031574    3.233303    1.628591
     26          1           0        0.824692    3.501554    0.077329
     27          1           0       -0.650613    4.387155    0.481735
     28          6           0       -2.691215   -1.939895    1.140872
     29          1           0       -3.148189   -1.006372    1.474738
     30          1           0       -3.493689   -2.665817    0.980852
     31          1           0       -2.066230   -2.315368    1.954461
     32          6           0       -2.874739   -1.261860   -1.842999
     33          1           0       -3.596087   -2.066690   -2.011628
     34          1           0       -3.438290   -0.353284   -1.620318
     35          1           0       -2.338226   -1.097425   -2.780849
     36          6           0       -0.902252   -3.371030   -0.869946
     37          1           0       -1.669281   -4.149583   -0.919398
     38          1           0       -0.399803   -3.340003   -1.838965
     39          1           0       -0.166735   -3.676183   -0.122221
     40          6           0        1.090971   -0.040486   -1.720807
     41          6           0        2.047386    1.097905   -1.718875
     42          6           0        2.004337   -1.284985   -1.840918
     43          6           0        3.467204    0.643088   -1.633837
     44          1           0        1.756204    2.128814   -1.870720
     45          6           0        3.352274   -0.842969   -1.258583
     46          1           0        1.610282   -2.170830   -1.342186
     47          1           0        2.127338   -1.539805   -2.898239
     48          1           0        3.971485    0.754973   -2.605921
     49          1           0        4.065429    1.217483   -0.918619
     50          1           0        4.185066   -1.442438   -1.629611
     51          1           0        3.340134   -0.948504   -0.171804
     52         14           0       -0.084011   -0.012719   -0.180978
     53          1           0        0.398614    0.019421   -2.570919
 ---------------------------------------------------------------------

 SCF Done:  E(UHF) =  -1707.11105939     A.U. after    2 cycles

 The electronic state is 2-A.
 Alpha  occ. eigenvalues --  -69.50099 -69.50040 -69.49955 -69.47839 -11.22650
 Alpha  occ. eigenvalues --  -11.22574 -11.22431 -11.22393 -11.21769 -11.20664
 Alpha  occ. eigenvalues --  -11.20636 -11.20578 -11.20555 -11.20525 -11.20520
 Alpha  occ. eigenvalues --  -11.20506 -11.20490 -11.20376  -6.17194  -6.17141
 Alpha  occ. eigenvalues --   -6.17059  -6.15343  -3.92513  -3.92510  -3.92500
 Alpha  occ. eigenvalues --   -3.92459  -3.92459  -3.92454  -3.92384  -3.92379
 Alpha  occ. eigenvalues --   -3.92364  -3.90647  -3.90562  -3.90551  -1.13096
 Alpha  occ. eigenvalues --   -0.98452  -0.97415  -0.97377  -0.96283  -0.96222
 Alpha  occ. eigenvalues --   -0.92835  -0.92553  -0.92507  -0.92079  -0.92017
 Alpha  occ. eigenvalues --   -0.91876  -0.78881  -0.77035  -0.71714  -0.67230
 Alpha  occ. eigenvalues --   -0.65251  -0.64123  -0.63973  -0.59806  -0.58022
 Alpha  occ. eigenvalues --   -0.57901  -0.57510  -0.57013  -0.56882  -0.56724
 Alpha  occ. eigenvalues --   -0.56102  -0.55997  -0.55789  -0.55320  -0.54805
 Alpha  occ. eigenvalues --   -0.54449  -0.54323  -0.54013  -0.53946  -0.53732
 Alpha  occ. eigenvalues --   -0.53343  -0.53241  -0.53108  -0.52350  -0.50542
 Alpha  occ. eigenvalues --   -0.48930  -0.48304  -0.47934  -0.44653  -0.44064
 Alpha  occ. eigenvalues --   -0.44003  -0.43446  -0.43427  -0.43167  -0.41575
 Alpha  occ. eigenvalues --   -0.34843  -0.34623  -0.29858
 Alpha virt. eigenvalues --    0.02353   0.02412   0.02513   0.03320   0.04205
 Alpha virt. eigenvalues --    0.04390   0.04453   0.04482   0.04644   0.06490
 Alpha virt. eigenvalues --    0.06588   0.06729   0.06745   0.07010   0.07080

  Beta  occ. eigenvalues --  -69.50102 -69.50030 -69.49958 -69.47768 -11.22768
  Beta  occ. eigenvalues --  -11.22544 -11.22368 -11.22086 -11.20664 -11.20636
  Beta  occ. eigenvalues --  -11.20569 -11.20555 -11.20525 -11.20522 -11.20503
  Beta  occ. eigenvalues --  -11.20490 -11.20376 -11.20207  -6.17197  -6.17126
  Beta  occ. eigenvalues --   -6.17063  -6.15228  -3.92514  -3.92511  -3.92508
  Beta  occ. eigenvalues --   -3.92455  -3.92447  -3.92419  -3.92386  -3.92381
  Beta  occ. eigenvalues --   -3.92374  -3.90513  -3.90502  -3.90413  -1.11512
  Beta  occ. eigenvalues --   -0.98427  -0.97386  -0.97259  -0.96191  -0.93340
  Beta  occ. eigenvalues --   -0.92827  -0.92540  -0.92449  -0.92039  -0.92008
  Beta  occ. eigenvalues --   -0.91872  -0.78647  -0.74027  -0.70545  -0.66458
  Beta  occ. eigenvalues --   -0.64522  -0.64044  -0.63857  -0.59692  -0.57987
  Beta  occ. eigenvalues --   -0.57883  -0.57124  -0.56863  -0.56808  -0.56555
  Beta  occ. eigenvalues --   -0.56023  -0.55955  -0.55703  -0.54796  -0.54565
  Beta  occ. eigenvalues --   -0.54410  -0.54054  -0.53940  -0.53769  -0.53442
  Beta  occ. eigenvalues --   -0.53274  -0.53224  -0.52933  -0.51371  -0.49737
  Beta  occ. eigenvalues --   -0.48640  -0.48173  -0.47333  -0.44434  -0.44048
  Beta  occ. eigenvalues --   -0.43996  -0.43436  -0.43394  -0.43165  -0.39231
  Beta  occ. eigenvalues --   -0.34617  -0.34528
  Beta virt. eigenvalues --    0.02359   0.02415   0.02514   0.03324   0.04208
  Beta virt. eigenvalues --    0.04390   0.04457   0.04487   0.04641   0.06482
  Beta virt. eigenvalues --    0.06592   0.06732   0.06742   0.07016   0.07059

 Mulliken charges and spin densities:
               1          2
     1  Si   1.064466  -0.023407
     2  Si   1.239913   0.004098
     3  Si   1.432581   0.050878
     4  C   -0.189941   0.001318
     5  H   -0.215219   0.000244
     6  H   -0.104012   0.000382
     7  H   -0.126737  -0.001005
     8  C   -0.279055   0.001719
     9  H   -0.187622   0.000055
    10  H   -0.106009   0.000522
    11  H   -0.102391  -0.000026
    12  C   -0.153309   0.003655
    13  H   -0.169352  -0.000616
    14  H   -0.173932  -0.000565
    15  H   -0.155484   0.005928
    16  C   -0.352998   0.000144
    17  H   -0.110425   0.000766
    18  H   -0.165152  -0.000541
    19  H   -0.097419   0.003804
    20  C   -0.332991  -0.003298
    21  H   -0.063344  -0.000219
    22  H   -0.223517  -0.000267
    23  H   -0.123288   0.000288
    24  C   -0.312843   0.005196
    25  H   -0.113530  -0.001122
    26  H   -0.090137  -0.000421
    27  H   -0.175897   0.000603
    28  C   -0.244826   0.002943
    29  H   -0.112392  -0.001133
    30  H   -0.168714   0.001771
    31  H   -0.083267  -0.001496
    32  C   -0.334788  -0.004112
    33  H   -0.190404   0.000981
    34  H   -0.133470  -0.000413
    35  H   -0.063153  -0.001201
    36  C   -0.351437  -0.004970
    37  H   -0.237268   0.000063
    38  H    0.012305  -0.000851
    39  H   -0.085878   0.000232
    40  C   -0.301197  -0.425333
    41  C    0.534493   1.737535
    42  C   -0.242735   0.012863
    43  C   -0.544304  -0.341076
    44  H   -0.341119  -0.104394
    45  C   -0.124895   0.005346
    46  H   -0.000544   0.004391
    47  H    0.063264  -0.002143
    48  H    0.128734   0.039034
    49  H    0.121091   0.017132
    50  H    0.069005   0.001142
    51  H    0.009900  -0.006125
    52  Si   3.270374  -0.013681
    53  H   -0.261132   0.035384
 Sum of Mulliken charges =  -0.00000   1.00000

 Dipole moment (field-independent basis, Debye):
    X=              0.1985    Y=             -0.1354    Z=             -0.2110  Tot=              0.3198
                          Isotropic Fermi Contact Couplings
        Atom                 a.u.       MegaHertz       Gauss      10(-4) cm-1
     1  Si(29)            -0.00327       2.90996       1.03835       0.97066
     2  Si(29)            -0.00360       3.20105       1.14221       1.06776
     3  Si(29)             0.01166     -10.36660      -3.69906      -3.45792
     4  C(13)              0.00021       0.23310       0.08317       0.07775
     5  H(1)               0.00003       0.15617       0.05572       0.05209
     6  H(1)               0.00000       0.00711       0.00254       0.00237
     7  H(1)               0.00002       0.08434       0.03009       0.02813
     8  C(13)             -0.00018      -0.20074      -0.07163      -0.06696

 Normal termination of Gaussian 16 at Wed Apr  9 03:13:10 2025.
