 Gaussian 16, Revision C.01,

 ----------------------------------------------------------------------
 #t hf aug-cc-pvdz symm=none int=(grid=ultrafine) guess=(read,tcheck) s
 table=opt
 ----------------------------------------------------------------------
 -----
 title
 -----
 Symbolic Z-matrix:
 Charge =  0 Multiplicity = 2

 SCF Done:  E(UHF) =  -639.926954993     A.U. after   22 cycles
 Normal termination of Gaussian 16 at Wed Apr  9 01:07:34 2025.
 Gaussian 16:  ES64L-G16RevC.01  3-Jul-2019

 ----------------------------------------------------------------------
 #t hf aug-cc-pvdz iop(5/13=1,5/36=2,99/5=2) pseudo=read geom=check gue
 ss=(read,tcheck) scf=(maxcycle=1)
 ----------------------------------------------------------------------
 -----
 title
 -----
 Structure from the checkpoint file:  "BH10_279_forward_mol1.chk"
 Charge =  0 Multiplicity = 2

                         Standard orientation:
 ---------------------------------------------------------------------
 Center     Atomic      Atomic             Coordinates (Angstroms)
 Number     Number       Type             X           Y           Z
 ---------------------------------------------------------------------
      1          6           0        1.886660   -1.009108    1.509835
      2          1           0        2.921868   -1.004646    1.863424
      3          1           0        1.262258   -0.606065    2.310344
      4          1           0        1.595697   -2.049343    1.348196
      5          6           0        2.752021   -0.741156   -1.447127
      6          1           0        2.462796   -1.776159   -1.640956
      7          1           0        2.622702   -0.179511   -2.374558
      8          1           0        3.815737   -0.730637   -1.192285
      9          6           0        2.178009    1.792187    0.238849
     10          1           0        2.034826    2.389220   -0.664200
     11          1           0        1.560904    2.228043    1.027441
     12          1           0        3.224910    1.885355    0.541726
     13         14           0        1.726130   -0.001097   -0.065604
     14          1           0        0.225352   -0.030501   -0.541270
     15          6           0       -3.392459    0.183883   -0.774890
     16          6           0       -2.043300   -0.009384   -0.066927
     17          1           0       -3.432296    1.162450   -1.254635
     18          1           0       -3.533618   -0.583773   -1.536557
     19          1           0       -4.204707    0.112874   -0.047918
     20          6           0       -1.984369   -1.390845    0.585263
     21          6           0       -1.832630    1.097277    0.967276
     22          1           0       -1.019970   -1.541378    1.074379
     23          1           0       -2.768309   -1.505499    1.338006
     24          1           0       -2.108993   -2.166982   -0.171509
     25          1           0       -2.627125    1.090752    1.717387
     26          1           0       -0.880246    0.961998    1.484743
     27          1           0       -1.820379    2.071666    0.476458
     28          8           0       -1.110103    0.093796   -1.114179
 ---------------------------------------------------------------------

 SCF Done:  E(UHF) =  -640.343539901     A.U. after    2 cycles

 The electronic state is 2-A.
 Alpha  occ. eigenvalues --  -69.50539 -20.57844 -11.28684 -11.22834 -11.22348
 Alpha  occ. eigenvalues --  -11.22138 -11.20936 -11.20662 -11.20585  -6.17639
 Alpha  occ. eigenvalues --   -3.93203  -3.92900  -3.92895  -1.46369  -1.06834
 Alpha  occ. eigenvalues --   -0.97765  -0.94686  -0.94237  -0.92797  -0.92594
 Alpha  occ. eigenvalues --   -0.76822  -0.70382  -0.64314  -0.63768  -0.63575
 Alpha  occ. eigenvalues --   -0.58661  -0.57839  -0.56997  -0.56545  -0.56255
 Alpha  occ. eigenvalues --   -0.54788  -0.54583  -0.53911  -0.53592  -0.52691
 Alpha  occ. eigenvalues --   -0.52406  -0.51412  -0.47493  -0.44358  -0.44243
 Alpha  occ. eigenvalues --   -0.44043  -0.37151
 Alpha virt. eigenvalues --    0.03243   0.03486   0.03497   0.03818   0.05256
 Alpha virt. eigenvalues --    0.05431   0.05533   0.06182   0.06380   0.07602
 Alpha virt. eigenvalues --    0.07829   0.08004   0.08221   0.08857   0.09551

  Beta  occ. eigenvalues --  -69.50350 -20.54084 -11.28906 -11.22623 -11.22313
  Beta  occ. eigenvalues --  -11.22112 -11.20909 -11.20641 -11.20559  -6.17354
  Beta  occ. eigenvalues --   -3.92778  -3.92773  -3.92436  -1.34665  -1.05198
  Beta  occ. eigenvalues --   -0.97416  -0.94178  -0.93958  -0.92688  -0.92492
  Beta  occ. eigenvalues --   -0.75117  -0.65331  -0.62937  -0.62883  -0.61359
  Beta  occ. eigenvalues --   -0.57592  -0.56881  -0.56485  -0.55950  -0.55359
  Beta  occ. eigenvalues --   -0.54611  -0.54416  -0.53566  -0.52366  -0.51524
  Beta  occ. eigenvalues --   -0.50507  -0.48689  -0.43985  -0.43917  -0.42273
  Beta  occ. eigenvalues --   -0.41648
  Beta virt. eigenvalues --    0.03234   0.03496   0.03503   0.03715   0.05229
  Beta virt. eigenvalues --    0.05419   0.05522   0.06183   0.06369   0.07582
  Beta virt. eigenvalues --    0.07831   0.08002   0.08216   0.08832   0.09544

 Mulliken charges and spin densities:
               1          2
     1  C   -0.546319   0.016674
     2  H   -0.124371   0.004179
     3  H   -0.061518  -0.002115
     4  H   -0.021928  -0.002049
     5  C   -0.587041   0.008124
     6  H   -0.064658  -0.002510
     7  H   -0.063825  -0.001421
     8  H   -0.054829   0.004352
     9  C   -0.529950   0.012069
    10  H   -0.053553  -0.002115
    11  H   -0.091537  -0.000915
    12  H   -0.036663   0.004189
    13  Si   2.259603   0.315736
    14  H    0.127463  -0.226570
    15  C    0.209435   0.078340
    16  C   -1.005405  -0.274274
    17  H    0.197445   0.004458
    18  H    0.189409   0.004513
    19  H    0.250145   0.006002
    20  C    0.162628   0.034500
    21  C    0.123200   0.035838
    22  H    0.062345  -0.002967
    23  H    0.245291  -0.001258
    24  H    0.225915  -0.001796
    25  H    0.208859  -0.002335
    26  H    0.114720   0.000072
    27  H    0.212899  -0.002464
    28  O   -1.347760   0.993742
 Sum of Mulliken charges =  -0.00000   1.00000

 Dipole moment (field-independent basis, Debye):
    X=             -0.2799    Y=             -0.0869    Z=              1.2217  Tot=              1.2564
                          Isotropic Fermi Contact Couplings
        Atom                 a.u.       MegaHertz       Gauss      10(-4) cm-1
     1  C(13)              0.00588       6.61433       2.36016       2.20630
     2  H(1)               0.00234      10.44102       3.72562       3.48275
     3  H(1)              -0.00011      -0.47413      -0.16918      -0.15815
     4  H(1)              -0.00008      -0.37468      -0.13369      -0.12498
     5  C(13)              0.00600       6.74492       2.40675       2.24986
     6  H(1)              -0.00005      -0.24560      -0.08764      -0.08192
     7  H(1)              -0.00005      -0.22145      -0.07902      -0.07387
     8  H(1)               0.00246      10.97877       3.91750       3.66212

 Normal termination of Gaussian 16 at Wed Apr  9 01:07:52 2025.
