 Gaussian 16, Revision C.01,

 ----------------------------------------------------------------------
 #t hf aug-cc-pvdz symm=none int=(grid=ultrafine) guess=(read,tcheck) s
 table=(opt,rrhf)
 ----------------------------------------------------------------------
 -----
 title
 -----
 Symbolic Z-matrix:
 Charge =  0 Multiplicity = 1

 SCF Done:  E(RHF) =  -215.950602841     A.U. after   12 cycles
 Normal termination of Gaussian 16 at Wed Apr  9 01:07:03 2025.
 Gaussian 16:  ES64L-G16RevC.01  3-Jul-2019

 ----------------------------------------------------------------------
 #t hf aug-cc-pvdz iop(5/13=1,5/36=2,99/5=2) pseudo=read geom=check gue
 ss=(read,tcheck) scf=(maxcycle=1)
 ----------------------------------------------------------------------
 -----
 title
 -----
 Structure from the checkpoint file:  "BH10_292_forward_mol2.chk"
 Charge =  0 Multiplicity = 1

                         Standard orientation:
 ---------------------------------------------------------------------
 Center     Atomic      Atomic             Coordinates (Angstroms)
 Number     Number       Type             X           Y           Z
 ---------------------------------------------------------------------
      1          6           0       -0.536558    0.689685    0.000037
      2          6           0        0.775457    0.565908    0.000014
      3          9           0        1.380523   -0.644086   -0.000060
      4          6           0       -1.516475   -0.439031    0.000016
      5          1           0       -2.163531   -0.389511    0.879479
      6          1           0       -2.163742   -0.389294   -0.879278
      7          1           0       -1.010763   -1.403580   -0.000159
      8          1           0       -0.915322    1.705825    0.000074
      9          1           0        1.494109    1.373967    0.000022
 ---------------------------------------------------------------------

 SCF Done:  E(RHF) =  -216.168444316     A.U. after    2 cycles

 The electronic state is 1-A.
 Alpha  occ. eigenvalues --  -26.46583 -11.32257 -11.24694 -11.23882  -1.59407
 Alpha  occ. eigenvalues --   -1.07904  -0.94880  -0.79652  -0.72940  -0.66356
 Alpha  occ. eigenvalues --   -0.66016  -0.58906  -0.57893  -0.54278  -0.53090
 Alpha  occ. eigenvalues --   -0.37330
 Alpha virt. eigenvalues --    0.03530   0.04189   0.05137   0.05484   0.07021
 Alpha virt. eigenvalues --    0.10849   0.11331   0.12265   0.13571   0.14229
 Alpha virt. eigenvalues --    0.15858   0.16487   0.16540   0.16775   0.18414

 Mulliken charges:
               1
     1  C    0.062453
     2  C    0.910078
     3  F   -0.790694
     4  C   -0.532195
     5  H    0.200710
     6  H    0.200682
     7  H    0.103035
     8  H   -0.137384
     9  H   -0.016685
 Sum of Mulliken charges =  -0.00000

 Dipole moment (field-independent basis, Debye):
    X=             -1.0182    Y=              1.1516    Z=              0.0001  Tot=              1.5372

 Test job not archived.
 1\1\GINC-SE045\SP\RHF\Aug-CC-pVDZ\C3H5F1\OHZDE\09-Apr-2025\0\\#t hf au
 g-cc-pvdz iop(5/13=1,5/36=2,99/5=2) pseudo=read geom=check guess=(read
 ,tcheck) scf=(maxcycle=1)\\title\\0,1\C,0,-0.536558,0.689685,0.000037\
 C,0,0.775457,0.565908,0.000014\F,0,1.380523,-0.644086,-0.00006\C,0,-1.
 516475,-0.439031,0.000016\H,0,-2.163531,-0.389511,0.879479\H,0,-2.1637
 42,-0.389294,-0.879278\H,0,-1.010763,-1.40358,-0.000159\H,0,-0.915322,
 1.705825,0.000074\H,0,1.494109,1.373967,0.000022\\Version=ES64L-G16Rev
 C.01\State=1-A\HF=-216.1684443\RMSD=1.287e-02\Dipole=-0.4005896,0.4530

 Normal termination of Gaussian 16 at Wed Apr  9 01:07:06 2025.
