 Gaussian 16, Revision C.01,

 ----------------------------------------------------------------------
 #t hf aug-cc-pvdz symm=none int=(grid=ultrafine) guess=(read,tcheck) s
 table=opt
 ----------------------------------------------------------------------
 -----
 title
 -----
 Symbolic Z-matrix:
 Charge =  0 Multiplicity = 2

 SCF Done:  E(UHF) =  -780.862646636     A.U. after   17 cycles
 Normal termination of Gaussian 16 at Wed Apr  9 00:59:42 2025.
 Gaussian 16:  ES64L-G16RevC.01  3-Jul-2019

 ----------------------------------------------------------------------
 #t hf aug-cc-pvdz iop(5/13=1,5/36=2,99/5=2) pseudo=read geom=check gue
 ss=(read,tcheck) scf=(maxcycle=1)
 ----------------------------------------------------------------------
 -----
 title
 -----
 Structure from the checkpoint file:  "BH10_158_reverse_mol2.chk"
 Charge =  0 Multiplicity = 2

                         Standard orientation:
 ---------------------------------------------------------------------
 Center     Atomic      Atomic             Coordinates (Angstroms)
 Number     Number       Type             X           Y           Z
 ---------------------------------------------------------------------
      1          6           0       -0.185423    1.540666   -0.169841
      2          1           0        0.355422    2.369660    0.310915
      3          6           0       -2.512563    0.440119   -0.183571
      4          1           0       -3.502096    0.552602    0.260850
      5          1           0       -0.372058    1.842073   -1.203551
      6          1           0       -2.590591    0.754040   -1.226241
      7          6           0       -1.509532    1.314481    0.562856
      8          1           0       -1.972907    2.294662    0.712171
      9          1           0       -1.319429    0.899100    1.555009
     10          6           0        0.722365    0.359802   -0.200432
     11          6           0        2.713505   -0.550583   -0.625847
     12          6           0        2.476573   -0.607460    0.880962
     13          1           0        2.463217   -1.497305   -1.113362
     14          1           0        3.718497   -0.243185   -0.906091
     15          1           0        2.538987   -1.615086    1.291027
     16          1           0        3.146295    0.055655    1.432968
     17         16           0       -2.204407   -1.360619   -0.122152
     18          8           0        1.798693    0.457233   -1.045097
     19          8           0        1.139017   -0.123101    1.020142
     20          1           0       -0.926052   -1.297517   -0.544381
 ---------------------------------------------------------------------

 SCF Done:  E(UHF) =  -781.318357971     A.U. after    2 cycles

 The electronic state is 2-A.
 Alpha  occ. eigenvalues --  -93.93318 -20.57458 -20.56974 -11.33478 -11.30411
 Alpha  occ. eigenvalues --  -11.30261 -11.26379 -11.24054 -11.23856  -8.21427
 Alpha  occ. eigenvalues --   -6.19312  -6.19158  -6.18906  -1.55557  -1.45127
 Alpha  occ. eigenvalues --   -1.11047  -1.05963  -1.00318  -0.92616  -0.87950
 Alpha  occ. eigenvalues --   -0.83651  -0.79425  -0.73335  -0.71214  -0.66123
 Alpha  occ. eigenvalues --   -0.64393  -0.62270  -0.61294  -0.59480  -0.56282
 Alpha  occ. eigenvalues --   -0.55228  -0.53428  -0.52827  -0.52281  -0.49874
 Alpha  occ. eigenvalues --   -0.48269  -0.45960  -0.44962  -0.35232  -0.31440
 Alpha virt. eigenvalues --    0.03222   0.03562   0.04066   0.04292   0.05192
 Alpha virt. eigenvalues --    0.05497   0.06252   0.07013   0.07512   0.08418
 Alpha virt. eigenvalues --    0.08526   0.10436   0.11830   0.12437   0.13232

  Beta  occ. eigenvalues --  -93.93282 -20.57033 -20.56482 -11.30955 -11.30424
  Beta  occ. eigenvalues --  -11.30278 -11.26383 -11.24109 -11.23828  -8.21387
  Beta  occ. eigenvalues --   -6.19225  -6.19067  -6.18884  -1.53993  -1.43912
  Beta  occ. eigenvalues --   -1.10352  -1.05065  -1.00104  -0.91656  -0.87650
  Beta  occ. eigenvalues --   -0.82022  -0.77947  -0.71281  -0.70308  -0.64590
  Beta  occ. eigenvalues --   -0.63766  -0.61805  -0.59835  -0.57803  -0.54625
  Beta  occ. eigenvalues --   -0.53408  -0.52686  -0.52231  -0.51358  -0.49718
  Beta  occ. eigenvalues --   -0.47481  -0.44582  -0.43399  -0.35107
  Beta virt. eigenvalues --    0.03220   0.03528   0.04056   0.04293   0.05117
  Beta virt. eigenvalues --    0.05495   0.06153   0.07009   0.07471   0.08422
  Beta virt. eigenvalues --    0.08528   0.10460   0.11675   0.12434   0.12621

 Mulliken charges and spin densities:
               1          2
     1  C   -0.468397  -0.127065
     2  H    0.248246   0.055368
     3  C   -0.747633  -0.002332
     4  H    0.207111  -0.000616
     5  H    0.195414  -0.010752
     6  H    0.190368   0.001951
     7  C   -0.211843   0.015062
     8  H    0.142681  -0.003647
     9  H    0.164057  -0.002469
    10  C    1.927122   1.010074
    11  C    0.230379  -0.040132
    12  C    0.437754   0.013482
    13  H    0.108026  -0.003412
    14  H    0.027980  -0.001327
    15  H    0.063914  -0.000743
    16  H    0.053960   0.003874
    17  S   -0.026456   0.028186
    18  O   -1.520708   0.044692
    19  O   -1.478551   0.052389
    20  H    0.456575  -0.032580
 Sum of Mulliken charges =   0.00000   1.00000

 Dipole moment (field-independent basis, Debye):
    X=              2.4193    Y=              1.1264    Z=              0.1264  Tot=              2.6716
                          Isotropic Fermi Contact Couplings
        Atom                 a.u.       MegaHertz       Gauss      10(-4) cm-1
     1  C(13)              0.00284       3.18784       1.13750       1.06335
     2  H(1)               0.01641      73.35736      26.17573      24.46938
     3  C(13)             -0.00129      -1.44523      -0.51570      -0.48208
     4  H(1)               0.00008       0.35775       0.12765       0.11933
     5  H(1)               0.00138       6.15300       2.19554       2.05242
     6  H(1)               0.00004       0.16245       0.05797       0.05419
     7  C(13)              0.00616       6.92377       2.47057       2.30952
     8  H(1)              -0.00089      -3.99542      -1.42567      -1.33273

 Normal termination of Gaussian 16 at Wed Apr  9 00:59:54 2025.
