 Gaussian 16, Revision C.01,

 ----------------------------------------------------------------------
 #t hf aug-cc-pvdz symm=none int=(grid=ultrafine) guess=(read,tcheck) s
 table=(opt,rrhf)
 ----------------------------------------------------------------------
 -----
 title
 -----
 Symbolic Z-matrix:
 Charge =  0 Multiplicity = 1

 SCF Done:  E(RHF) =  -703.133695262     A.U. after   15 cycles
 Normal termination of Gaussian 16 at Wed Apr  9 00:59:39 2025.
 Gaussian 16:  ES64L-G16RevC.01  3-Jul-2019

 ----------------------------------------------------------------------
 #t hf aug-cc-pvdz iop(5/13=1,5/36=2,99/5=2) pseudo=read geom=check gue
 ss=(read,tcheck) scf=(maxcycle=1)
 ----------------------------------------------------------------------
 -----
 title
 -----
 Structure from the checkpoint file:  "BH10_180_reverse_mol3.chk"
 Charge =  0 Multiplicity = 1

                         Standard orientation:
 ---------------------------------------------------------------------
 Center     Atomic      Atomic             Coordinates (Angstroms)
 Number     Number       Type             X           Y           Z
 ---------------------------------------------------------------------
      1          6           0       -1.831862    0.016550    0.005511
      2          6           0       -1.144844   -1.190839   -0.000185
      3          6           0        0.242309   -1.195638   -0.009971
      4          6           0        0.952824   -0.002038   -0.007534
      5          6           0        0.252637    1.202236   -0.016128
      6          6           0       -1.130559    1.216513   -0.002972
      7         16           0        2.742790   -0.016432   -0.071300
      8          1           0       -1.690526   -2.128734   -0.000060
      9          1           0        0.777878   -2.136258   -0.018251
     10          1           0        0.800380    2.135819   -0.034222
     11          1           0       -1.682752    2.147351   -0.006167
     12          8           0       -3.190665    0.086032    0.015125
     13          1           0       -3.567840   -0.798019    0.012444
     14          1           0        2.960509    0.073807    1.253742
 ---------------------------------------------------------------------

 SCF Done:  E(RHF) =  -703.503641839     A.U. after    2 cycles

 The electronic state is 1-A.
 Alpha  occ. eigenvalues --  -93.95511 -20.58982 -11.32018 -11.26901 -11.26037
 Alpha  occ. eigenvalues --  -11.25845 -11.24973 -11.24402  -8.23547  -6.21400
 Alpha  occ. eigenvalues --   -6.21259  -6.21040  -1.50597  -1.17366  -1.06532
 Alpha  occ. eigenvalues --   -1.03641  -0.96497  -0.86973  -0.82801  -0.75446
 Alpha  occ. eigenvalues --   -0.69641  -0.66080  -0.62985  -0.61487  -0.60153
 Alpha  occ. eigenvalues --   -0.58529  -0.56008  -0.51655  -0.50622  -0.47202
 Alpha  occ. eigenvalues --   -0.37692  -0.36354  -0.33186
 Alpha virt. eigenvalues --    0.02838   0.03979   0.04047   0.05145   0.05776
 Alpha virt. eigenvalues --    0.06896   0.08655   0.09214   0.10125   0.10920
 Alpha virt. eigenvalues --    0.12193   0.12527   0.12889   0.13172   0.13607

 Mulliken charges:
               1
     1  C    1.501326
     2  C   -0.003400
     3  C   -0.055223
     4  C    0.045822
     5  C    0.074024
     6  C    0.330373
     7  S    0.018150
     8  H   -0.316425
     9  H   -0.172834
    10  H   -0.191049
    11  H   -0.238619
    12  O   -1.737556
    13  H    0.407281
    14  H    0.338129
 Sum of Mulliken charges =   0.00000

 Dipole moment (field-independent basis, Debye):
    X=             -1.5427    Y=             -1.2582    Z=              0.8646  Tot=              2.1704

 Test job not archived.
 1\1\GINC-SE457\SP\RHF\Aug-CC-pVDZ\C6H6O1S1\OHZDE\09-Apr-2025\0\\#t hf
 aug-cc-pvdz iop(5/13=1,5/36=2,99/5=2) pseudo=read geom=check guess=(re
 ad,tcheck) scf=(maxcycle=1)\\title\\0,1\C,0,-1.831862,0.01655,0.005511
 \C,0,-1.144844,-1.190839,-0.000185\C,0,0.242309,-1.195638,-0.009971\C,
 0,0.952824,-0.002038,-0.007534\C,0,0.252637,1.202236,-0.016128\C,0,-1.
 130559,1.216513,-0.002972\S,0,2.74279,-0.016432,-0.0713\H,0,-1.690526,
 -2.128734,-0.00006\H,0,0.777878,-2.136258,-0.018251\H,0,0.80038,2.1358
 19,-0.034222\H,0,-1.682752,2.147351,-0.006167\O,0,-3.190665,0.086032,0

 Normal termination of Gaussian 16 at Wed Apr  9 00:59:45 2025.
