 Gaussian 16, Revision C.01,

 ----------------------------------------------------------------------
 #t hf aug-cc-pvdz symm=none int=(grid=ultrafine) guess=(read,tcheck) s
 table=opt
 ----------------------------------------------------------------------
 -----
 title
 -----
 Symbolic Z-matrix:
 Charge =  0 Multiplicity = 2

 SCF Done:  E(UHF) =  -962.539676107     A.U. after   29 cycles
 Normal termination of Gaussian 16 at Wed Apr  9 01:00:48 2025.
 Gaussian 16:  ES64L-G16RevC.01  3-Jul-2019

 ----------------------------------------------------------------------
 #t hf aug-cc-pvdz iop(5/13=1,5/36=2,99/5=2) pseudo=read geom=check gue
 ss=(read,tcheck) scf=(maxcycle=1)
 ----------------------------------------------------------------------
 -----
 title
 -----
 Structure from the checkpoint file:  "BH10_157_forward_mol1.chk"
 Charge =  0 Multiplicity = 2

                         Standard orientation:
 ---------------------------------------------------------------------
 Center     Atomic      Atomic             Coordinates (Angstroms)
 Number     Number       Type             X           Y           Z
 ---------------------------------------------------------------------
      1          7           0        1.762185   -0.464392    1.058765
      2          1           0        1.462405   -0.497280    2.021498
      3          6           0        0.756336   -0.449213    0.000495
      4          1           0        1.197992   -0.960905   -0.855250
      5          6           0       -0.488677   -1.203269    0.445299
      6          6           0        0.494814    1.010126   -0.402890
      7          1           0       -0.185339   -2.174124    0.839964
      8          1           0       -1.006247   -0.671926    1.252842
      9         16           0       -1.679780   -1.481101   -0.884872
     10          8           0       -0.433607    1.675469    0.043520
     11          1           0       -2.624486   -0.252108   -0.469721
     12          7           0        1.401294    1.517311   -1.246296
     13          1           0        2.246960    0.998975   -1.452285
     14          1           0        1.342682    2.497525   -1.476435
     15          6           0        3.084074   -0.403159    0.784002
     16          1           0        3.721673   -0.475902    1.677874
     17          8           0        3.540264   -0.280845   -0.335885
     18          8           0       -3.294489    0.519918    0.093306
     19          8           0       -2.645451    0.929112    1.212988
     20          1           0       -1.836509    1.386806    0.859318
 ---------------------------------------------------------------------

 SCF Done:  E(UHF) =  -963.157844539     A.U. after    2 cycles

 The electronic state is 2-A.
 Alpha  occ. eigenvalues --  -93.96419 -20.65132 -20.61157 -20.54925 -20.54290
 Alpha  occ. eigenvalues --  -15.57058 -15.54680 -11.39340 -11.39091 -11.32180
 Alpha  occ. eigenvalues --  -11.29257  -8.24495  -6.23205  -6.22028  -6.21743
 Alpha  occ. eigenvalues --   -1.64446  -1.49944  -1.49365  -1.29142  -1.25850
 Alpha  occ. eigenvalues --   -1.24760  -1.11810  -1.02071  -0.91042  -0.88107
 Alpha  occ. eigenvalues --   -0.85149  -0.80326  -0.77435  -0.77405  -0.74212
 Alpha  occ. eigenvalues --   -0.71277  -0.70717  -0.65593  -0.65044  -0.63319
 Alpha  occ. eigenvalues --   -0.62701  -0.59855  -0.59623  -0.57161  -0.53826
 Alpha  occ. eigenvalues --   -0.51519  -0.48582  -0.47349  -0.46913  -0.46111
 Alpha  occ. eigenvalues --   -0.44233  -0.41827  -0.38216
 Alpha virt. eigenvalues --    0.02095   0.03597   0.04074   0.04431   0.05693
 Alpha virt. eigenvalues --    0.06562   0.06873   0.07434   0.08070   0.09593
 Alpha virt. eigenvalues --    0.10407   0.10977   0.11877   0.12060   0.12748

  Beta  occ. eigenvalues --  -93.95831 -20.62400 -20.60757 -20.54923 -20.54289
  Beta  occ. eigenvalues --  -15.57059 -15.54681 -11.39341 -11.39093 -11.32173
  Beta  occ. eigenvalues --  -11.29313  -8.23826  -6.21733  -6.21387  -6.20543
  Beta  occ. eigenvalues --   -1.60090  -1.49936  -1.49344  -1.29132  -1.24970
  Beta  occ. eigenvalues --   -1.20071  -1.10720  -0.99920  -0.90483  -0.86274
  Beta  occ. eigenvalues --   -0.85051  -0.80125  -0.77201  -0.74925  -0.73204
  Beta  occ. eigenvalues --   -0.71146  -0.65624  -0.65116  -0.64382  -0.62242
  Beta  occ. eigenvalues --   -0.59849  -0.59466  -0.58619  -0.55487  -0.51481
  Beta  occ. eigenvalues --   -0.49496  -0.47439  -0.46894  -0.45903  -0.44031
  Beta  occ. eigenvalues --   -0.40974  -0.36930
  Beta virt. eigenvalues --    0.00080   0.02106   0.03603   0.04130   0.04491
  Beta virt. eigenvalues --    0.05813   0.06570   0.06949   0.07449   0.08182
  Beta virt. eigenvalues --    0.09673   0.10573   0.10983   0.11930   0.12164

 Mulliken charges and spin densities:
               1          2
     1  N    0.761718   0.003055
     2  H    0.220956   0.000748
     3  C   -1.046395  -0.015911
     4  H    0.094046  -0.001084
     5  C   -0.291608  -0.063420
     6  C    0.200989  -0.005018
     7  H    0.151402   0.006825
     8  H    0.190794   0.013893
     9  S    0.042146   0.683026
    10  O   -1.553224   0.002460
    11  H    0.830012  -0.273912
    12  N    1.000204   0.002964
    13  H    0.111410  -0.000029
    14  H    0.102031  -0.000211
    15  C    0.657933  -0.000368
    16  H    0.061568  -0.000135
    17  O   -1.136314   0.000487
    18  O   -0.689770   0.624887
    19  O   -0.510325   0.032538
    20  H    0.802427  -0.010794
 Sum of Mulliken charges =   0.00000   1.00000

 Dipole moment (field-independent basis, Debye):
    X=              4.3945    Y=             -0.2355    Z=              1.9986  Tot=              4.8334
                          Isotropic Fermi Contact Couplings
        Atom                 a.u.       MegaHertz       Gauss      10(-4) cm-1
     1  N(14)             -0.00096      -0.31087      -0.11093      -0.10370
     2  H(1)              -0.00000      -0.00598      -0.00213      -0.00200
     3  C(13)              0.00126       1.41937       0.50647       0.47345
     4  H(1)              -0.00022      -0.97091      -0.34644      -0.32386
     5  C(13)             -0.01199     -13.47876      -4.80956      -4.49603
     6  C(13)             -0.00052      -0.58089      -0.20727      -0.19376
     7  H(1)               0.00516      23.06007       8.22841       7.69201
     8  H(1)               0.00757      33.85927      12.08183      11.29424

 Normal termination of Gaussian 16 at Wed Apr  9 01:01:01 2025.
