 Gaussian 16, Revision C.01,

 ----------------------------------------------------------------------
 #t hf aug-cc-pvdz symm=none int=(grid=ultrafine) guess=(read,tcheck) s
 table=(opt,rrhf)
 ----------------------------------------------------------------------
 -----
 title
 -----
 Symbolic Z-matrix:
 Charge =  0 Multiplicity = 1

 SCF Done:  E(RHF) =  -827.557196823     A.U. after   13 cycles
 Normal termination of Gaussian 16 at Wed Apr  9 00:56:49 2025.
 Gaussian 16:  ES64L-G16RevC.01  3-Jul-2019

 ----------------------------------------------------------------------
 #t hf aug-cc-pvdz iop(5/13=1,5/36=2,99/5=2) pseudo=read geom=check gue
 ss=(read,tcheck) scf=(maxcycle=1)
 ----------------------------------------------------------------------
 -----
 title
 -----
 Structure from the checkpoint file:  "BH10_111_forward_mol2.chk"
 Charge =  0 Multiplicity = 1

                         Standard orientation:
 ---------------------------------------------------------------------
 Center     Atomic      Atomic             Coordinates (Angstroms)
 Number     Number       Type             X           Y           Z
 ---------------------------------------------------------------------
      1          6           0        1.934642    0.000105    0.839308
      2          6           0        0.480419    0.000060    0.500790
      3          6           0       -0.206643    1.199461    0.337518
      4          6           0       -0.206594   -1.199384    0.337619
      5          1           0        0.319811    2.139281    0.457012
      6          6           0       -1.555310    1.209774    0.018225
      7          6           0       -1.555259   -1.209779    0.018326
      8          6           0       -2.201945   -0.000022   -0.135294
      9          1           0        0.319901   -2.139172    0.457191
     10          1           0       -2.104913    2.132789   -0.110408
     11          1           0       -2.104824   -2.132827   -0.110230
     12          9           0       -3.513787   -0.000063   -0.442844
     13          1           0        2.219813   -0.886547    1.399075
     14          1           0        2.219804    0.886891    1.398867
     15         17           0        2.977567   -0.000067   -0.647345
 ---------------------------------------------------------------------

 SCF Done:  E(RHF) =  -828.000990624     A.U. after    2 cycles

 The electronic state is 1-A.
 Alpha  occ. eigenvalues -- -105.55702 -26.48195 -11.34406 -11.31608 -11.26664
 Alpha  occ. eigenvalues --  -11.26659 -11.26388 -11.25976 -11.25952 -10.60508
 Alpha  occ. eigenvalues --   -7.77445  -7.77071  -7.77065  -1.61280  -1.18925
 Alpha  occ. eigenvalues --   -1.11337  -1.04799  -1.02954  -0.91815  -0.88011
 Alpha  occ. eigenvalues --   -0.83129  -0.75547  -0.72292  -0.68891  -0.67967
 Alpha  occ. eigenvalues --   -0.64049  -0.63766  -0.62673  -0.58960  -0.58809
 Alpha  occ. eigenvalues --   -0.55690  -0.52502  -0.51564  -0.44955  -0.44688
 Alpha  occ. eigenvalues --   -0.37187  -0.35312
 Alpha virt. eigenvalues --    0.03322   0.03387   0.03763   0.05086   0.05493
 Alpha virt. eigenvalues --    0.07689   0.08081   0.08659   0.08953   0.09845
 Alpha virt. eigenvalues --    0.11355   0.12308   0.12481   0.13596   0.14134

 Mulliken charges:
               1
     1  C   -0.808563
     2  C    1.580152
     3  C    0.245653
     4  C    0.245563
     5  H   -0.257851
     6  C   -0.230673
     7  C   -0.230682
     8  C    1.012333
     9  H   -0.257843
    10  H   -0.191206
    11  H   -0.191205
    12  F   -0.992461
    13  H    0.076421
    14  H    0.076406
    15  Cl  -0.076044
 Sum of Mulliken charges =  -0.00000

 Dipole moment (field-independent basis, Debye):
    X=             -0.0901    Y=              0.0002    Z=              1.9696  Tot=              1.9717

 Test job not archived.
 1\1\GINC-SE120\SP\RHF\Aug-CC-pVDZ\C7H6Cl1F1\OHZDE\09-Apr-2025\0\\#t hf
  aug-cc-pvdz iop(5/13=1,5/36=2,99/5=2) pseudo=read geom=check guess=(r
 ead,tcheck) scf=(maxcycle=1)\\title\\0,1\C,0,1.934642,0.000105,0.83930
 8\C,0,0.480419,0.00006,0.50079\C,0,-0.206643,1.199461,0.337518\C,0,-0.
 206594,-1.199384,0.337619\H,0,0.319811,2.139281,0.457012\C,0,-1.55531,
 1.209774,0.018225\C,0,-1.555259,-1.209779,0.018326\C,0,-2.201945,-0.00
 0022,-0.135294\H,0,0.319901,-2.139172,0.457191\H,0,-2.104913,2.132789,
 -0.110408\H,0,-2.104824,-2.132827,-0.11023\F,0,-3.513787,-0.000063,-0.

 Normal termination of Gaussian 16 at Wed Apr  9 00:56:56 2025.
