 Gaussian 16, Revision C.01,

 ----------------------------------------------------------------------
 #t hf aug-cc-pvdz symm=none int=(grid=ultrafine) guess=(read,tcheck) s
 table=(opt,rrhf)
 ----------------------------------------------------------------------
 -----
 title
 -----
 Symbolic Z-matrix:
 Charge =  0 Multiplicity = 1

 SCF Done:  E(RHF) =  -855.861017461     A.U. after   18 cycles
 Normal termination of Gaussian 16 at Wed Apr  9 02:08:37 2025.
 Gaussian 16:  ES64L-G16RevC.01  3-Jul-2019

 ----------------------------------------------------------------------
 #t hf aug-cc-pvdz iop(5/13=1,5/36=2,99/5=2) pseudo=read geom=check gue
 ss=(read,tcheck) scf=(maxcycle=1)
 ----------------------------------------------------------------------
 -----
 title
 -----
 Structure from the checkpoint file:  "BH10_92_forward_mol1.chk"
 Charge =  0 Multiplicity = 1

                         Standard orientation:
 ---------------------------------------------------------------------
 Center     Atomic      Atomic             Coordinates (Angstroms)
 Number     Number       Type             X           Y           Z
 ---------------------------------------------------------------------
      1          6           0       -0.907374    1.217133   -0.455359
      2          6           0       -0.474402    1.510775    0.810110
      3          6           0       -0.680469   -0.781424    0.951898
      4          6           0       -0.370654    0.374869    1.634761
      5          1           0       -0.811023   -1.755439    1.404689
      6          1           0        0.005516    0.394594    2.648853
      7          1           0       -0.164765    2.502450    1.114696
      8          1           0       -1.151325    1.933297   -1.226837
      9         16           0       -1.717344   -0.398406   -0.507970
     10          6           0        2.723605    0.292868    0.264588
     11          6           0        1.002059    0.027283   -1.207256
     12          6           0        0.930476   -1.114414   -0.421100
     13          6           0        2.173034   -1.129107    0.448433
     14          1           0        2.535174    0.928236    1.128204
     15          1           0        0.614729    0.163131   -2.203950
     16          1           0        0.523742   -2.029759   -0.824724
     17          1           0        2.876538   -1.878998    0.078645
     18          1           0        1.969274   -1.350090    1.496363
     19          1           0        3.786690    0.322303    0.026986
     20          8           0       -3.153259   -0.258251   -0.093224
     21          8           0        2.017673    0.852860   -0.865759
 ---------------------------------------------------------------------

 SCF Done:  E(RHF) =  -856.389488689     A.U. after    2 cycles

 The electronic state is 1-A.
 Alpha  occ. eigenvalues --  -94.06603 -20.58155 -20.48753 -11.33175 -11.30682
 Alpha  occ. eigenvalues --  -11.29128 -11.26613 -11.26368 -11.26107 -11.25997
 Alpha  occ. eigenvalues --  -11.24766  -8.33293  -6.31132  -6.30977  -6.30790
 Alpha  occ. eigenvalues --   -1.51386  -1.41912  -1.17241  -1.09271  -1.02859
 Alpha  occ. eigenvalues --   -0.99321  -0.97758  -0.85288  -0.80892  -0.79315
 Alpha  occ. eigenvalues --   -0.75695  -0.74089  -0.71598  -0.69689  -0.62398
 Alpha  occ. eigenvalues --   -0.59377  -0.58976  -0.58717  -0.58251  -0.56975
 Alpha  occ. eigenvalues --   -0.56817  -0.55549  -0.54730  -0.51794  -0.50980
 Alpha  occ. eigenvalues --   -0.45793  -0.41472  -0.36656  -0.35174  -0.30374
 Alpha virt. eigenvalues --    0.02642   0.02918   0.03119   0.03826   0.04672
 Alpha virt. eigenvalues --    0.05055   0.05351   0.06092   0.06855   0.07814
 Alpha virt. eigenvalues --    0.08635   0.09271   0.10394   0.11789   0.12223

 Mulliken charges:
               1
     1  C   -0.342260
     2  C    0.462721
     3  C   -0.309346
     4  C    0.340005
     5  H   -0.262062
     6  H   -0.188949
     7  H   -0.174348
     8  H   -0.269576
     9  S    1.966786
    10  C    0.374905
    11  C    1.544420
    12  C    0.177754
    13  C   -0.396388
    14  H    0.149181
    15  H   -0.102365
    16  H   -0.140651
    17  H    0.122197
    18  H    0.155489
    19  H    0.016691
    20  O   -1.552506
    21  O   -1.571698
 Sum of Mulliken charges =  -0.00000

 Dipole moment (field-independent basis, Debye):
    X=              6.0000    Y=             -0.6433    Z=              0.6911  Tot=              6.0738

 Test job not archived.
 1\1\GINC-SE403\SP\RHF\Aug-CC-pVDZ\C8H10O2S1\OHZDE\09-Apr-2025\0\\#t hf
  aug-cc-pvdz iop(5/13=1,5/36=2,99/5=2) pseudo=read geom=check guess=(r
 ead,tcheck) scf=(maxcycle=1)\\title\\0,1\C,0,-0.907374,1.217133,-0.455
 359\C,0,-0.474402,1.510775,0.81011\C,0,-0.680469,-0.781424,0.951898\C,
 0,-0.370654,0.374869,1.634761\H,0,-0.811023,-1.755439,1.404689\H,0,0.0
 05516,0.394594,2.648853\H,0,-0.164765,2.50245,1.114696\H,0,-1.151325,1
 .933297,-1.226837\S,0,-1.717344,-0.398406,-0.50797\C,0,2.723605,0.2928
 68,0.264588\C,0,1.002059,0.027283,-1.207256\C,0,0.930476,-1.114414,-0.

 Normal termination of Gaussian 16 at Wed Apr  9 02:08:52 2025.
