 Gaussian 16, Revision C.01,

 ----------------------------------------------------------------------
 #t hf aug-cc-pvdz symm=none int=(grid=ultrafine) guess=(read,tcheck) s
 table=(opt,rrhf)
 ----------------------------------------------------------------------
 -----
 title
 -----
 Symbolic Z-matrix:
 Charge =  0 Multiplicity = 1

 SCF Done:  E(RHF) =  -932.198171120     A.U. after   15 cycles
 Normal termination of Gaussian 16 at Wed Apr  9 00:55:54 2025.
 Gaussian 16:  ES64L-G16RevC.01  3-Jul-2019

 ----------------------------------------------------------------------
 #t hf aug-cc-pvdz iop(5/13=1,5/36=2,99/5=2) pseudo=read geom=check gue
 ss=(read,tcheck) scf=(maxcycle=1)
 ----------------------------------------------------------------------
 -----
 title
 -----
 Structure from the checkpoint file:  "BH10-RE_114_mol3.chk"
 Charge =  0 Multiplicity = 1

                         Standard orientation:
 ---------------------------------------------------------------------
 Center     Atomic      Atomic             Coordinates (Angstroms)
 Number     Number       Type             X           Y           Z
 ---------------------------------------------------------------------
      1          6           0       -2.677808    0.000122    0.790560
      2          6           0       -1.204243    0.000081    0.534264
      3          6           0       -0.513579    1.202702    0.410968
      4          6           0       -0.513625   -1.202580    0.411088
      5          1           0       -1.047825    2.140849    0.501120
      6          6           0        0.848905    1.212315    0.168863
      7          6           0        0.848857   -1.212270    0.168982
      8          6           0        1.505919    0.000004    0.052512
      9          1           0       -1.047909   -2.140697    0.501333
     10          1           0        1.404487    2.133894    0.071743
     11          1           0        1.404403   -2.133880    0.071951
     12          7           0        2.958581   -0.000036   -0.200374
     13          8           0        3.513066    1.076900   -0.296743
     14          8           0        3.513016   -1.077004   -0.296681
     15          1           0       -2.991655    0.887434    1.333661
     16          1           0       -2.991661   -0.887033    1.333917
     17         17           0       -3.612653   -0.000101   -0.758068
 ---------------------------------------------------------------------

 SCF Done:  E(RHF) =  -932.742987371     A.U. after    2 cycles

 The electronic state is 1-A.
 Alpha  occ. eigenvalues -- -105.57276 -20.59301 -20.59297 -15.79675 -11.33096
 Alpha  occ. eigenvalues --  -11.32007 -11.29382 -11.28752 -11.28741 -11.27849
 Alpha  occ. eigenvalues --  -11.27849 -10.62070  -7.79013  -7.78629  -7.78621
 Alpha  occ. eigenvalues --   -1.68299  -1.51732  -1.22115  -1.15177  -1.09385
 Alpha  occ. eigenvalues --   -1.06557  -1.00208  -0.91507  -0.89020  -0.84154
 Alpha  occ. eigenvalues --   -0.81088  -0.75836  -0.75565  -0.71009  -0.70579
 Alpha  occ. eigenvalues --   -0.66663  -0.64723  -0.62481  -0.60894  -0.57660
 Alpha  occ. eigenvalues --   -0.54773  -0.54338  -0.50364  -0.49195  -0.46480
 Alpha  occ. eigenvalues --   -0.46119  -0.45656  -0.38875  -0.38650
 Alpha virt. eigenvalues --    0.01693   0.02743   0.03088   0.03584   0.05511
 Alpha virt. eigenvalues --    0.05628   0.07127   0.07490   0.08308   0.08526
 Alpha virt. eigenvalues --    0.10011   0.11647   0.11766   0.12032   0.12690

 Mulliken charges:
               1
     1  C   -0.769755
     2  C    1.108833
     3  C    0.437438
     4  C    0.437301
     5  H   -0.295042
     6  C   -0.079508
     7  C   -0.079526
     8  C   -0.172780
     9  H   -0.295029
    10  H   -0.215377
    11  H   -0.215377
    12  N    3.028633
    13  O   -1.494611
    14  O   -1.494611
    15  H    0.076699
    16  H    0.076724
    17  Cl  -0.054009
 Sum of Mulliken charges =  -0.00000

 Dipole moment (field-independent basis, Debye):
    X=             -3.5080    Y=              0.0004    Z=              2.4381  Tot=              4.2721

 Test job not archived.
 1\1\GINC-SE336\SP\RHF\Aug-CC-pVDZ\C7H6Cl1N1O2\OHZDE\09-Apr-2025\0\\#t
 hf aug-cc-pvdz iop(5/13=1,5/36=2,99/5=2) pseudo=read geom=check guess=
 (read,tcheck) scf=(maxcycle=1)\\title\\0,1\C,0,-2.677808,0.000122,0.79
 056\C,0,-1.204243,0.000081,0.534264\C,0,-0.513579,1.202702,0.410968\C,
 0,-0.513625,-1.20258,0.411088\H,0,-1.047825,2.140849,0.50112\C,0,0.848
 905,1.212315,0.168863\C,0,0.848857,-1.21227,0.168982\C,0,1.505919,0.00
 0004,0.052512\H,0,-1.047909,-2.140697,0.501333\H,0,1.404487,2.133894,0
 .071743\H,0,1.404403,-2.13388,0.071951\N,0,2.958581,-0.000036,-0.20037

 Normal termination of Gaussian 16 at Wed Apr  9 00:56:04 2025.
