 Gaussian 16, Revision C.01,

 ----------------------------------------------------------------------
 #t hf aug-cc-pvdz symm=none int=(grid=ultrafine) guess=(read,tcheck) s
 table=(opt,rrhf)
 ----------------------------------------------------------------------
 -----
 title
 -----
 Symbolic Z-matrix:
 Charge =  0 Multiplicity = 1

 SCF Done:  E(RHF) =  -681.080009221     A.U. after   16 cycles

 1\1\GINC-SE112\Stability\RHF\Aug-CC-pVDZ\C10H7F3\OHZDE\09-Apr-2025\0\\
 #t hf aug-cc-pvdz symm=none int=(grid=ultrafine) guess=(read,tcheck) s
 table=(opt,rrhf)\\title\\0,1\C,0,-4.281495,-0.738302,0.014218\C,0,-3.1
 59832,-0.099179,0.005013\C,0,-4.387588,0.761911,0.015081\H,0,-4.832577
 ,-1.661226,0.018572\C,0,-1.716928,-0.073151,-0.006904\C,0,-1.042384,1.
 146446,-0.015565\C,0,-0.979954,-1.260727,-0.013002\C,0,0.342407,1.1842
 26,-0.028584\H,0,-1.614356,2.065733,-0.014274\C,0,0.400699,-1.226974,-
 0.026458\H,0,-1.501058,-2.209913,-0.009922\C,0,1.06116,-0.002198,-0.03

 Normal termination of Gaussian 16 at Wed Apr  9 01:04:57 2025.
 Gaussian 16:  ES64L-G16RevC.01  3-Jul-2019

 ----------------------------------------------------------------------
 #t hf aug-cc-pvdz iop(5/13=1,5/36=2,99/5=2) pseudo=read geom=check gue
 ss=(read,tcheck) scf=(maxcycle=1)
 ----------------------------------------------------------------------
 -----
 title
 -----
 Structure from the checkpoint file:  "BH10_249_forward_mol2.chk"
 Charge =  0 Multiplicity = 1

                         Standard orientation:
 ---------------------------------------------------------------------
 Center     Atomic      Atomic             Coordinates (Angstroms)
 Number     Number       Type             X           Y           Z
 ---------------------------------------------------------------------
      1          6           0        4.281495    0.738302    0.014218
      2          6           0        3.159832    0.099179    0.005013
      3          6           0        4.387588   -0.761911    0.015081
      4          1           0        4.832577    1.661226    0.018572
      5          6           0        1.716928    0.073151   -0.006904
      6          6           0        1.042384   -1.146446   -0.015565
      7          6           0        0.979954    1.260727   -0.013002
      8          6           0       -0.342407   -1.184226   -0.028584
      9          1           0        1.614356   -2.065733   -0.014274
     10          6           0       -0.400699    1.226974   -0.026458
     11          1           0        1.501058    2.209913   -0.009922
     12          6           0       -1.061160    0.002198   -0.035486
     13          1           0       -0.863356   -2.132446   -0.041062
     14          1           0       -0.969998    2.147392   -0.037958
     15          6           0       -2.558599   -0.027656    0.001583
     16          9           0       -3.101631    0.998354   -0.677767
     17          9           0       -3.058957   -1.160310   -0.520235
     18          9           0       -3.029498    0.056909    1.263591
     19          1           0        4.674561   -1.278380    0.930911
     20          1           0        4.689678   -1.278296   -0.895939
 ---------------------------------------------------------------------

 SCF Done:  E(RHF) =  -681.741317306     A.U. after    2 cycles

 The electronic state is 1-A.
 Alpha  occ. eigenvalues --  -26.50409 -26.50314 -26.49850 -11.51971 -11.27856
 Alpha  occ. eigenvalues --  -11.27686 -11.27012 -11.27008 -11.26540 -11.26481
 Alpha  occ. eigenvalues --  -11.26452 -11.26045 -11.25621  -1.71330  -1.61232
 Alpha  occ. eigenvalues --   -1.60638  -1.20220  -1.17480  -1.08158  -1.04811
 Alpha  occ. eigenvalues --   -0.97022  -0.88735  -0.87583  -0.83195  -0.80585
 Alpha  occ. eigenvalues --   -0.80255  -0.79955  -0.77938  -0.72343  -0.69392
 Alpha  occ. eigenvalues --   -0.68517  -0.66656  -0.65944  -0.63813  -0.63117
 Alpha  occ. eigenvalues --   -0.62257  -0.62018  -0.61938  -0.61438  -0.54940
 Alpha  occ. eigenvalues --   -0.54428  -0.53985  -0.50536  -0.44102  -0.42454
 Alpha  occ. eigenvalues --   -0.37281  -0.33364
 Alpha virt. eigenvalues --    0.02938   0.03393   0.03836   0.04475   0.04756
 Alpha virt. eigenvalues --    0.05566   0.05960   0.07381   0.08610   0.08861
 Alpha virt. eigenvalues --    0.08890   0.09344   0.11339   0.11645   0.12381

 Mulliken charges:
               1
     1  C    0.028152
     2  C    0.855898
     3  C   -0.312869
     4  H   -0.337597
     5  C    0.900371
     6  C   -0.004700
     7  C   -0.269238
     8  C    0.004148
     9  H   -0.323268
    10  C   -0.190908
    11  H   -0.319509
    12  C    0.187169
    13  H   -0.271427
    14  H   -0.287648
    15  C    2.688300
    16  F   -0.822502
    17  F   -0.834808
    18  F   -0.760198
    19  H    0.036084
    20  H    0.034550
 Sum of Mulliken charges =   0.00000

 Dipole moment (field-independent basis, Debye):
    X=              2.5893    Y=              0.4795    Z=             -0.0809  Tot=              2.6346

 Test job not archived.
 1\1\GINC-SE112\SP\RHF\Aug-CC-pVDZ\C10H7F3\OHZDE\09-Apr-2025\0\\#t hf a
 ug-cc-pvdz iop(5/13=1,5/36=2,99/5=2) pseudo=read geom=check guess=(rea
 d,tcheck) scf=(maxcycle=1)\\title\\0,1\C,0,-4.281495,-0.738302,0.01421
 8\C,0,-3.159832,-0.099179,0.005013\C,0,-4.387588,0.761911,0.015081\H,0
 ,-4.832577,-1.661226,0.018572\C,0,-1.716928,-0.073151,-0.006904\C,0,-1
 .042384,1.146446,-0.015565\C,0,-0.979954,-1.260727,-0.013002\C,0,0.342
 407,1.184226,-0.028584\H,0,-1.614356,2.065733,-0.014274\C,0,0.400699,-
 1.226974,-0.026458\H,0,-1.501058,-2.209913,-0.009922\C,0,1.06116,-0.00

 Normal termination of Gaussian 16 at Wed Apr  9 01:05:12 2025.
