 Gaussian 16, Revision C.01,

 ----------------------------------------------------------------------
 #t hf aug-cc-pvdz symm=none int=(grid=ultrafine) guess=(read,tcheck) s
 table=(opt,rrhf)
 ----------------------------------------------------------------------
 -----
 title
 -----
 Symbolic Z-matrix:
 Charge =  0 Multiplicity = 1

 SCF Done:  E(RHF) =  -1375.34811880     A.U. after   18 cycles
 Normal termination of Gaussian 16 at Wed Apr  9 03:20:37 2025.
 Gaussian 16:  ES64L-G16RevC.01  3-Jul-2019

 ----------------------------------------------------------------------
 #t hf aug-cc-pvdz iop(5/13=1,5/36=2,99/5=2) pseudo=read geom=check gue
 ss=(read,tcheck) scf=(maxcycle=1)
 ----------------------------------------------------------------------
 -----
 title
 -----
 Structure from the checkpoint file:  "BH10_395_forward_mol1.chk"
 Charge =  0 Multiplicity = 1

                         Standard orientation:
 ---------------------------------------------------------------------
 Center     Atomic      Atomic             Coordinates (Angstroms)
 Number     Number       Type             X           Y           Z
 ---------------------------------------------------------------------
      1          6           0        1.173351   -2.485796    0.397896
      2          7           0       -0.116429   -1.841500    0.510709
      3          6           0        2.202120   -1.623776   -0.299314
      4          6           0        0.324611   -0.511512   -1.500483
      5          1           0       -0.139919    0.465657   -1.475480
      6          1           0        0.427163   -0.771588   -2.559113
      7          6           0        2.353500    0.779613   -0.698086
      8          6           0        3.540419   -1.957389   -0.118218
      9          1           0        4.179463   -2.075074   -0.972801
     10          1           0        3.771277   -2.658483    0.684607
     11          6           0        3.602568    0.916738   -0.091146
     12          6           0        4.621898   -0.008873   -0.230300
     13          6           0        1.714260   -0.456707   -0.915507
     14          1           0        4.794270   -0.352186   -1.237762
     15          1           0        3.721908    1.736735    0.612377
     16          6           0        5.842359    0.022270    0.645126
     17          1           0        6.308855   -0.962336    0.708789
     18          1           0        6.591536    0.708979    0.237748
     19          1           0        5.597762    0.346201    1.657636
     20          1           0        1.077427   -3.458480   -0.122920
     21          6           0       -0.613761   -1.533261   -0.822525
     22          1           0        1.552949   -2.705863    1.400770
     23         16           0        1.475228    2.333941   -0.896977
     24          6           0       -1.058556   -2.646312    1.265730
     25          6           0       -2.045435   -1.031410   -0.795713
     26          1           0       -0.608073   -2.466826   -1.420162
     27          6           0       -2.841438   -1.169440    0.339274
     28          6           0       -2.292959   -1.823151    1.578540
     29          1           0       -3.059568   -2.452966    2.037606
     30          1           0       -2.027580   -1.049238    2.303792
     31          1           0       -0.575515   -2.969236    2.190490
     32          1           0       -1.339232   -3.559199    0.707629
     33          6           0       -2.586361   -0.434561   -1.933977
     34          6           0       -4.148772   -0.687802    0.319421
     35          6           0       -4.674282   -0.083755   -0.808637
     36          6           0       -3.886748    0.038668   -1.946603
     37          1           0       -4.285227    0.502206   -2.841081
     38          1           0       -1.977765   -0.330865   -2.824554
     39          1           0       -4.760333   -0.794038    1.209513
     40          1           0       -5.693322    0.284300   -0.805333
     41          6           0        0.079869    2.176748    0.210808
     42          6           0        0.208525    1.597439    1.467551
     43          6           0       -1.150256    2.685057   -0.194289
     44          6           0       -2.243585    2.619322    0.656859
     45          6           0       -2.115661    2.043739    1.912221
     46          6           0       -0.887982    1.533234    2.312212
     47          1           0       -1.254435    3.111873   -1.184589
     48          1           0       -3.202728    2.998395    0.326595
     49          1           0        1.159859    1.183997    1.776160
     50          1           0       -2.972810    1.982468    2.571643
     51          1           0       -0.780696    1.078515    3.290044
 ---------------------------------------------------------------------

 SCF Done:  E(RHF) =  -1376.41359466     A.U. after    2 cycles

 The electronic state is 1-A.
 Alpha  occ. eigenvalues --  -93.94343 -15.48725 -11.26687 -11.26527 -11.26165
 Alpha  occ. eigenvalues --  -11.26145 -11.26134 -11.25548 -11.24766 -11.24400
 Alpha  occ. eigenvalues --  -11.24256 -11.23644 -11.23641 -11.23594 -11.23582
 Alpha  occ. eigenvalues --  -11.23578 -11.23490 -11.23427 -11.23358 -11.23347
 Alpha  occ. eigenvalues --  -11.23262 -11.23194 -11.23119 -11.22928 -11.22823
 Alpha  occ. eigenvalues --  -11.22572  -8.22395  -6.20226  -6.20047  -6.19861
 Alpha  occ. eigenvalues --   -1.25605  -1.16617  -1.15701  -1.14235  -1.08064
 Alpha  occ. eigenvalues --   -1.07270  -1.05446  -1.05138  -1.01781  -1.01220
 Alpha  occ. eigenvalues --   -0.99755  -0.97915  -0.94523  -0.93349  -0.89864
 Alpha  occ. eigenvalues --   -0.86986  -0.84746  -0.83481  -0.82842  -0.81558
 Alpha  occ. eigenvalues --   -0.79312  -0.78040  -0.75912  -0.71187  -0.70575
 Alpha  occ. eigenvalues --   -0.68764  -0.68299  -0.67262  -0.66267  -0.64531
 Alpha  occ. eigenvalues --   -0.64407  -0.63406  -0.62303  -0.61699  -0.60872
 Alpha  occ. eigenvalues --   -0.60543  -0.60161  -0.59447  -0.58498  -0.57940
 Alpha  occ. eigenvalues --   -0.57486  -0.56712  -0.55795  -0.55356  -0.53937
 Alpha  occ. eigenvalues --   -0.53496  -0.53290  -0.52526  -0.51589  -0.50975
 Alpha  occ. eigenvalues --   -0.50461  -0.50248  -0.49018  -0.48299  -0.47712
 Alpha  occ. eigenvalues --   -0.46679  -0.45608  -0.43894  -0.39481  -0.38680
 Alpha  occ. eigenvalues --   -0.34011  -0.33683  -0.32913  -0.32411  -0.30015
 Alpha  occ. eigenvalues --   -0.29733
 Alpha virt. eigenvalues --    0.02488   0.02668   0.03072   0.03206   0.03375
 Alpha virt. eigenvalues --    0.03772   0.04057   0.04485   0.04780   0.05612
 Alpha virt. eigenvalues --    0.05938   0.06156   0.06430   0.07165   0.07346

 Mulliken charges:
               1
     1  C   -1.764548
     2  N    2.087783
     3  C    0.625390
     4  C   -1.221367
     5  H    0.203388
     6  H    0.282615
     7  C   -0.197049
     8  C   -0.318090
     9  H    0.048297
    10  H   -0.170789
    11  C    0.871526
    12  C   -0.475129
    13  C    1.560089
    14  H    0.092086
    15  H   -0.262896
    16  C   -0.521859
    17  H    0.150163
    18  H    0.259300
    19  H    0.161722
    20  H    0.332283
    21  C   -2.877438
    22  H   -0.128604
    23  S    0.369341
    24  C   -0.052630
    25  C    2.295715
    26  H    0.157165
    27  C    1.046835
    28  C   -0.710861
    29  H    0.141275
    30  H    0.238563
    31  H   -0.004344
    32  H    0.168699
    33  C   -0.280613
    34  C    0.142188
    35  C    0.022524
    36  C   -0.247661
    37  H   -0.315349
    38  H   -0.360210
    39  H   -0.424249
    40  H   -0.292578
    41  C   -0.098856
    42  C    0.230932
    43  C    0.263299
    44  C    0.423229
    45  C    0.121338
    46  C    0.197900
    47  H   -0.383082
    48  H   -0.352165
    49  H   -0.326696
    50  H   -0.366686
    51  H   -0.339899
 Sum of Mulliken charges =   0.00000

 Dipole moment (field-independent basis, Debye):
    X=              0.3330    Y=             -2.7289    Z=              1.0976  Tot=              2.9602

 Test job not archived.
 1\1\GINC-SE173\SP\RHF\Aug-CC-pVDZ\C24H25N1S1\OHZDE\09-Apr-2025\0\\#t h
 f aug-cc-pvdz iop(5/13=1,5/36=2,99/5=2) pseudo=read geom=check guess=(
 read,tcheck) scf=(maxcycle=1)\\title\\0,1\C,0,1.173351,-2.485796,0.397
 896\N,0,-0.116429,-1.8415,0.510709\C,0,2.20212,-1.623776,-0.299314\C,0
 ,0.324611,-0.511512,-1.500483\H,0,-0.139919,0.465657,-1.47548\H,0,0.42
 7163,-0.771588,-2.559113\C,0,2.3535,0.779613,-0.698086\C,0,3.540419,-1
 .957389,-0.118218\H,0,4.179463,-2.075074,-0.972801\H,0,3.771277,-2.658
 483,0.684607\C,0,3.602568,0.916738,-0.091146\C,0,4.621898,-0.008873,-0

 Normal termination of Gaussian 16 at Wed Apr  9 03:24:25 2025.
