 Gaussian 16, Revision C.01,

 ----------------------------------------------------------------------
 #t hf aug-cc-pvdz symm=none int=(grid=ultrafine) guess=(read,tcheck) s
 table=(opt,rrhf)
 ----------------------------------------------------------------------
 -----
 title
 -----
 Symbolic Z-matrix:
 Charge =  0 Multiplicity = 1

 SCF Done:  E(RHF) =  -626.109386246     A.U. after   14 cycles
 Normal termination of Gaussian 16 at Wed Apr  9 02:05:12 2025.
 Gaussian 16:  ES64L-G16RevC.01  3-Jul-2019

 ----------------------------------------------------------------------
 #t hf aug-cc-pvdz iop(5/13=1,5/36=2,99/5=2) pseudo=read geom=check gue
 ss=(read,tcheck) scf=(maxcycle=1)
 ----------------------------------------------------------------------
 -----
 title
 -----
 Structure from the checkpoint file:  "BH10_90_forward_mol2.chk"
 Charge =  0 Multiplicity = 1

                         Standard orientation:
 ---------------------------------------------------------------------
 Center     Atomic      Atomic             Coordinates (Angstroms)
 Number     Number       Type             X           Y           Z
 ---------------------------------------------------------------------
      1          6           0       -0.045543    0.385809    1.261670
      2          6           0       -0.045543    1.611162    0.731860
      3          6           0       -0.045543    0.385809   -1.261670
      4          6           0       -0.045543    1.611162   -0.731860
      5         16           0       -0.286337   -0.849040    0.000000
      6          8           0        0.735089   -1.950549    0.000000
      7          1           0       -0.054693    0.088729   -2.298922
      8          1           0       -0.048451    2.523963   -1.313268
      9          1           0       -0.054693    0.088729    2.298922
     10          1           0       -0.048451    2.523963    1.313268
 ---------------------------------------------------------------------

 SCF Done:  E(RHF) =  -626.401525191     A.U. after    2 cycles

 The electronic state is 1-A'.
 Alpha  occ. eigenvalues --  -94.08144 -20.50619 -11.28792 -11.28784 -11.28662
 Alpha  occ. eigenvalues --  -11.28645  -8.35020  -6.32903  -6.32756  -6.32542
 Alpha  occ. eigenvalues --   -1.43511  -1.19488  -1.02808  -0.99482  -0.80546
 Alpha  occ. eigenvalues --   -0.78941  -0.73926  -0.62826  -0.61082  -0.59359
 Alpha  occ. eigenvalues --   -0.58589  -0.57305  -0.47996  -0.43518  -0.36925
 Alpha  occ. eigenvalues --   -0.36858
 Alpha virt. eigenvalues --    0.02613   0.03396   0.04036   0.04734   0.05389
 Alpha virt. eigenvalues --    0.08191   0.10758   0.11923   0.12713   0.13064
 Alpha virt. eigenvalues --    0.13114   0.13179   0.14025   0.14954   0.15457

 Mulliken charges:
               1
     1  C   -0.448178
     2  C    0.421786
     3  C   -0.448178
     4  C    0.421786
     5  S    1.965446
     6  O   -1.460746
     7  H   -0.124114
     8  H   -0.101843
     9  H   -0.124114
    10  H   -0.101843
 Sum of Mulliken charges =   0.00000

 Dipole moment (field-independent basis, Debye):
    X=             -1.5932    Y=              4.7153    Z=             -0.0000  Tot=              4.9772

 Test job not archived.
 1\1\GINC-SE227\SP\RHF\Aug-CC-pVDZ\C4H4O1S1\OHZDE\09-Apr-2025\0\\#t hf
 aug-cc-pvdz iop(5/13=1,5/36=2,99/5=2) pseudo=read geom=check guess=(re
 ad,tcheck) scf=(maxcycle=1)\\title\\0,1\C,0,0.045543,-0.385809,1.26167
 \C,0,0.045543,-1.611162,0.73186\C,0,0.045543,-0.385809,-1.26167\C,0,0.
 045543,-1.611162,-0.73186\S,0,0.286337,0.84904,0.\O,0,-0.735089,1.9505
 49,0.\H,0,0.054693,-0.088729,-2.298922\H,0,0.048451,-2.523963,-1.31326
 8\H,0,0.054693,-0.088729,2.298922\H,0,0.048451,-2.523963,1.313268\\Ver
 sion=ES64L-G16RevC.01\State=1-A'\HF=-626.4015252\RMSD=1.991e-02\Dipole

 Normal termination of Gaussian 16 at Wed Apr  9 02:05:15 2025.
