 Gaussian 16, Revision C.01,

 ----------------------------------------------------------------------
 #t hf aug-cc-pvdz symm=none int=(grid=ultrafine) guess=(read,tcheck) s
 table=(opt,rrhf)
 ----------------------------------------------------------------------
 -----
 title
 -----
 Symbolic Z-matrix:
 Charge =  0 Multiplicity = 1

 SCF Done:  E(RHF) =  -1135.59342989     A.U. after   13 cycles
 Normal termination of Gaussian 16 at Wed Apr  9 01:36:13 2025.
 Gaussian 16:  ES64L-G16RevC.01  3-Jul-2019

 ----------------------------------------------------------------------
 #t hf aug-cc-pvdz iop(5/13=1,5/36=2,99/5=2) pseudo=read geom=check gue
 ss=(read,tcheck) scf=(maxcycle=1)
 ----------------------------------------------------------------------
 -----
 title
 -----
 Structure from the checkpoint file:  "BH10_326_reverse_mol2.chk"
 Charge =  0 Multiplicity = 1

                         Standard orientation:
 ---------------------------------------------------------------------
 Center     Atomic      Atomic             Coordinates (Angstroms)
 Number     Number       Type             X           Y           Z
 ---------------------------------------------------------------------
      1          6           0        0.112654   -0.631063   -0.507512
      2          6           0       -1.012663   -1.464056    0.057494
      3          8           0       -0.397333    0.679659   -0.589966
      4          6           0       -1.675189   -0.491743    1.061728
      5          6           0       -1.288429    0.915878    0.528983
      6          6           0       -2.437357    1.751323    0.011515
      7          1           0       -0.742141    1.480074    1.289172
      8          8           0        1.185504   -0.686443    0.421506
      9         15           0        2.573969    0.101351    0.159836
     10          8           0        3.558557   -0.108968    1.215008
     11          8           0        2.124771    1.599479   -0.103366
     12          8           0        3.011073   -0.413059   -1.301136
     13          8           0       -3.255349    1.021004   -0.890754
     14          1           0       -2.043289    2.655214   -0.462421
     15          1           0       -3.078920    2.050306    0.840693
     16          1           0       -2.694876    0.643309   -1.579994
     17          8           0       -3.054724   -0.719700    1.197251
     18          1           0       -1.236532   -0.643126    2.046518
     19          1           0       -3.499963   -0.310061    0.437426
     20          8           0       -1.876926   -1.763167   -1.014571
     21          1           0       -0.635330   -2.368215    0.537745
     22          1           0       -2.686796   -2.131286   -0.643752
     23          1           0        1.223851    1.667041   -0.468823
     24          1           0        3.782678   -0.989189   -1.277043
     25          1           0        0.443088   -0.926810   -1.502075
 ---------------------------------------------------------------------

 SCF Done:  E(RHF) =  -1136.43004616     A.U. after    2 cycles

 The electronic state is 1-A.
 Alpha  occ. eigenvalues --  -84.46625 -20.60192 -20.60039 -20.59940 -20.59191
 Alpha  occ. eigenvalues --  -20.58055 -20.58016 -20.56707 -20.50991 -11.38492
 Alpha  occ. eigenvalues --  -11.32599 -11.31860 -11.31783 -11.31579  -6.91407
 Alpha  occ. eigenvalues --   -4.45647  -4.44958  -4.44819  -1.58102  -1.53474
 Alpha  occ. eigenvalues --   -1.49692  -1.48587  -1.48101  -1.47566  -1.46409
 Alpha  occ. eigenvalues --   -1.39462  -1.08389  -1.06714  -0.95515  -0.87588
 Alpha  occ. eigenvalues --   -0.85435  -0.84269  -0.78131  -0.77586  -0.75449
 Alpha  occ. eigenvalues --   -0.73614  -0.71115  -0.70889  -0.68703  -0.66631
 Alpha  occ. eigenvalues --   -0.65433  -0.65164  -0.63566  -0.61991  -0.60656
 Alpha  occ. eigenvalues --   -0.59824  -0.58495  -0.56419  -0.55962  -0.54970
 Alpha  occ. eigenvalues --   -0.53682  -0.53088  -0.52394  -0.50812  -0.49272
 Alpha  occ. eigenvalues --   -0.48915  -0.47308  -0.46596  -0.46110  -0.44386
 Alpha virt. eigenvalues --    0.03300   0.03308   0.03741   0.03884   0.05004
 Alpha virt. eigenvalues --    0.05550   0.05993   0.06323   0.07521   0.08178
 Alpha virt. eigenvalues --    0.09054   0.10374   0.10749   0.11695   0.12645

 Mulliken charges:
               1
     1  C    1.741673
     2  C    1.017747
     3  O   -1.759011
     4  C    1.334105
     5  C    0.100216
     6  C    0.905471
     7  H    0.133110
     8  O   -1.920702
     9  P    4.235521
    10  O   -1.371530
    11  O   -1.404982
    12  O   -1.379397
    13  O   -1.192445
    14  H    0.097446
    15  H    0.132965
    16  H    0.402503
    17  O   -1.552257
    18  H    0.136247
    19  H    0.314457
    20  O   -1.539219
    21  H    0.164585
    22  H    0.352560
    23  H    0.579390
    24  H    0.425034
    25  H    0.046513
 Sum of Mulliken charges =  -0.00000

 Dipole moment (field-independent basis, Debye):
    X=             -2.8456    Y=             -0.4158    Z=             -2.3747  Tot=              3.7295

 Test job not archived.
 1\1\GINC-SE045\SP\RHF\Aug-CC-pVDZ\C5H11O8P1\OHZDE\09-Apr-2025\0\\#t hf
  aug-cc-pvdz iop(5/13=1,5/36=2,99/5=2) pseudo=read geom=check guess=(r
 ead,tcheck) scf=(maxcycle=1)\\title\\0,1\C,0,0.112654,-0.631063,-0.507
 512\C,0,-1.012663,-1.464056,0.057494\O,0,-0.397333,0.679659,-0.589966\
 C,0,-1.675189,-0.491743,1.061728\C,0,-1.288429,0.915878,0.528983\C,0,-
 2.437357,1.751323,0.011515\H,0,-0.742141,1.480074,1.289172\O,0,1.18550
 4,-0.686443,0.421506\P,0,2.573969,0.101351,0.159836\O,0,3.558557,-0.10
 8968,1.215008\O,0,2.124771,1.599479,-0.103366\O,0,3.011073,-0.413059,-

 Normal termination of Gaussian 16 at Wed Apr  9 01:36:41 2025.
