 Gaussian 16, Revision C.01,

 ----------------------------------------------------------------------
 #t hf aug-cc-pvdz symm=none int=(grid=ultrafine) guess=(read,tcheck) s
 table=(opt,rrhf)
 ----------------------------------------------------------------------
 -----
 title
 -----
 Symbolic Z-matrix:
 Charge =  0 Multiplicity = 1

 SCF Done:  E(RHF) =  -1749.92548691     A.U. after   16 cycles
 Normal termination of Gaussian 16 at Wed Apr  9 01:07:29 2025.
 Gaussian 16:  ES64L-G16RevC.01  3-Jul-2019

 ----------------------------------------------------------------------
 #t hf aug-cc-pvdz iop(5/13=1,5/36=2,99/5=2) pseudo=read geom=check gue
 ss=(read,tcheck) scf=(maxcycle=1)
 ----------------------------------------------------------------------
 -----
 title
 -----
 Structure from the checkpoint file:  "BH10_277_forward_mol1.chk"
 Charge =  0 Multiplicity = 1

                         Standard orientation:
 ---------------------------------------------------------------------
 Center     Atomic      Atomic             Coordinates (Angstroms)
 Number     Number       Type             X           Y           Z
 ---------------------------------------------------------------------
      1          6           0       -3.379036    1.443455   -0.355572
      2          6           0       -2.208331    0.717348   -0.484397
      3          6           0       -2.168254   -0.622335   -0.093495
      4          6           0       -3.313915   -1.211878    0.435420
      5          6           0       -4.488861   -0.484025    0.555869
      6          6           0       -4.522990    0.844427    0.160599
      7          1           0       -3.399241    2.483728   -0.655453
      8          1           0       -1.320287    1.204618   -0.870725
      9          1           0       -3.286833   -2.249252    0.749288
     10          1           0       -5.374834   -0.954660    0.963432
     11          1           0       -5.436795    1.417200    0.259340
     12          6           0       -0.958127   -1.449403   -0.241622
     13          6           0        0.144624   -1.138828   -1.075207
     14          6           0        0.525038   -0.783440    0.405319
     15          1           0       -1.040973   -2.464953    0.124215
     16          1           0        0.096158   -0.273703   -1.722673
     17          1           0        0.773994   -1.940261   -1.438401
     18          1           0        0.074897    0.054542    0.916919
     19          1           0        0.890633   -1.578797    1.038969
     20          5           0        2.123351    0.136040    0.119655
     21         17           0        2.654863    0.475824    1.830402
     22         17           0        1.710213    1.659005   -0.811531
     23         17           0        3.259961   -0.974275   -0.772087
 ---------------------------------------------------------------------

 SCF Done:  E(RHF) =  -1750.54128523     A.U. after    2 cycles

 The electronic state is 1-A.
 Alpha  occ. eigenvalues -- -105.53619-105.53450-105.53147 -11.34188 -11.30690
 Alpha  occ. eigenvalues --  -11.28577 -11.28021 -11.27705 -11.27259 -11.27162
 Alpha  occ. eigenvalues --  -11.27016 -11.26948 -10.58624 -10.58457 -10.58149
 Alpha  occ. eigenvalues --   -7.75524  -7.75359  -7.75253  -7.75229  -7.75080
 Alpha  occ. eigenvalues --   -7.75061  -7.75053  -7.74763  -7.74748  -7.72781
 Alpha  occ. eigenvalues --   -1.22131  -1.17625  -1.08727  -1.05833  -1.05053
 Alpha  occ. eigenvalues --   -1.01681  -1.01432  -0.92593  -0.89885  -0.87188
 Alpha  occ. eigenvalues --   -0.83072  -0.76287  -0.72931  -0.69593  -0.66950
 Alpha  occ. eigenvalues --   -0.66284  -0.65281  -0.63070  -0.61171  -0.59097
 Alpha  occ. eigenvalues --   -0.58436  -0.55654  -0.54691  -0.54391  -0.53781
 Alpha  occ. eigenvalues --   -0.53103  -0.51467  -0.46078  -0.45941  -0.43420
 Alpha  occ. eigenvalues --   -0.43235  -0.42858  -0.41577  -0.37776  -0.35881
 Alpha virt. eigenvalues --    0.01720   0.02312   0.03057   0.03247   0.04172
 Alpha virt. eigenvalues --    0.04359   0.05295   0.06368   0.06803   0.07023
 Alpha virt. eigenvalues --    0.07422   0.07654   0.08359   0.09094   0.09720

 Mulliken charges:
               1
     1  C   -0.198970
     2  C    0.382902
     3  C    1.664599
     4  C    0.121715
     5  C    0.203568
     6  C    0.037311
     7  H   -0.255628
     8  H   -0.362691
     9  H   -0.304755
    10  H   -0.236883
    11  H   -0.219838
    12  C    0.172367
    13  C    0.211882
    14  C   -0.401421
    15  H   -0.354848
    16  H   -0.055191
    17  H   -0.047634
    18  H   -0.015869
    19  H   -0.055288
    20  B    1.304102
    21  Cl  -0.516739
    22  Cl  -0.532622
    23  Cl  -0.540069
 Sum of Mulliken charges =  -0.00000

 Dipole moment (field-independent basis, Debye):
    X=             -7.9499    Y=             -3.0701    Z=             -0.5739  Tot=              8.5414

 Test job not archived.
 1\1\GINC-SE462\SP\RHF\Aug-CC-pVDZ\C9H10B1Cl3\OHZDE\09-Apr-2025\0\\#t h
 f aug-cc-pvdz iop(5/13=1,5/36=2,99/5=2) pseudo=read geom=check guess=(
 read,tcheck) scf=(maxcycle=1)\\title\\0,1\C,0,-3.379036,1.443455,-0.35
 5572\C,0,-2.208331,0.717348,-0.484397\C,0,-2.168254,-0.622335,-0.09349
 5\C,0,-3.313915,-1.211878,0.43542\C,0,-4.488861,-0.484025,0.555869\C,0
 ,-4.52299,0.844427,0.160599\H,0,-3.399241,2.483728,-0.655453\H,0,-1.32
 0287,1.204618,-0.870725\H,0,-3.286833,-2.249252,0.749288\H,0,-5.374834
 ,-0.95466,0.963432\H,0,-5.436795,1.4172,0.25934\C,0,-0.958127,-1.44940

 Normal termination of Gaussian 16 at Wed Apr  9 01:07:50 2025.
