 Gaussian 16, Revision C.01,

 ----------------------------------------------------------------------
 #t hf aug-cc-pvdz symm=none int=(grid=ultrafine) guess=(read,tcheck) s
 table=(opt,rrhf)
 ----------------------------------------------------------------------
 -----
 title
 -----
 Symbolic Z-matrix:
 Charge =  0 Multiplicity = 1

 SCF Done:  E(RHF) =  -1125.27562688     A.U. after   14 cycles
 Normal termination of Gaussian 16 at Wed Apr  9 02:23:13 2025.
 Gaussian 16:  ES64L-G16RevC.01  3-Jul-2019

 ----------------------------------------------------------------------
 #t hf aug-cc-pvdz iop(5/13=1,5/36=2,99/5=2) pseudo=read geom=check gue
 ss=(read,tcheck) scf=(maxcycle=1)
 ----------------------------------------------------------------------
 -----
 title
 -----
 Structure from the checkpoint file:  "BH10_297_reverse_mol2.chk"
 Charge =  0 Multiplicity = 1

                         Standard orientation:
 ---------------------------------------------------------------------
 Center     Atomic      Atomic             Coordinates (Angstroms)
 Number     Number       Type             X           Y           Z
 ---------------------------------------------------------------------
      1          6           0        0.322445   -2.872942   -0.358443
      2          6           0       -0.252025   -1.572739    0.276385
      3          6           0        2.695845   -0.667203    0.020463
      4          1           0       -0.451653   -3.320028   -0.988516
      5          6           0        0.110365   -1.412687    1.765860
      6          1           0        3.653170   -0.172450   -0.169040
      7          1           0       -1.338087   -1.672116    0.252102
      8          6           0        1.560040   -1.678036    2.152277
      9          1           0        1.640938   -1.622450    3.242586
     10          1           0        1.821425   -2.708755    1.896297
     11          6           0        2.594407   -0.732795    1.554500
     12          1           0        2.423613    0.272322    1.949316
     13          1           0        3.577275   -1.034283    1.933319
     14          6           0        2.823634   -2.074798   -0.617978
     15          1           0        3.569121   -2.021025   -1.417409
     16          6           0        1.566756   -2.694817   -1.240529
     17          1           0        1.286929   -2.097124   -2.117198
     18          1           0        1.844061   -3.673606   -1.644419
     19          1           0        3.240269   -2.764300    0.123646
     20          1           0        0.525391   -3.607049    0.427502
     21          6           0        1.610774    0.195652   -0.667965
     22          1           0        1.905336    0.318508   -1.721729
     23         14           0        1.616284    2.030789   -0.120978
     24          6           0        0.476143    2.378345    1.330708
     25          1           0        0.811162    1.887485    2.246528
     26          1           0        0.445170    3.453855    1.527738
     27          1           0       -0.546477    2.048332    1.130628
     28          6           0        1.074691    3.106802   -1.567705
     29          1           0        1.190269    4.161984   -1.304777
     30          1           0        1.687907    2.919893   -2.453239
     31          1           0        0.031130    2.953498   -1.845860
     32          6           0        3.373703    2.548258    0.309695
     33          1           0        4.050965    2.385916   -0.532946
     34          1           0        3.395116    3.615473    0.547223
     35          1           0        3.776810    2.010588    1.169413
     36          5           0        0.169055   -0.397737   -0.681975
     37          6           0       -2.079815   -0.613886   -2.038192
     38          6           0       -3.215753   -0.637021   -1.333110
     39          6           0       -0.854460    0.177983   -1.766870
     40          6           0       -3.439390    0.165798   -0.124781
     41          8           0       -2.641433    0.896527    0.418860
     42          8           0       -4.686956   -0.010240    0.348148
     43          6           0       -5.008460    0.716115    1.535178
     44          1           0       -6.033669    0.447163    1.775541
     45          1           0       -4.337424    0.435850    2.347256
     46          1           0       -4.924407    1.788877    1.361110
     47          1           0       -4.039952   -1.268762   -1.637192
     48          1           0       -0.514604   -2.110040    2.335604
     49          1           0       -0.182632   -0.412696    2.100637
     50          1           0       -1.136595    1.143845   -1.335566
     51          1           0       -0.327112    0.384281   -2.701851
     52          1           0       -2.042967   -1.268006   -2.906163
 ---------------------------------------------------------------------

 SCF Done:  E(RHF) =  -1126.18918995     A.U. after    2 cycles

 The electronic state is 1-A.
 Alpha  occ. eigenvalues --  -69.50142 -20.58502 -20.52488 -11.38306 -11.29152
 Alpha  occ. eigenvalues --  -11.27037 -11.23619 -11.22549 -11.22404 -11.22278
 Alpha  occ. eigenvalues --  -11.21843 -11.21461 -11.21271 -11.21233 -11.20907
 Alpha  occ. eigenvalues --  -11.19968 -11.19908 -11.19285 -11.18924 -11.18247
 Alpha  occ. eigenvalues --   -7.57232  -6.17140  -3.92479  -3.92471  -3.92468
 Alpha  occ. eigenvalues --   -1.54168  -1.44380  -1.11924  -1.09718  -1.04465
 Alpha  occ. eigenvalues --   -1.04053  -1.00543  -0.98114  -0.95406  -0.93581
 Alpha  occ. eigenvalues --   -0.91990  -0.91679  -0.91125  -0.87693  -0.83536
 Alpha  occ. eigenvalues --   -0.79659  -0.78607  -0.76077  -0.71943  -0.70236
 Alpha  occ. eigenvalues --   -0.67310  -0.66967  -0.66612  -0.65136  -0.64579
 Alpha  occ. eigenvalues --   -0.62611  -0.61819  -0.60677  -0.59138  -0.58473
 Alpha  occ. eigenvalues --   -0.57905  -0.57383  -0.56992  -0.56540  -0.55782
 Alpha  occ. eigenvalues --   -0.55343  -0.54814  -0.54428  -0.53727  -0.53431
 Alpha  occ. eigenvalues --   -0.53172  -0.52589  -0.52464  -0.51892  -0.49534
 Alpha  occ. eigenvalues --   -0.49095  -0.48128  -0.46860  -0.45413  -0.45253
 Alpha  occ. eigenvalues --   -0.44942  -0.43628  -0.43293  -0.43125  -0.42098
 Alpha  occ. eigenvalues --   -0.41597  -0.41002  -0.38731  -0.36606
 Alpha virt. eigenvalues --    0.02235   0.02467   0.02763   0.03392   0.04091
 Alpha virt. eigenvalues --    0.04243   0.04358   0.04561   0.04720   0.05923
 Alpha virt. eigenvalues --    0.06400   0.06897   0.06990   0.07130   0.07309

 Mulliken charges:
               1
     1  C   -0.502907
     2  C    0.430954
     3  C   -0.265725
     4  H   -0.022663
     5  C   -0.537891
     6  H    0.058052
     7  H   -0.169900
     8  C   -0.325638
     9  H    0.014185
    10  H    0.279243
    11  C   -0.303407
    12  H    0.100360
    13  H    0.097116
    14  C   -0.493404
    15  H    0.087009
    16  C   -0.090084
    17  H    0.428832
    18  H   -0.047334
    19  H    0.167798
    20  H    0.131364
    21  C   -1.148755
    22  H   -0.056548
    23  Si   2.141182
    24  C   -0.080989
    25  H   -0.017120
    26  H   -0.148240
    27  H   -0.202801
    28  C   -0.403398
    29  H   -0.107834
    30  H    0.016910
    31  H   -0.023930
    32  C   -0.389459
    33  H   -0.048812
    34  H   -0.225389
    35  H    0.013188
    36  B    1.613542
    37  C    0.578600
    38  C    0.486945
    39  C   -1.045199
    40  C    2.488989
    41  O   -1.312861
    42  O   -1.702839
    43  C    0.162557
    44  H   -0.031621
    45  H    0.168855
    46  H    0.167741
    47  H   -0.364702
    48  H    0.036996
    49  H    0.097813
    50  H    0.423966
    51  H    0.243678
    52  H   -0.366426
 Sum of Mulliken charges =  -0.00000

 Dipole moment (field-independent basis, Debye):
    X=             -0.3629    Y=             -0.7603    Z=             -0.6319  Tot=              1.0531

 Test job not archived.
 1\1\GINC-SE074\SP\RHF\Aug-CC-pVDZ\C17H31B1O2Si1\OHZDE\09-Apr-2025\0\\#
 t hf aug-cc-pvdz iop(5/13=1,5/36=2,99/5=2) pseudo=read geom=check gues
 s=(read,tcheck) scf=(maxcycle=1)\\title\\0,1\C,0,0.322445,-2.872942,-0
 .358443\C,0,-0.252025,-1.572739,0.276385\C,0,2.695845,-0.667203,0.0204
 63\H,0,-0.451653,-3.320028,-0.988516\C,0,0.110365,-1.412687,1.76586\H,
 0,3.65317,-0.17245,-0.16904\H,0,-1.338087,-1.672116,0.252102\C,0,1.560
 04,-1.678036,2.152277\H,0,1.640938,-1.62245,3.242586\H,0,1.821425,-2.7
 08755,1.896297\C,0,2.594407,-0.732795,1.5545\H,0,2.423613,0.272322,1.9

 Normal termination of Gaussian 16 at Wed Apr  9 02:26:16 2025.
