 Gaussian 16, Revision C.01,

 ----------------------------------------------------------------------
 #t hf aug-cc-pvdz symm=none int=(grid=ultrafine) guess=(read,tcheck) s
 table=(opt,rrhf)
 ----------------------------------------------------------------------
 -----
 title
 -----
 Symbolic Z-matrix:
 Charge = -1 Multiplicity = 1

 SCF Done:  E(RHF) =  -989.813102823     A.U. after   14 cycles
 Normal termination of Gaussian 16 at Wed Apr  9 01:06:34 2025.
 Gaussian 16:  ES64L-G16RevC.01  3-Jul-2019

 ----------------------------------------------------------------------
 #t hf aug-cc-pvdz iop(5/13=1,5/36=2,99/5=2) pseudo=read geom=check gue
 ss=(read,tcheck) scf=(maxcycle=1)
 ----------------------------------------------------------------------
 -----
 title
 -----
 Structure from the checkpoint file:  "BH10_247_reverse_mol3.chk"
 Charge = -1 Multiplicity = 1

                         Standard orientation:
 ---------------------------------------------------------------------
 Center     Atomic      Atomic             Coordinates (Angstroms)
 Number     Number       Type             X           Y           Z
 ---------------------------------------------------------------------
      1          6           0        6.187026    0.737423    0.686647
      2          6           0        5.064525    1.141310   -0.275210
      3          1           0        6.916776    1.543139    0.822383
      4          1           0        6.722525   -0.139572    0.310780
      5          1           0        5.775820    0.474973    1.664364
      6          6           0        4.067881    0.048355   -0.522059
      7          6           0        2.767270    0.115797   -0.187230
      8          6           0        1.757620   -0.883647   -0.381358
      9          6           0        0.461225   -0.676412    0.021876
     10          8           0       -0.041866    0.289406    0.643840
     11         16           0       -0.692926   -2.048891   -0.494993
     12          6           0       -2.023572   -1.873065    0.736258
     13          6           0       -3.178024   -0.971091    0.323409
     14          1           0       -1.572689   -1.507107    1.659889
     15          1           0       -2.403282   -2.879811    0.918275
     16          7           0       -2.728648    0.399316    0.226925
     17          1           0       -3.985115   -1.042773    1.062002
     18          1           0       -3.594590   -1.299309   -0.634148
     19          6           0       -3.557209    1.398791   -0.093540
     20          8           0       -4.762300    1.251257   -0.291975
     21          6           0       -2.906843    2.763319   -0.195077
     22          1           0       -3.083775    3.158871   -1.196583
     23          1           0       -1.834544    2.730712   -0.000982
     24          1           0       -3.388790    3.436076    0.516514
     25          1           0       -1.714421    0.551391    0.361688
     26          1           0        4.541316    2.015447    0.126496
     27          1           0        5.523140    1.467613   -1.219891
     28          1           0        2.017352   -1.825262   -0.849774
     29          1           0        4.450005   -0.856509   -0.995510
     30          1           0        2.411567    1.029179    0.288689
 ---------------------------------------------------------------------

 SCF Done:  E(RHF) =  -990.491580592     A.U. after    2 cycles

 The electronic state is 1-A.
 Alpha  occ. eigenvalues --  -93.80496 -20.37734 -20.34929 -15.38111 -11.22682
 Alpha  occ. eigenvalues --  -11.18716 -11.15100 -11.14575 -11.12916 -11.12524
 Alpha  occ. eigenvalues --  -11.12121 -11.10204 -11.08229 -11.05170  -8.08656
 Alpha  occ. eigenvalues --   -6.06476  -6.06318  -6.06129  -1.32339  -1.28268
 Alpha  occ. eigenvalues --   -1.11291  -0.96470  -0.95712  -0.91104  -0.89401
 Alpha  occ. eigenvalues --   -0.84885  -0.80712  -0.74096  -0.70878  -0.69165
 Alpha  occ. eigenvalues --   -0.62768  -0.57964  -0.57185  -0.55504  -0.53863
 Alpha  occ. eigenvalues --   -0.51820  -0.51043  -0.49145  -0.48301  -0.47183
 Alpha  occ. eigenvalues --   -0.46151  -0.45922  -0.43940  -0.43367  -0.42054
 Alpha  occ. eigenvalues --   -0.40526  -0.39912  -0.39010  -0.38706  -0.37278
 Alpha  occ. eigenvalues --   -0.35175  -0.33544  -0.29659  -0.28341  -0.26901
 Alpha  occ. eigenvalues --   -0.24020  -0.22687  -0.12114
 Alpha virt. eigenvalues --    0.10374   0.11384   0.11723   0.11808   0.12115
 Alpha virt. eigenvalues --    0.12994   0.13226   0.13732   0.14120   0.14371
 Alpha virt. eigenvalues --    0.14557   0.15650   0.16451   0.16796   0.18506

 Mulliken charges:
               1
     1  C   -0.424247
     2  C   -0.765521
     3  H    0.088212
     4  H    0.163467
     5  H    0.150286
     6  C    0.576969
     7  C    0.442348
     8  C    0.662157
     9  C    0.379806
    10  O   -1.945128
    11  S    0.274641
    12  C   -0.516599
    13  C   -0.302532
    14  H    0.181688
    15  H    0.082163
    16  N    1.056821
    17  H    0.032651
    18  H    0.032791
    19  C    0.467842
    20  O   -1.451702
    21  C   -0.412383
    22  H    0.224812
    23  H    0.044780
    24  H    0.222355
    25  H    0.279279
    26  H    0.122628
    27  H    0.177553
    28  H   -0.233249
    29  H   -0.258199
    30  H   -0.353689
 Sum of Mulliken charges =  -1.00000

 Dipole moment (field-independent basis, Debye):
    X=              1.3587    Y=              0.5219    Z=              1.2103  Tot=              1.8930

 Test job not archived.
 1\1\GINC-SE461\SP\RHF\Aug-CC-pVDZ\C10H16N1O2S1(1-)\OHZDE\09-Apr-2025\0
 \\#t hf aug-cc-pvdz iop(5/13=1,5/36=2,99/5=2) pseudo=read geom=check g
 uess=(read,tcheck) scf=(maxcycle=1)\\title\\-1,1\C,0,6.187026,0.737423
 ,0.686647\C,0,5.064525,1.14131,-0.27521\H,0,6.916776,1.543139,0.822383
 \H,0,6.722525,-0.139572,0.31078\H,0,5.77582,0.474973,1.664364\C,0,4.06
 7881,0.048355,-0.522059\C,0,2.76727,0.115797,-0.18723\C,0,1.75762,-0.8
 83647,-0.381358\C,0,0.461225,-0.676412,0.021876\O,0,-0.041866,0.289406
 ,0.64384\S,0,-0.692926,-2.048891,-0.494993\C,0,-2.023572,-1.873065,0.7

 Normal termination of Gaussian 16 at Wed Apr  9 01:07:00 2025.
