 Gaussian 16, Revision C.01,

 ----------------------------------------------------------------------
 #t hf aug-cc-pvdz symm=none int=(grid=ultrafine) guess=(read,tcheck) s
 table=(opt,rrhf)
 ----------------------------------------------------------------------
 -----
 title
 -----
 Symbolic Z-matrix:
 Charge =  0 Multiplicity = 1

 SCF Done:  E(RHF) =  -1125.22519297     A.U. after   15 cycles
 Normal termination of Gaussian 16 at Wed Apr  9 02:21:30 2025.
 Gaussian 16:  ES64L-G16RevC.01  3-Jul-2019

 ----------------------------------------------------------------------
 #t hf aug-cc-pvdz iop(5/13=1,5/36=2,99/5=2) pseudo=read geom=check gue
 ss=(read,tcheck) scf=(maxcycle=1)
 ----------------------------------------------------------------------
 -----
 title
 -----
 Structure from the checkpoint file:  "BH10_302_forward_mol1.chk"
 Charge =  0 Multiplicity = 1

                         Standard orientation:
 ---------------------------------------------------------------------
 Center     Atomic      Atomic             Coordinates (Angstroms)
 Number     Number       Type             X           Y           Z
 ---------------------------------------------------------------------
      1          6           0        1.464571    2.484376    0.157466
      2          6           0        0.480151    1.860386    1.168136
      3          6           0       -0.897948    0.904185   -1.424954
      4          1           0        2.340174    1.837289    0.048701
      5          6           0       -0.812764    2.698229    1.295381
      6          1           0       -1.073186    2.780394    2.355545
      7          1           0       -0.614148    3.723006    0.963938
      8          1           0       -1.333241    0.415303   -2.299778
      9          1           0        0.992874    1.943797    2.130770
     10          6           0       -2.049641    2.147735    0.587386
     11          1           0       -2.325702    1.217499    1.085426
     12          1           0       -2.883527    2.833783    0.769630
     13          6           0       -1.980031    1.885449   -0.919628
     14          1           0       -2.959840    1.491812   -1.209431
     15          1           0       -1.884745    2.833709   -1.457889
     16          6           0        0.345617    1.616827   -1.998886
     17          1           0        1.133696    0.869543   -2.149727
     18          6           0        0.909043    2.800599   -1.223522
     19          1           0        1.709964    3.250542   -1.818958
     20          1           0        0.141067    3.574862   -1.140302
     21          1           0        0.081854    1.979349   -2.998572
     22          1           0        1.833045    3.422678    0.588893
     23          6           0       -0.556048   -0.230497   -0.420367
     24          1           0        0.173314   -0.862409   -0.950409
     25         14           0       -1.981186   -1.493611   -0.320221
     26          6           0       -3.506265   -1.002839    0.675878
     27          1           0       -4.212503   -1.838416    0.658197
     28          1           0       -3.286506   -0.787758    1.723493
     29          1           0       -4.017687   -0.134009    0.258262
     30          6           0       -1.399284   -3.147456    0.380788
     31          1           0       -1.340077   -3.156416    1.472085
     32          1           0       -2.121518   -3.919623    0.101606
     33          1           0       -0.426878   -3.443742   -0.020030
     34          6           0       -2.571852   -1.844896   -2.075039
     35          1           0       -3.270695   -2.685745   -2.070120
     36          1           0       -3.089689   -0.993014   -2.521061
     37          1           0       -1.739764   -2.111178   -2.732202
     38          5           0        0.191759    0.286732    0.903669
     39          6           0        1.846038   -0.460656    1.322886
     40          1           0        2.394551    0.330019    1.810056
     41          6           0        0.733331   -1.079473    1.909762
     42          1           0        0.456112   -2.027884    1.469864
     43          6           0       -0.242177   -0.360953    2.591643
     44          1           0        0.000456    0.464532    3.243852
     45          1           0       -1.185637   -0.854632    2.781370
     46          6           0        2.554681   -1.191811    0.264876
     47          8           0        2.162516   -2.196522   -0.280530
     48          8           0        3.698734   -0.575119   -0.072399
     49          6           0        4.435973   -1.173755   -1.141072
     50          1           0        3.837136   -1.192533   -2.051585
     51          1           0        5.315984   -0.550486   -1.275103
     52          1           0        4.722545   -2.192950   -0.882737
 ---------------------------------------------------------------------

 SCF Done:  E(RHF) =  -1126.13789590     A.U. after    2 cycles

 The electronic state is 1-A.
 Alpha  occ. eigenvalues --  -69.49732 -20.59057 -20.52882 -11.38789 -11.29981
 Alpha  occ. eigenvalues --  -11.29568 -11.25544 -11.25130 -11.22035 -11.21605
 Alpha  occ. eigenvalues --  -11.21465 -11.21448 -11.21236 -11.21177 -11.21148
 Alpha  occ. eigenvalues --  -11.20599 -11.20057 -11.19876 -11.19597 -11.18162
 Alpha  occ. eigenvalues --   -7.59832  -6.16745  -3.92088  -3.92086  -3.92051
 Alpha  occ. eigenvalues --   -1.54731  -1.44938  -1.16948  -1.11216  -1.04589
 Alpha  occ. eigenvalues --   -1.03934  -1.02032  -0.97696  -0.95286  -0.94737
 Alpha  occ. eigenvalues --   -0.92062  -0.91665  -0.90999  -0.87414  -0.82614
 Alpha  occ. eigenvalues --   -0.80191  -0.78718  -0.76704  -0.74258  -0.71097
 Alpha  occ. eigenvalues --   -0.68999  -0.68081  -0.67013  -0.64818  -0.64001
 Alpha  occ. eigenvalues --   -0.63466  -0.62862  -0.62265  -0.60234  -0.59443
 Alpha  occ. eigenvalues --   -0.58147  -0.57717  -0.57493  -0.56673  -0.56113
 Alpha  occ. eigenvalues --   -0.56022  -0.55744  -0.54848  -0.54152  -0.53526
 Alpha  occ. eigenvalues --   -0.53064  -0.52965  -0.52390  -0.50393  -0.49349
 Alpha  occ. eigenvalues --   -0.49048  -0.48026  -0.46745  -0.46389  -0.45386
 Alpha  occ. eigenvalues --   -0.44788  -0.44381  -0.43362  -0.43097  -0.42092
 Alpha  occ. eigenvalues --   -0.41048  -0.40529  -0.38984  -0.34975
 Alpha virt. eigenvalues --    0.02179   0.02482   0.02793   0.03344   0.04143
 Alpha virt. eigenvalues --    0.04244   0.04459   0.04529   0.04652   0.06469
 Alpha virt. eigenvalues --    0.06620   0.06832   0.06991   0.07222   0.07284

 Mulliken charges:
               1
     1  C   -0.432979
     2  C   -0.184697
     3  C    0.212300
     4  H   -0.005303
     5  C   -0.555409
     6  H    0.046587
     7  H    0.087329
     8  H    0.077814
     9  H   -0.267727
    10  C    0.043516
    11  H    0.312382
    12  H   -0.045279
    13  C   -0.444997
    14  H    0.041312
    15  H    0.055307
    16  C   -0.240164
    17  H    0.211658
    18  C   -0.303375
    19  H    0.013330
    20  H    0.306486
    21  H    0.027235
    22  H    0.083741
    23  C   -1.438693
    24  H   -0.061760
    25  Si   2.234834
    26  C   -0.281255
    27  H   -0.288177
    28  H    0.062196
    29  H    0.025184
    30  C   -0.409496
    31  H    0.056791
    32  H   -0.262756
    33  H    0.082863
    34  C   -0.344182
    35  H   -0.204131
    36  H    0.022214
    37  H   -0.031437
    38  B    2.868135
    39  C   -0.205569
    40  H   -0.421334
    41  C    0.066720
    42  H   -0.261163
    43  C   -0.080148
    44  H   -0.093566
    45  H   -0.132704
    46  C    2.838720
    47  O   -1.552607
    48  O   -1.699647
    49  C    0.159429
    50  H    0.177384
    51  H   -0.005595
    52  H    0.140686
 Sum of Mulliken charges =  -0.00000

 Dipole moment (field-independent basis, Debye):
    X=              0.9125    Y=              0.6624    Z=              1.0454  Tot=              1.5376

 Test job not archived.
 1\1\GINC-SE059\SP\RHF\Aug-CC-pVDZ\C17H31B1O2Si1\OHZDE\09-Apr-2025\0\\#
 t hf aug-cc-pvdz iop(5/13=1,5/36=2,99/5=2) pseudo=read geom=check gues
 s=(read,tcheck) scf=(maxcycle=1)\\title\\0,1\C,0,1.464571,2.484376,0.1
 57466\C,0,0.480151,1.860386,1.168136\C,0,-0.897948,0.904185,-1.424954\
 H,0,2.340174,1.837289,0.048701\C,0,-0.812764,2.698229,1.295381\H,0,-1.
 073186,2.780394,2.355545\H,0,-0.614148,3.723006,0.963938\H,0,-1.333241
 ,0.415303,-2.299778\H,0,0.992874,1.943797,2.13077\C,0,-2.049641,2.1477
 35,0.587386\H,0,-2.325702,1.217499,1.085426\H,0,-2.883527,2.833783,0.7

 Normal termination of Gaussian 16 at Wed Apr  9 02:24:44 2025.
