 Gaussian 16, Revision C.01,

 ----------------------------------------------------------------------
 #t hf aug-cc-pvdz symm=none int=(grid=ultrafine) guess=(read,tcheck) s
 table=(opt,rrhf)
 ----------------------------------------------------------------------
 -----
 title
 -----
 Symbolic Z-matrix:
 Charge =  0 Multiplicity = 1

 SCF Done:  E(RHF) =  -753.661183583     A.U. after   15 cycles
 Normal termination of Gaussian 16 at Wed Apr  9 02:26:30 2025.
 Gaussian 16:  ES64L-G16RevC.01  3-Jul-2019

 ----------------------------------------------------------------------
 #t hf aug-cc-pvdz iop(5/13=1,5/36=2,99/5=2) pseudo=read geom=check gue
 ss=(read,tcheck) scf=(maxcycle=1)
 ----------------------------------------------------------------------
 -----
 title
 -----
 Structure from the checkpoint file:  "BH10_94_reverse_mol2.chk"
 Charge =  0 Multiplicity = 1

                         Standard orientation:
 ---------------------------------------------------------------------
 Center     Atomic      Atomic             Coordinates (Angstroms)
 Number     Number       Type             X           Y           Z
 ---------------------------------------------------------------------
      1          6           0        1.262681    3.788556   -0.086695
      2          8           0        0.680117    2.490887   -0.065159
      3          1           0        0.466140    4.497817   -0.305394
      4          6           0       -0.146142   -0.830146   -0.525274
      5          6           0        1.049996   -0.123231    0.098783
      6          6           0       -1.499848   -0.201610   -0.288152
      7          6           0       -2.531029   -0.451062   -1.191476
      8          6           0       -1.775962    0.587389    0.823525
      9          6           0       -3.803736    0.061683   -0.988629
     10          6           0       -3.046817    1.104826    1.031728
     11          6           0        3.413869    0.175758    0.141059
     12          6           0       -4.067094    0.842249    0.128850
     13          6           0        2.345164   -0.730036   -0.458651
     14          6           0        2.397756   -2.208164   -0.242607
     15          6           0        1.275015   -2.905065   -0.095749
     16          6           0       -0.121702   -2.325884   -0.079045
     17          6           0       -0.756724   -2.569301    1.295297
     18          8           0        2.831304    1.491293    0.083963
     19          5           0        1.458283    1.396270    0.014424
     20          1           0       -2.330707   -1.054798   -2.070848
     21          1           0       -0.990717    0.814733    1.532343
     22          1           0       -4.589087   -0.143151   -1.706715
     23          1           0       -3.238866    1.720773    1.902410
     24          1           0        4.353255    0.190143   -0.411957
     25          1           0        3.620209   -0.077022    1.186319
     26          1           0       -5.058341    1.248379    0.290607
     27          1           0       -1.816101   -2.313217    1.295642
     28          1           0       -0.263787   -1.978060    2.070656
     29          1           0       -0.659494   -3.620647    1.575255
     30          1           0        2.037458    3.857086   -0.852248
     31          1           0        1.706261    4.026991    0.882085
     32          1           0        1.334964   -3.981142    0.045256
     33          1           0        3.357692   -2.716730   -0.254170
     34          1           0        0.014378   -0.831226   -1.609230
     35          1           0       -0.716056   -2.889832   -0.807474
     36          1           0        1.055482   -0.344362    1.179595
     37          1           0        2.361976   -0.540298   -1.542467
 ---------------------------------------------------------------------

 SCF Done:  E(RHF) =  -754.438534565     A.U. after    2 cycles

 The electronic state is 1-A.
 Alpha  occ. eigenvalues --  -20.54085 -20.54073 -11.28883 -11.28167 -11.23899
 Alpha  occ. eigenvalues --  -11.23857 -11.23835 -11.23484 -11.23449 -11.23387
 Alpha  occ. eigenvalues --  -11.23283 -11.23271 -11.23059 -11.22949 -11.22721
 Alpha  occ. eigenvalues --  -11.21837 -11.20837  -7.62200  -1.47858  -1.44298
 Alpha  occ. eigenvalues --   -1.16350  -1.13483  -1.05982  -1.03822  -1.00886
 Alpha  occ. eigenvalues --   -0.98786  -0.95913  -0.93864  -0.89762  -0.84804
 Alpha  occ. eigenvalues --   -0.83377  -0.81059  -0.79315  -0.72612  -0.72337
 Alpha  occ. eigenvalues --   -0.70279  -0.68441  -0.66691  -0.65126  -0.63837
 Alpha  occ. eigenvalues --   -0.63335  -0.62704  -0.62401  -0.61003  -0.59761
 Alpha  occ. eigenvalues --   -0.58974  -0.58596  -0.57500  -0.55832  -0.54326
 Alpha  occ. eigenvalues --   -0.52120  -0.51698  -0.50921  -0.50065  -0.49552
 Alpha  occ. eigenvalues --   -0.49165  -0.48269  -0.47554  -0.45782  -0.45655
 Alpha  occ. eigenvalues --   -0.43698  -0.42006  -0.35790  -0.33794  -0.32808
 Alpha virt. eigenvalues --    0.02694   0.02948   0.03272   0.03439   0.04268
 Alpha virt. eigenvalues --    0.04426   0.04865   0.05081   0.05480   0.06203
 Alpha virt. eigenvalues --    0.06785   0.07157   0.07661   0.07862   0.08172

 Mulliken charges:
               1
     1  C    0.358066
     2  O   -1.892656
     3  H   -0.058745
     4  C   -1.442324
     5  C    0.549400
     6  C    1.917778
     7  C   -0.081656
     8  C    0.946576
     9  C    0.184075
    10  C   -0.239394
    11  C    0.834990
    12  C    0.284335
    13  C   -0.721835
    14  C    0.694303
    15  C    0.512284
    16  C   -0.775848
    17  C   -0.354323
    18  O   -1.611614
    19  B    1.504571
    20  H   -0.422737
    21  H   -0.465915
    22  H   -0.274549
    23  H   -0.328816
    24  H    0.069853
    25  H    0.174290
    26  H   -0.247120
    27  H    0.234079
    28  H    0.213785
    29  H    0.079996
    30  H    0.166934
    31  H    0.144121
    32  H   -0.266176
    33  H   -0.263085
    34  H    0.046173
    35  H    0.102618
    36  H    0.250423
    37  H    0.178141
 Sum of Mulliken charges =  -0.00000

 Dipole moment (field-independent basis, Debye):
    X=              0.8363    Y=             -0.4443    Z=             -0.0814  Tot=              0.9505

 Test job not archived.
 1\1\GINC-SE097\SP\RHF\Aug-CC-pVDZ\C15H19B1O2\OHZDE\09-Apr-2025\0\\#t h
 f aug-cc-pvdz iop(5/13=1,5/36=2,99/5=2) pseudo=read geom=check guess=(
 read,tcheck) scf=(maxcycle=1)\\title\\0,1\C,0,1.26268,3.788556,-0.0866
 95\O,0,0.680117,2.490887,-0.065159\H,0,0.466139,4.497817,-0.305394\C,0
 ,-0.146142,-0.830146,-0.525274\C,0,1.049996,-0.123231,0.098783\C,0,-1.
 499848,-0.20161,-0.288152\C,0,-2.531029,-0.451062,-1.191476\C,0,-1.775
 962,0.587389,0.823525\C,0,-3.803736,0.061682,-0.988629\C,0,-3.046817,1
 .104826,1.031728\C,0,3.413869,0.175759,0.141059\C,0,-4.067094,0.842248

 Normal termination of Gaussian 16 at Wed Apr  9 02:27:41 2025.
