 Gaussian 16, Revision C.01,

 ----------------------------------------------------------------------
 #t hf aug-cc-pvdz symm=none int=(grid=ultrafine) guess=(read,tcheck) s
 table=opt
 ----------------------------------------------------------------------
 -----
 title
 -----
 Symbolic Z-matrix:
 Charge =  0 Multiplicity = 2

 SCF Done:  E(UHF) =  -1159.73715181     A.U. after   22 cycles
 Normal termination of Gaussian 16 at Wed Apr  9 01:04:06 2025.
 Gaussian 16:  ES64L-G16RevC.01  3-Jul-2019

 ----------------------------------------------------------------------
 #t hf aug-cc-pvdz iop(5/13=1,5/36=2,99/5=2) pseudo=read geom=check gue
 ss=(read,tcheck) scf=(maxcycle=1)
 ----------------------------------------------------------------------
 -----
 title
 -----
 Structure from the checkpoint file:  "BH10_169_forward_mol1.chk"
 Charge =  0 Multiplicity = 2

                         Standard orientation:
 ---------------------------------------------------------------------
 Center     Atomic      Atomic             Coordinates (Angstroms)
 Number     Number       Type             X           Y           Z
 ---------------------------------------------------------------------
      1          6           0       -3.002690    0.170699   -0.938358
      2         16           0       -2.476460   -1.179728    0.152689
      3          6           0       -0.658318   -1.109488   -0.039375
      4          6           0       -0.022428    0.090817    0.601391
      5          6           0       -0.203347    0.254072    2.087262
      6          6           0        0.038983    1.303312   -0.274605
      7          8           0        0.044415    1.207826   -1.491659
      8         16           0        2.827270   -0.622963    0.435593
      9          6           0        2.812408   -0.799568   -1.374204
     10          1           0       -2.779138    1.148886   -0.515535
     11          1           0       -2.531554    0.082480   -1.915536
     12          1           0       -4.082305    0.072391   -1.046559
     13          1           0        0.572515    0.885441    2.526836
     14          1           0       -0.151214   -0.716818    2.581170
     15          1           0       -1.181664    0.683494    2.320587
     16          1           0       -0.299403   -2.021959    0.438643
     17          1           0       -0.414375   -1.147854   -1.099168
     18          1           0        3.850174   -0.777107   -1.706560
     19          1           0        2.364612   -1.744561   -1.676630
     20          1           0        2.276799    0.029355   -1.834057
     21          1           0        1.351817   -0.261947    0.541189
     22          7           0        0.113107    2.509987    0.346167
     23          1           0        0.274096    3.319060   -0.231675
     24          1           0        0.201959    2.600610    1.342213
 ---------------------------------------------------------------------

 SCF Done:  E(UHF) =  -1160.23866433     A.U. after    2 cycles

 The electronic state is 2-A.
 Alpha  occ. eigenvalues --  -93.94369 -93.94332 -20.52211 -15.53968 -11.37074
 Alpha  occ. eigenvalues --  -11.29180 -11.27320 -11.25935 -11.25727 -11.25426
 Alpha  occ. eigenvalues --   -8.22451  -8.22392  -6.20981  -6.20343  -6.20135
 Alpha  occ. eigenvalues --   -6.19959  -6.19890  -6.19696  -1.47582  -1.23850
 Alpha  occ. eigenvalues --   -1.13969  -1.06697  -1.04995  -0.96478  -0.92316
 Alpha  occ. eigenvalues --   -0.87477  -0.84993  -0.80220  -0.75842  -0.69949
 Alpha  occ. eigenvalues --   -0.68602  -0.64283  -0.60625  -0.60114  -0.59610
 Alpha  occ. eigenvalues --   -0.59332  -0.58824  -0.58208  -0.56914  -0.54256
 Alpha  occ. eigenvalues --   -0.54018  -0.50618  -0.48034  -0.45995  -0.44806
 Alpha  occ. eigenvalues --   -0.44168  -0.36138  -0.35753  -0.34026
 Alpha virt. eigenvalues --    0.02545   0.03700   0.03975   0.04196   0.05257
 Alpha virt. eigenvalues --    0.05548   0.05588   0.06156   0.06933   0.08312
 Alpha virt. eigenvalues --    0.08968   0.09227   0.09781   0.10371   0.10987

  Beta  occ. eigenvalues --  -93.94301 -93.93815 -20.51737 -15.53971 -11.37352
  Beta  occ. eigenvalues --  -11.27563 -11.27304 -11.25942 -11.25781 -11.25608
  Beta  occ. eigenvalues --   -8.22371  -8.21796  -6.20183  -6.19985  -6.19827
  Beta  occ. eigenvalues --   -6.19689  -6.19367  -6.18701  -1.46662  -1.23622
  Beta  occ. eigenvalues --   -1.11798  -1.05215  -1.02913  -0.96495  -0.91349
  Beta  occ. eigenvalues --   -0.85497  -0.84194  -0.79938  -0.74852  -0.68581
  Beta  occ. eigenvalues --   -0.65041  -0.63893  -0.59985  -0.59523  -0.59144
  Beta  occ. eigenvalues --   -0.59074  -0.58304  -0.57731  -0.56682  -0.53713
  Beta  occ. eigenvalues --   -0.52282  -0.49956  -0.46388  -0.44161  -0.43778
  Beta  occ. eigenvalues --   -0.42498  -0.35119  -0.34863
  Beta virt. eigenvalues --    0.01840   0.02558   0.03721   0.03981   0.04209
  Beta virt. eigenvalues --    0.05357   0.05552   0.05610   0.06169   0.07029
  Beta virt. eigenvalues --    0.08319   0.08981   0.09294   0.09810   0.10403

 Mulliken charges and spin densities:
               1          2
     1  C   -0.695877  -0.002923
     2  S    0.494459   0.053587
     3  C   -0.448624  -0.195575
     4  C   -0.637380   1.257007
     5  C   -0.106987  -0.166604
     6  C   -0.126941  -0.209600
     7  O   -1.419379   0.113639
     8  S   -0.197995   0.513741
     9  C   -0.609605  -0.047563
    10  H    0.221162   0.003207
    11  H    0.187896   0.000462
    12  H    0.059975  -0.001171
    13  H    0.179811   0.012274
    14  H    0.147386   0.001203
    15  H    0.216618   0.026531
    16  H    0.086390   0.010508
    17  H    0.083005   0.003354
    18  H    0.073438   0.005815
    19  H    0.150702  -0.000371
    20  H    0.114324   0.010919
    21  H    1.082710  -0.383520
    22  N    0.955950  -0.007134
    23  H    0.140142   0.000263
    24  H    0.048820   0.001950
 Sum of Mulliken charges =  -0.00000   1.00000

 Dipole moment (field-independent basis, Debye):
    X=             -0.4614    Y=              2.1628    Z=              1.1148  Tot=              2.4766
                          Isotropic Fermi Contact Couplings
        Atom                 a.u.       MegaHertz       Gauss      10(-4) cm-1
     1  C(13)             -0.00132      -1.48358      -0.52938      -0.49487
     2  S(33)              0.02127       7.30636       2.60709       2.43714
     3  C(13)             -0.04227     -47.51553     -16.95472     -15.84948
     4  C(13)              0.20897     234.92455      83.82692      78.36240
     5  C(13)             -0.03492     -39.26217     -14.00972     -13.09645
     6  C(13)             -0.04566     -51.32788     -18.31507     -17.12114
     7  O(17)              0.03753     -22.74975      -8.11768      -7.58850
     8  S(33)              0.10790      37.06142      13.22444      12.36236

 1\1\GINC-SE457\SP\UHF\Aug-CC-pVDZ\C6H14N1O1S2(2)\OHZDE\09-Apr-2025\0\\
 #t hf aug-cc-pvdz iop(5/13=1,5/36=2,99/5=2) pseudo=read geom=check gue
 ss=(read,tcheck) scf=(maxcycle=1)\\title\\0,2\C,0,-3.00269,0.170699,-0
 .938358\S,0,-2.47646,-1.179728,0.152689\C,0,-0.658318,-1.109488,-0.039
 375\C,0,-0.022428,0.090817,0.601391\C,0,-0.203347,0.254072,2.087262\C,
 0,0.038983,1.303312,-0.274605\O,0,0.044415,1.207826,-1.491659\S,0,2.82
 727,-0.622963,0.435593\C,0,2.812408,-0.799568,-1.374204\H,0,-2.779138,
 1.148886,-0.515535\H,0,-2.531554,0.08248,-1.915536\H,0,-4.082305,0.072

 Normal termination of Gaussian 16 at Wed Apr  9 01:04:26 2025.
