 Gaussian 16, Revision C.01,

 ----------------------------------------------------------------------
 #t hf aug-cc-pvdz symm=none int=(grid=ultrafine) guess=(read,tcheck) s
 table=(opt,rrhf)
 ----------------------------------------------------------------------
 -----
 title
 -----
 Symbolic Z-matrix:
 Charge =  0 Multiplicity = 1

 SCF Done:  E(RHF) =  -1155.56506024     A.U. after   16 cycles
 Normal termination of Gaussian 16 at Wed Apr  9 03:00:40 2025.
 Gaussian 16:  ES64L-G16RevC.01  3-Jul-2019

 ----------------------------------------------------------------------
 #t hf aug-cc-pvdz iop(5/13=1,5/36=2,99/5=2) pseudo=read geom=check gue
 ss=(read,tcheck) scf=(maxcycle=1)
 ----------------------------------------------------------------------
 -----
 title
 -----
 Structure from the checkpoint file:  "BH10_401_forward_mol2.chk"
 Charge =  0 Multiplicity = 1

                         Standard orientation:
 ---------------------------------------------------------------------
 Center     Atomic      Atomic             Coordinates (Angstroms)
 Number     Number       Type             X           Y           Z
 ---------------------------------------------------------------------
      1          6           0       -0.114498   -2.591609   -0.405885
      2          1           0       -0.581837   -3.319622   -1.091710
      3          6           0        0.929545   -1.795482   -1.152948
      4          6           0       -0.313455    0.325631   -0.823835
      5          1           0       -0.425665    1.037071   -0.005703
      6          1           0       -0.371172    0.889338   -1.759071
      7          6           0       -1.488154   -0.667728   -0.749526
      8          1           0       -1.644391   -1.111516   -1.750025
      9          7           0       -1.107792   -1.714065    0.194347
     10          6           0        2.147976    0.222862   -0.301657
     11          6           0        1.630259   -2.313245   -2.153148
     12          6           0        3.406863   -0.529183   -0.086710
     13          6           0        3.559525   -1.505675    0.800924
     14          6           0        1.026817   -0.376281   -0.730791
     15          6           0        4.832207   -2.253863    1.039887
     16          1           0        5.145018   -2.185651    2.086031
     17          1           0        4.707995   -3.318003    0.815585
     18          1           0        5.641878   -1.869960    0.416268
     19          6           0       -2.220287   -2.452407    0.753864
     20          1           0       -2.823435   -2.938203   -0.035327
     21          1           0       -1.816906   -3.247408    1.385649
     22          6           0       -2.768984    0.043506   -0.369275
     23          6           0       -3.520986   -0.337251    0.740425
     24          6           0       -3.091006   -1.517028    1.570576
     25          1           0       -2.521400   -1.174334    2.439874
     26          1           0       -3.970161   -2.047309    1.945055
     27          1           0        0.368476   -3.158673    0.397343
     28          6           0       -4.680845    0.369843    1.053536
     29          1           0       -5.264468    0.065678    1.916087
     30          6           0       -3.207194    1.110339   -1.154075
     31          1           0       -2.636870    1.397688   -2.030188
     32          6           0       -5.099759    1.438615    0.281096
     33          1           0       -6.004446    1.975572    0.539521
     34          6           0       -4.359210    1.807529   -0.835594
     35          1           0       -4.682016    2.633574   -1.457669
     36         14           0        2.237709    2.044836    0.214318
     37          6           0        1.530110    2.214180    1.946747
     38          1           0        2.073260    1.570558    2.642962
     39          1           0        1.612301    3.243510    2.306308
     40          1           0        0.476871    1.928297    1.986611
     41          6           0        4.046117    2.555237    0.244481
     42          1           0        4.505812    2.471109   -0.743757
     43          1           0        4.136918    3.597440    0.561945
     44          1           0        4.626935    1.942399    0.936579
     45          6           0        1.343035    3.202308   -0.969602
     46          1           0        1.610270    2.988212   -2.007565
     47          1           0        0.257597    3.144007   -0.882866
     48          1           0        1.635473    4.235174   -0.760631
     49          1           0        2.384393   -1.733033   -2.669198
     50          1           0        1.480445   -3.337952   -2.475913
     51          1           0        2.698433   -1.801241    1.396770
     52          1           0        4.278853   -0.207773   -0.654774
 ---------------------------------------------------------------------

 SCF Done:  E(RHF) =  -1156.50863997     A.U. after    2 cycles

 The electronic state is 1-A.
 Alpha  occ. eigenvalues --  -69.50214 -15.48939 -11.26718 -11.26040 -11.25728
 Alpha  occ. eigenvalues --  -11.24288 -11.24106 -11.24038 -11.24013 -11.23735
 Alpha  occ. eigenvalues --  -11.23665 -11.23623 -11.23529 -11.23317 -11.23112
 Alpha  occ. eigenvalues --  -11.22526 -11.22487 -11.22375 -11.22223 -11.20987
 Alpha  occ. eigenvalues --  -11.20125 -11.19972 -11.19887  -6.17252  -3.92600
 Alpha  occ. eigenvalues --   -3.92590  -3.92579  -1.25441  -1.15923  -1.12142
 Alpha  occ. eigenvalues --   -1.07408  -1.06483  -1.05535  -1.01642  -0.99858
 Alpha  occ. eigenvalues --   -0.97419  -0.96054  -0.93370  -0.92004  -0.91881
 Alpha  occ. eigenvalues --   -0.90183  -0.86962  -0.84499  -0.82217  -0.81278
 Alpha  occ. eigenvalues --   -0.76513  -0.75152  -0.70991  -0.70048  -0.68441
 Alpha  occ. eigenvalues --   -0.66944  -0.66171  -0.64858  -0.64147  -0.62024
 Alpha  occ. eigenvalues --   -0.61616  -0.61074  -0.59715  -0.59442  -0.57840
 Alpha  occ. eigenvalues --   -0.57436  -0.57123  -0.56675  -0.56274  -0.56069
 Alpha  occ. eigenvalues --   -0.56021  -0.54407  -0.54198  -0.54021  -0.53482
 Alpha  occ. eigenvalues --   -0.53256  -0.53046  -0.52687  -0.52469  -0.50325
 Alpha  occ. eigenvalues --   -0.49628  -0.48708  -0.47460  -0.47251  -0.43848
 Alpha  occ. eigenvalues --   -0.43236  -0.42864  -0.39705  -0.38214  -0.36420
 Alpha  occ. eigenvalues --   -0.33855  -0.33100  -0.30950
 Alpha virt. eigenvalues --    0.02632   0.02889   0.03016   0.03353   0.03617
 Alpha virt. eigenvalues --    0.03697   0.04175   0.04312   0.04418   0.05587
 Alpha virt. eigenvalues --    0.05748   0.06390   0.06602   0.06872   0.07225

 Mulliken charges:
               1
     1  C   -1.448277
     2  H    0.159351
     3  C    0.958596
     4  C   -1.003880
     5  H    0.081734
     6  H    0.195079
     7  C   -2.877378
     8  H    0.144834
     9  N    2.063754
    10  C   -0.700271
    11  C    0.070456
    12  C    1.095002
    13  C    0.013371
    14  C    0.574185
    15  C   -0.851972
    16  H    0.237891
    17  H    0.245844
    18  H    0.082152
    19  C   -0.173599
    20  H    0.067727
    21  H    0.014997
    22  C    1.905771
    23  C    0.686293
    24  C   -0.459705
    25  H    0.215617
    26  H    0.127648
    27  H   -0.083438
    28  C    0.506736
    29  H   -0.343897
    30  C    0.188419
    31  H   -0.383609
    32  C   -0.106439
    33  H   -0.254455
    34  C   -0.413003
    35  H   -0.301093
    36  Si   2.538248
    37  C   -0.346082
    38  H   -0.070173
    39  H   -0.080984
    40  H   -0.010370
    41  C   -0.491384
    42  H   -0.049736
    43  H   -0.200996
    44  H    0.027725
    45  C   -0.243465
    46  H    0.022976
    47  H   -0.068811
    48  H   -0.073542
    49  H   -0.223609
    50  H   -0.315412
    51  H   -0.269982
    52  H   -0.378845
 Sum of Mulliken charges =  -0.00000

 Dipole moment (field-independent basis, Debye):
    X=             -0.5645    Y=             -0.8541    Z=             -0.1148  Tot=              1.0302

 Test job not archived.
 1\1\GINC-SE398\SP\RHF\Aug-CC-pVDZ\C21H29N1Si1\OHZDE\09-Apr-2025\0\\#t
 hf aug-cc-pvdz iop(5/13=1,5/36=2,99/5=2) pseudo=read geom=check guess=
 (read,tcheck) scf=(maxcycle=1)\\title\\0,1\C,0,-0.114498,-2.591609,-0.
 405885\H,0,-0.581837,-3.319622,-1.09171\C,0,0.929545,-1.795482,-1.1529
 48\C,0,-0.313455,0.325631,-0.823835\H,0,-0.425665,1.037071,-0.005703\H
 ,0,-0.371172,0.889338,-1.759071\C,0,-1.488154,-0.667728,-0.749526\H,0,
 -1.644391,-1.111516,-1.750025\N,0,-1.107792,-1.714065,0.194347\C,0,2.1
 47976,0.222862,-0.301657\C,0,1.630259,-2.313245,-2.153148\C,0,3.406863

 Normal termination of Gaussian 16 at Wed Apr  9 03:03:23 2025.
