 Gaussian 16, Revision C.01,

 ----------------------------------------------------------------------
 #t hf aug-cc-pvdz symm=none int=(grid=ultrafine) guess=(read,tcheck) s
 table=opt
 ----------------------------------------------------------------------
 -----
 title
 -----
 Symbolic Z-matrix:
 Charge =  0 Multiplicity = 2

 SCF Done:  E(UHF) =  -950.901328892     A.U. after   17 cycles
 Normal termination of Gaussian 16 at Wed Apr  9 01:09:43 2025.
 Gaussian 16:  ES64L-G16RevC.01  3-Jul-2019

 ----------------------------------------------------------------------
 #t hf aug-cc-pvdz iop(5/13=1,5/36=2,99/5=2) pseudo=read geom=check gue
 ss=(read,tcheck) scf=(maxcycle=1)
 ----------------------------------------------------------------------
 -----
 title
 -----
 Structure from the checkpoint file:  "BH10_181_reverse_mol2.chk"
 Charge =  0 Multiplicity = 2

                         Standard orientation:
 ---------------------------------------------------------------------
 Center     Atomic      Atomic             Coordinates (Angstroms)
 Number     Number       Type             X           Y           Z
 ---------------------------------------------------------------------
      1          7           0       -0.932927   -0.200224    0.742575
      2         16           0       -0.000908   -1.272426   -0.096452
      3          8           0        1.334627   -0.430338   -0.379956
      4          6           0        2.149793   -0.049525    0.750258
      5          6           0        3.348162    0.696479    0.198080
      6          1           0        2.449275   -0.952539    1.283540
      7          1           0        1.550356    0.583354    1.408555
      8          6           0        2.996844    1.932106   -0.548259
      9          1           0        3.904786    0.003193   -0.450203
     10          1           0        4.013345    0.925706    1.036036
     11          1           0        3.685087    2.765460   -0.589162
     12          6           0       -1.847658    0.788089    0.109495
     13          6           0       -3.045091    0.097772   -0.547003
     14          6           0       -1.076440    1.626614   -0.906413
     15          6           0       -2.317818    1.674647    1.261468
     16          1           0       -2.846764    1.089029    2.018542
     17          1           0       -3.007296    2.433879    0.889057
     18          1           0       -1.472259    2.173585    1.737250
     19          1           0       -2.724355   -0.548043   -1.362900
     20          1           0       -3.736248    0.844955   -0.942891
     21          1           0       -3.586651   -0.509221    0.183049
     22          1           0       -0.718102    1.020116   -1.737957
     23          1           0       -0.223571    2.117409   -0.435374
     24          1           0       -1.737234    2.395812   -1.309527
     25          8           0       -0.518798   -1.542702   -1.411732
     26          8           0        0.300621   -2.332870    0.837923
     27          1           0        2.140100    1.938236   -1.208315
     28          1           0       -1.323813   -0.670359    1.549885
 ---------------------------------------------------------------------

 SCF Done:  E(UHF) =  -951.540712280     A.U. after    2 cycles

 The electronic state is 2-A.
 Alpha  occ. eigenvalues --  -94.24862 -20.60053 -20.54489 -20.54264 -15.54162
 Alpha  occ. eigenvalues --  -11.30915 -11.29897 -11.24986 -11.24818 -11.24288
 Alpha  occ. eigenvalues --  -11.23266 -11.22853  -8.49219  -6.47362  -6.47225
 Alpha  occ. eigenvalues --   -6.47125  -1.61077  -1.48290  -1.45186  -1.25790
 Alpha  occ. eigenvalues --   -1.09891  -1.08440  -0.96987  -0.95762  -0.95100
 Alpha  occ. eigenvalues --   -0.89273  -0.83445  -0.80339  -0.76262  -0.73187
 Alpha  occ. eigenvalues --   -0.69379  -0.68159  -0.66595  -0.64171  -0.63329
 Alpha  occ. eigenvalues --   -0.61844  -0.60497  -0.58569  -0.58103  -0.56755
 Alpha  occ. eigenvalues --   -0.55555  -0.54587  -0.54032  -0.53333  -0.52432
 Alpha  occ. eigenvalues --   -0.51646  -0.50407  -0.49178  -0.48633  -0.48078
 Alpha  occ. eigenvalues --   -0.46884  -0.44405  -0.36899
 Alpha virt. eigenvalues --    0.03011   0.03353   0.03418   0.04190   0.04504
 Alpha virt. eigenvalues --    0.04969   0.05180   0.06288   0.06724   0.07388
 Alpha virt. eigenvalues --    0.07856   0.08234   0.08966   0.10295   0.10471

  Beta  occ. eigenvalues --  -94.24862 -20.60063 -20.54489 -20.54265 -15.54162
  Beta  occ. eigenvalues --  -11.30825 -11.29898 -11.25299 -11.24288 -11.23263
  Beta  occ. eigenvalues --  -11.22852 -11.22399  -8.49218  -6.47362  -6.47224
  Beta  occ. eigenvalues --   -6.47125  -1.61080  -1.48297  -1.45187  -1.25789
  Beta  occ. eigenvalues --   -1.09666  -1.07030  -0.96292  -0.95338  -0.93211
  Beta  occ. eigenvalues --   -0.88329  -0.81475  -0.79024  -0.76045  -0.73158
  Beta  occ. eigenvalues --   -0.69191  -0.67855  -0.66489  -0.63943  -0.62640
  Beta  occ. eigenvalues --   -0.61636  -0.60066  -0.58361  -0.57560  -0.56045
  Beta  occ. eigenvalues --   -0.55291  -0.54010  -0.53391  -0.53087  -0.52399
  Beta  occ. eigenvalues --   -0.51535  -0.50247  -0.49005  -0.48617  -0.47967
  Beta  occ. eigenvalues --   -0.46869  -0.44395
  Beta virt. eigenvalues --    0.02958   0.03385   0.03438   0.04177   0.04482
  Beta virt. eigenvalues --    0.04965   0.05170   0.06279   0.06468   0.07390
  Beta virt. eigenvalues --    0.07866   0.08076   0.08669   0.09190   0.10312

 Mulliken charges and spin densities:
               1          2
     1  N    0.482621   0.001153
     2  S    4.470114  -0.003630
     3  O   -1.765798  -0.006838
     4  C    0.264551   0.003238
     5  C   -0.462484  -0.237317
     6  H    0.110166   0.001812
     7  H    0.221003   0.005365
     8  C    0.155355   1.407579
     9  H    0.220566   0.037121
    10  H    0.148309   0.001079
    11  H   -0.065533  -0.099913
    12  C   -3.787349   0.002115
    13  C    0.225357  -0.000416
    14  C    0.430745   0.004009
    15  C    0.369151  -0.001241
    16  H    0.167436  -0.000101
    17  H    0.227200   0.000059
    18  H    0.226340  -0.001147
    19  H    0.233442  -0.000031
    20  H    0.269013  -0.000044
    21  H    0.165687  -0.000072
    22  H    0.171806   0.001092
    23  H    0.230736   0.002150
    24  H    0.169797   0.000307
    25  O   -1.597964  -0.000081
    26  O   -1.477504   0.000292
    27  H    0.003344  -0.116220
    28  H    0.193893  -0.000322
 Sum of Mulliken charges =  -0.00000   1.00000

 Dipole moment (field-independent basis, Debye):
    X=             -0.2231    Y=              4.1186    Z=              2.1570  Tot=              4.6546
                          Isotropic Fermi Contact Couplings
        Atom                 a.u.       MegaHertz       Gauss      10(-4) cm-1
     1  N(14)             -0.00003      -0.00983      -0.00351      -0.00328
     2  S(33)              0.00105       0.36049       0.12863       0.12025
     3  O(17)             -0.00234       1.41763       0.50584       0.47287
     4  C(13)              0.02162      24.29971       8.67074       8.10551
     5  C(13)             -0.05755     -64.69909     -23.08625     -21.58129
     6  H(1)              -0.00023      -1.01554      -0.36237      -0.33875
     7  H(1)              -0.00081      -3.61801      -1.29100      -1.20684
     8  C(13)              0.20920     235.18101      83.91843      78.44794

 1\1\GINC-SE220\SP\UHF\Aug-CC-pVDZ\C7H16N1O3S1(2)\OHZDE\09-Apr-2025\0\\
 #t hf aug-cc-pvdz iop(5/13=1,5/36=2,99/5=2) pseudo=read geom=check gue
 ss=(read,tcheck) scf=(maxcycle=1)\\title\\0,2\N,0,-0.932927,-0.200224,
 0.742575\S,0,-0.000908,-1.272426,-0.096452\O,0,1.334627,-0.430338,-0.3
 79956\C,0,2.149793,-0.049525,0.750258\C,0,3.348162,0.696479,0.19808\H,
 0,2.449275,-0.952539,1.28354\H,0,1.550356,0.583354,1.408555\C,0,2.9968
 44,1.932106,-0.548259\H,0,3.904786,0.003193,-0.450203\H,0,4.013345,0.9
 25706,1.036036\H,0,3.685087,2.76546,-0.589162\C,0,-1.847658,0.788089,0

 Normal termination of Gaussian 16 at Wed Apr  9 01:10:15 2025.
