 Gaussian 16, Revision C.01,

 ----------------------------------------------------------------------
 #t hf aug-cc-pvdz symm=none int=(grid=ultrafine) guess=(read,tcheck) s
 table=(opt,rrhf)
 ----------------------------------------------------------------------
 -----
 title
 -----
 Symbolic Z-matrix:
 Charge = -1 Multiplicity = 1

 SCF Done:  E(RHF) =  -459.563644599     A.U. after    8 cycles
 Normal termination of Gaussian 16 at Wed Apr  9 01:22:18 2025.
 Gaussian 16:  ES64L-G16RevC.01  3-Jul-2019

 ----------------------------------------------------------------------
 #t hf aug-cc-pvdz iop(5/13=1,5/36=2,99/5=2) pseudo=read geom=check gue
 ss=(read,tcheck) scf=(maxcycle=1)
 ----------------------------------------------------------------------
 -----
 title
 -----
 Structure from the checkpoint file:  "BH10_319_forward_mol3.chk"
 Charge = -1 Multiplicity = 1

                         Standard orientation:
 ---------------------------------------------------------------------
 Center     Atomic      Atomic             Coordinates (Angstroms)
 Number     Number       Type             X           Y           Z
 ---------------------------------------------------------------------
      1         17           0        0.000000    0.000000    0.000000
 ---------------------------------------------------------------------

 SCF Done:  E(RHF) =  -459.643879369     A.U. after    2 cycles

 The electronic state is 1-A1G.
 Alpha  occ. eigenvalues -- -105.24253 -10.28733  -7.45455  -7.45455  -7.45455
 Alpha  occ. eigenvalues --   -0.68631  -0.16063  -0.16063  -0.16063
 Alpha virt. eigenvalues --    0.32659   0.32659   0.32659   0.36338   0.73301
 Alpha virt. eigenvalues --    0.73301   0.73301   0.73301   0.73301   1.18830
 Alpha virt. eigenvalues --    1.18830   1.18830   1.44562   1.60645   1.60645

 Mulliken charges:
               1
     1  Cl  -1.000000
 Sum of Mulliken charges =  -1.00000

 Dipole moment (field-independent basis, Debye):
    X=             -0.0000    Y=             -0.0000    Z=             -0.0000  Tot=              0.0000

 Test job not archived.
 1\1\GINC-SE195\SP\RHF\Aug-CC-pVDZ\Cl1(1-)\OHZDE\09-Apr-2025\0\\#t hf a
 ug-cc-pvdz iop(5/13=1,5/36=2,99/5=2) pseudo=read geom=check guess=(rea
 d,tcheck) scf=(maxcycle=1)\\title\\-1,1\Cl,0,0.,0.,0.\\Version=ES64L-G
 16RevC.01\State=1-A1G\HF=-459.6438794\RMSD=2.745e-03\Dipole=0.,0.,0.\Q
 uadrupole=0.,0.,0.,0.,0.,0.\PG=OH [O(Cl1)]\\@

 ART, GLORY, FREEDOM FAIL, BUT NATURE STILL IS FAIR.

 Normal termination of Gaussian 16 at Wed Apr  9 01:22:19 2025.
