 Gaussian 16, Revision C.01,

 ----------------------------------------------------------------------
 #t hf aug-cc-pvdz symm=none int=(grid=ultrafine) guess=(read,tcheck) s
 table=opt
 ----------------------------------------------------------------------
 -----
 title
 -----
 Symbolic Z-matrix:
 Charge =  0 Multiplicity = 2

 SCF Done:  E(UHF) =  -676.691677250     A.U. after   20 cycles
 Normal termination of Gaussian 16 at Wed Apr  9 01:41:41 2025.
 Gaussian 16:  ES64L-G16RevC.01  3-Jul-2019

 ----------------------------------------------------------------------
 #t hf aug-cc-pvdz iop(5/13=1,5/36=2,99/5=2) pseudo=read geom=check gue
 ss=(read,tcheck) scf=(maxcycle=1)
 ----------------------------------------------------------------------
 -----
 title
 -----
 Structure from the checkpoint file:  "BH10_32_forward_mol2.chk"
 Charge =  0 Multiplicity = 2

                         Standard orientation:
 ---------------------------------------------------------------------
 Center     Atomic      Atomic             Coordinates (Angstroms)
 Number     Number       Type             X           Y           Z
 ---------------------------------------------------------------------
      1          6           0        0.501988    2.618673    0.116305
      2          6           0        0.882398    1.220784   -0.259321
      3          8           0       -0.146872    0.474675   -0.767577
      4          6           0        2.115901    0.729215   -0.178614
      5         14           0       -1.372299   -0.360107    0.016611
      6          6           0       -2.016944   -1.547901   -1.264031
      7          1           0       -2.373501   -1.011097   -2.145900
      8          1           0       -2.847619   -2.140336   -0.871847
      9          1           0       -1.233632   -2.237256   -1.586351
     10          6           0       -2.717338    0.823643    0.555162
     11          1           0       -2.376269    1.499925    1.342103
     12          1           0       -3.578210    0.273750    0.945781
     13          1           0       -3.063377    1.431506   -0.284028
     14          6           0       -0.658934   -1.243091    1.499650
     15          1           0        0.110398   -1.960279    1.205900
     16          1           0       -1.439706   -1.786562    2.038528
     17          1           0       -0.203234   -0.537617    2.198854
     18          1           0        1.370705    3.186421    0.447720
     19          1           0        0.052723    3.126065   -0.741121
     20          1           0       -0.240260    2.621772    0.919216
     21          6           0        2.521547   -0.658639   -0.575342
     22          6           0        3.035736   -1.479598    0.556509
     23          1           0        3.288169   -0.607109   -1.359105
     24          1           0        1.663562   -1.153870   -1.050304
     25          1           0        2.733796   -1.268513    1.574135
     26          1           0        3.644995   -2.355669    0.372522
     27          1           0        2.892499    1.384448    0.200054
 ---------------------------------------------------------------------

 SCF Done:  E(UHF) =  -677.140720765     A.U. after    2 cycles

 The electronic state is 2-A.
 Alpha  occ. eigenvalues --  -69.53806 -20.53219 -11.28994 -11.23326 -11.23117
 Alpha  occ. eigenvalues --  -11.22689 -11.21363 -11.20973 -11.20786 -11.20735
 Alpha  occ. eigenvalues --   -6.20455  -3.95916  -3.95763  -3.95742  -1.45113
 Alpha  occ. eigenvalues --   -1.08201  -1.02335  -0.97854  -0.93714  -0.93156
 Alpha  occ. eigenvalues --   -0.93037  -0.83212  -0.77120  -0.66929  -0.65565
 Alpha  occ. eigenvalues --   -0.63344  -0.60016  -0.59761  -0.57479  -0.57031
 Alpha  occ. eigenvalues --   -0.56642  -0.55814  -0.54983  -0.54897  -0.54542
 Alpha  occ. eigenvalues --   -0.53817  -0.52898  -0.52292  -0.50087  -0.48006
 Alpha  occ. eigenvalues --   -0.44044  -0.42182  -0.35486  -0.32993
 Alpha virt. eigenvalues --    0.03012   0.03408   0.03711   0.03865   0.05062
 Alpha virt. eigenvalues --    0.05268   0.05793   0.05896   0.06054   0.07576
 Alpha virt. eigenvalues --    0.07872   0.08317   0.08588   0.09388   0.09856

  Beta  occ. eigenvalues --  -69.53808 -20.53220 -11.29128 -11.23100 -11.23020
  Beta  occ. eigenvalues --  -11.21190 -11.20974 -11.20893 -11.20786 -11.20728
  Beta  occ. eigenvalues --   -6.20457  -3.95919  -3.95764  -3.95743  -1.45156
  Beta  occ. eigenvalues --   -1.07411  -1.00824  -0.97846  -0.93172  -0.93142
  Beta  occ. eigenvalues --   -0.91297  -0.79309  -0.76469  -0.66395  -0.65353
  Beta  occ. eigenvalues --   -0.63046  -0.59994  -0.58958  -0.57282  -0.56994
  Beta  occ. eigenvalues --   -0.56581  -0.55730  -0.54923  -0.54310  -0.53797
  Beta  occ. eigenvalues --   -0.53701  -0.52290  -0.51196  -0.49715  -0.47884
  Beta  occ. eigenvalues --   -0.44042  -0.42135  -0.33186
  Beta virt. eigenvalues --    0.03004   0.03413   0.03728   0.03898   0.05057
  Beta virt. eigenvalues --    0.05202   0.05723   0.05901   0.06056   0.07587
  Beta virt. eigenvalues --    0.07847   0.08187   0.08561   0.09226   0.09398

 Mulliken charges and spin densities:
               1          2
     1  C   -0.622778   0.016518
     2  C    1.045423  -0.083065
     3  O   -2.484751  -0.000855
     4  C    0.760583   0.093639
     5  Si   3.159237   0.002182
     6  C   -0.590768   0.001386
     7  H   -0.045252  -0.000091
     8  H   -0.048609   0.000133
     9  H   -0.010281  -0.000408
    10  C   -0.574943   0.000337
    11  H   -0.055221   0.000068
    12  H   -0.046371   0.000061
    13  H   -0.048400   0.000070
    14  C   -0.533644   0.000649
    15  H   -0.018418  -0.008773
    16  H   -0.043858  -0.000307
    17  H    0.047929   0.001084
    18  H    0.109971   0.000193
    19  H    0.246733  -0.001502
    20  H    0.205945  -0.001117
    21  C   -0.449192  -0.283909
    22  C    0.120376   1.435411
    23  H    0.141763   0.016725
    24  H    0.124885   0.033629
    25  H   -0.067315  -0.112084
    26  H   -0.071839  -0.106158
    27  H   -0.251207  -0.003814
 Sum of Mulliken charges =  -0.00000   1.00000

 Dipole moment (field-independent basis, Debye):
    X=             -0.9144    Y=              0.0252    Z=              0.7378  Tot=              1.1752
                          Isotropic Fermi Contact Couplings
        Atom                 a.u.       MegaHertz       Gauss      10(-4) cm-1
     1  C(13)              0.00331       3.71645       1.32612       1.23968
     2  C(13)             -0.01336     -15.01925      -5.35924      -5.00988
     3  O(17)              0.00114      -0.68865      -0.24573      -0.22971
     4  C(13)              0.02430      27.32093       9.74879       9.11328
     5  Si(29)            -0.00220       1.95347       0.69705       0.65161
     6  C(13)              0.00004       0.04221       0.01506       0.01408
     7  H(1)              -0.00000      -0.01049      -0.00374      -0.00350
     8  H(1)               0.00001       0.03782       0.01349       0.01261

 Normal termination of Gaussian 16 at Wed Apr  9 01:42:05 2025.
