 Gaussian 16, Revision C.01,

 ----------------------------------------------------------------------
 #t hf aug-cc-pvdz symm=none int=(grid=ultrafine) guess=(read,tcheck) s
 table=(opt,rrhf)
 ----------------------------------------------------------------------
 -----
 title
 -----
 Symbolic Z-matrix:
 Charge =  0 Multiplicity = 1

 SCF Done:  E(RHF) =  -883.990408113     A.U. after   13 cycles
 Normal termination of Gaussian 16 at Wed Apr  9 01:00:35 2025.
 Gaussian 16:  ES64L-G16RevC.01  3-Jul-2019

 ----------------------------------------------------------------------
 #t hf aug-cc-pvdz iop(5/13=1,5/36=2,99/5=2) pseudo=read geom=check gue
 ss=(read,tcheck) scf=(maxcycle=1)
 ----------------------------------------------------------------------
 -----
 title
 -----
 Structure from the checkpoint file:  "BH10_139_forward_mol2.chk"
 Charge =  0 Multiplicity = 1

                         Standard orientation:
 ---------------------------------------------------------------------
 Center     Atomic      Atomic             Coordinates (Angstroms)
 Number     Number       Type             X           Y           Z
 ---------------------------------------------------------------------
      1          8           0        2.978635    1.447167    0.592667
      2          6           0        2.730010    0.389124    0.138882
      3          6           0        1.385776   -0.191653   -0.183786
      4          6           0        0.241023    0.764244    0.123716
      5          1           0        1.306888   -1.129742    0.370676
      6          1           0        1.401687   -0.474722   -1.240778
      7          1           0        0.235043    0.992768    1.194005
      8          6           0       -1.129168    0.228435   -0.291783
      9          1           0        0.427266    1.712784   -0.386683
     10          6           0       -1.532767   -1.030759    0.482378
     11          1           0       -1.084578   -0.032758   -1.358954
     12          6           0       -2.196510    1.314033   -0.125470
     13          1           0       -2.209746    1.635760    0.923661
     14          6           0       -3.588232    0.824464   -0.519933
     15          1           0       -1.922623    2.193136   -0.716245
     16          6           0       -3.976474   -0.430606    0.258641
     17          1           0       -3.601386    0.601412   -1.593417
     18          1           0       -4.323944    1.616543   -0.357734
     19          6           0       -2.925101   -1.525188    0.091589
     20          1           0       -4.955756   -0.792302   -0.065769
     21          1           0       -4.071005   -0.180481    1.322047
     22          1           0       -2.909056   -1.852361   -0.954837
     23          1           0       -3.190079   -2.402585    0.687365
     24          1           0       -1.516544   -0.801314    1.555786
     25          1           0       -0.805555   -1.831583    0.323536
     26         17           0        4.078763   -0.757909   -0.252318
 ---------------------------------------------------------------------

 SCF Done:  E(RHF) =  -884.517143528     A.U. after    2 cycles

 The electronic state is 1-A.
 Alpha  occ. eigenvalues -- -105.57148 -20.58127 -11.41453 -11.27214 -11.24362
 Alpha  occ. eigenvalues --  -11.24008 -11.23241 -11.23022 -11.22974 -11.22873
 Alpha  occ. eigenvalues --  -11.22801 -10.62039  -7.78962  -7.78599  -7.78584
 Alpha  occ. eigenvalues --   -1.53428  -1.14523  -1.10914  -1.06679  -1.01378
 Alpha  occ. eigenvalues --   -1.00837  -0.90723  -0.84503  -0.81401  -0.77246
 Alpha  occ. eigenvalues --   -0.76590  -0.69196  -0.67521  -0.66553  -0.65597
 Alpha  occ. eigenvalues --   -0.61965  -0.61570  -0.61362  -0.57950  -0.56250
 Alpha  occ. eigenvalues --   -0.54313  -0.53655  -0.52771  -0.50822  -0.49707
 Alpha  occ. eigenvalues --   -0.48703  -0.47276  -0.46925  -0.46528  -0.44937
 Alpha  occ. eigenvalues --   -0.44269  -0.43755
 Alpha virt. eigenvalues --    0.02641   0.02868   0.03179   0.03909   0.05298
 Alpha virt. eigenvalues --    0.05458   0.05680   0.05872   0.06017   0.08434
 Alpha virt. eigenvalues --    0.08755   0.09029   0.09238   0.09471   0.10006

 Mulliken charges:
               1
     1  O   -1.170752
     2  C    0.910198
     3  C   -0.332652
     4  C    0.085747
     5  H    0.272062
     6  H    0.259911
     7  H    0.118623
     8  C   -0.635390
     9  H    0.131144
    10  C   -0.039638
    11  H    0.050291
    12  C    0.018237
    13  H    0.181618
    14  C   -0.280712
    15  H    0.065157
    16  C   -0.234790
    17  H    0.169270
    18  H    0.108267
    19  C   -0.245428
    20  H    0.095945
    21  H    0.156072
    22  H    0.168884
    23  H    0.093417
    24  H    0.151746
    25  H    0.075449
    26  Cl  -0.172677
 Sum of Mulliken charges =  -0.00000

 Dipole moment (field-independent basis, Debye):
    X=             -3.3148    Y=             -1.0719    Z=             -0.6469  Tot=              3.5434

 Test job not archived.
 1\1\GINC-SE174\SP\RHF\Aug-CC-pVDZ\C9H15Cl1O1\OHZDE\09-Apr-2025\0\\#t h
 f aug-cc-pvdz iop(5/13=1,5/36=2,99/5=2) pseudo=read geom=check guess=(
 read,tcheck) scf=(maxcycle=1)\\title\\0,1\O,0,2.978635,1.447167,0.5926
 67\C,0,2.73001,0.389124,0.138882\C,0,1.385776,-0.191653,-0.183786\C,0,
 0.241023,0.764244,0.123716\H,0,1.306888,-1.129742,0.370676\H,0,1.40168
 7,-0.474722,-1.240778\H,0,0.235043,0.992768,1.194005\C,0,-1.129168,0.2
 28435,-0.291783\H,0,0.427266,1.712784,-0.386683\C,0,-1.532767,-1.03075
 9,0.482378\H,0,-1.084578,-0.032758,-1.358954\C,0,-2.19651,1.314033,-0.

 Normal termination of Gaussian 16 at Wed Apr  9 01:00:55 2025.
