 Gaussian 16, Revision C.01,

 ----------------------------------------------------------------------
 #t hf aug-cc-pvdz symm=none int=(grid=ultrafine) guess=(read,tcheck) s
 table=opt
 ----------------------------------------------------------------------
 -----
 title
 -----
 Symbolic Z-matrix:
 Charge =  0 Multiplicity = 2

 SCF Done:  E(UHF) =  -1028.97881876     A.U. after   21 cycles
 Normal termination of Gaussian 16 at Wed Apr  9 01:15:29 2025.
 Gaussian 16:  ES64L-G16RevC.01  3-Jul-2019

 ----------------------------------------------------------------------
 #t hf aug-cc-pvdz iop(5/13=1,5/36=2,99/5=2) pseudo=read geom=check gue
 ss=(read,tcheck) scf=(maxcycle=1)
 ----------------------------------------------------------------------
 -----
 title
 -----
 Structure from the checkpoint file:  "BH10_204_forward_mol2.chk"
 Charge =  0 Multiplicity = 2

                         Standard orientation:
 ---------------------------------------------------------------------
 Center     Atomic      Atomic             Coordinates (Angstroms)
 Number     Number       Type             X           Y           Z
 ---------------------------------------------------------------------
      1          7           0        0.628076    0.446540   -0.316830
      2         16           0        1.212651   -1.113952   -0.294771
      3          8           0       -0.110507   -1.926404   -0.636038
      4          6           0       -1.036608   -2.294683    0.425033
      5          6           0       -1.858162   -1.123698    0.920454
      6          1           0       -0.465154   -2.759311    1.228304
      7          1           0       -1.660178   -3.046444   -0.056660
      8          6           0       -2.644733   -0.414003   -0.174409
      9          1           0       -1.204893   -0.410415    1.430383
     10          1           0       -2.538243   -1.514112    1.685787
     11          6           0       -3.358683    0.833695    0.331959
     12          6           0        1.496071    1.537056    0.126535
     13          6           0        1.193346    1.713366    1.630355
     14          6           0        1.010068    2.766235   -0.645768
     15          6           0        2.996766    1.325242   -0.091293
     16          1           0        3.378798    0.490750    0.496812
     17          1           0        3.525616    2.227840    0.219314
     18          1           0        3.218843    1.137198   -1.141493
     19          1           0        0.126895    1.874395    1.793037
     20          1           0        1.735527    2.589708    1.990719
     21          1           0        1.512727    0.838274    2.194920
     22          1           0       -0.061078    2.910211   -0.500040
     23          1           0        1.199713    2.646926   -1.713403
     24          1           0        1.537053    3.656475   -0.297253
     25          8           0        1.639918   -1.457721    1.047265
     26          8           0        2.082573   -1.291419   -1.427354
     27          6           0       -4.133229    1.556624   -0.763396
     28          1           0       -2.616665    1.513929    0.764778
     29          1           0       -4.038133    0.564032    1.148166
     30          1           0       -3.467777    1.863583   -1.574462
     31          1           0       -4.629330    2.451195   -0.381145
     32          1           0       -4.901191    0.909291   -1.194930
     33          1           0       -1.960488   -0.134306   -0.978479
     34          1           0       -3.375874   -1.106410   -0.608004
 ---------------------------------------------------------------------

 SCF Done:  E(UHF) =  -1029.70161224     A.U. after    2 cycles

 The electronic state is 2-A.
 Alpha  occ. eigenvalues --  -94.25134 -20.60581 -20.55553 -20.55221 -15.58250
 Alpha  occ. eigenvalues --  -11.31266 -11.29888 -11.24271 -11.24248 -11.23943
 Alpha  occ. eigenvalues --  -11.23371 -11.23168 -11.22859 -11.22554  -8.49610
 Alpha  occ. eigenvalues --   -6.47727  -6.47645  -6.47447  -1.61902  -1.48826
 Alpha  occ. eigenvalues --   -1.45994  -1.28647  -1.10552  -1.09255  -1.03626
 Alpha  occ. eigenvalues --   -0.96249  -0.96108  -0.95223  -0.89890  -0.84123
 Alpha  occ. eigenvalues --   -0.81034  -0.78343  -0.73760  -0.72564  -0.70526
 Alpha  occ. eigenvalues --   -0.68044  -0.66508  -0.65351  -0.64191  -0.63036
 Alpha  occ. eigenvalues --   -0.61233  -0.60090  -0.59982  -0.57571  -0.57301
 Alpha  occ. eigenvalues --   -0.56350  -0.55429  -0.54701  -0.53828  -0.53737
 Alpha  occ. eigenvalues --   -0.52519  -0.51690  -0.50940  -0.50206  -0.50201
 Alpha  occ. eigenvalues --   -0.48563  -0.47724  -0.47433  -0.46981  -0.46503
 Alpha  occ. eigenvalues --   -0.46213
 Alpha virt. eigenvalues --    0.02967   0.03078   0.03408   0.03579   0.04324
 Alpha virt. eigenvalues --    0.04768   0.04989   0.05648   0.06186   0.07231
 Alpha virt. eigenvalues --    0.07475   0.07726   0.08304   0.08580   0.09155

  Beta  occ. eigenvalues --  -94.25203 -20.60624 -20.55404 -20.55001 -15.54878
  Beta  occ. eigenvalues --  -11.31265 -11.30135 -11.24239 -11.24049 -11.23881
  Beta  occ. eigenvalues --  -11.23320 -11.23168 -11.22863 -11.22554  -8.49702
  Beta  occ. eigenvalues --   -6.47810  -6.47695  -6.47636  -1.61646  -1.48735
  Beta  occ. eigenvalues --   -1.45509  -1.20653  -1.10344  -1.07567  -1.03345
  Beta  occ. eigenvalues --   -0.95848  -0.95337  -0.94955  -0.89146  -0.83765
  Beta  occ. eigenvalues --   -0.80912  -0.77821  -0.73009  -0.70459  -0.69759
  Beta  occ. eigenvalues --   -0.66355  -0.65204  -0.63772  -0.63140  -0.62575
  Beta  occ. eigenvalues --   -0.60609  -0.59701  -0.57829  -0.57145  -0.56806
  Beta  occ. eigenvalues --   -0.56169  -0.54544  -0.53710  -0.53097  -0.51706
  Beta  occ. eigenvalues --   -0.51520  -0.50532  -0.50096  -0.49744  -0.49644
  Beta  occ. eigenvalues --   -0.48292  -0.47589  -0.47026  -0.46686  -0.44816
  Beta virt. eigenvalues --    0.02188   0.02978   0.03251   0.03565   0.03632
  Beta virt. eigenvalues --    0.04396   0.04863   0.05004   0.05661   0.06222
  Beta virt. eigenvalues --    0.07235   0.07478   0.07736   0.08322   0.08584

 Mulliken charges and spin densities:
               1          2
     1  N    0.836227   1.128124
     2  S    4.689287  -0.073148
     3  O   -1.761225  -0.004329
     4  C    0.322753  -0.002906
     5  C   -0.144205   0.008310
     6  H    0.227019  -0.000168
     7  H    0.009294  -0.000530
     8  C   -0.321407   0.000811
     9  H    0.093615  -0.000825
    10  H    0.121251   0.000690
    11  C   -0.205364  -0.001893
    12  C   -4.038528  -0.224008
    13  C    0.308626   0.087444
    14  C    0.223355   0.022648
    15  C    0.398981   0.025335
    16  H    0.234357   0.000236
    17  H    0.192595  -0.001846
    18  H    0.283144  -0.000049
    19  H    0.204899  -0.002677
    20  H    0.217014   0.004631
    21  H    0.176241  -0.005006
    22  H    0.168179  -0.005431
    23  H    0.191052   0.004012
    24  H    0.219185  -0.002430
    25  O   -1.632698   0.018949
    26  O   -1.600233   0.027122
    27  C   -0.414788   0.000722
    28  H    0.129366  -0.000343
    29  H    0.097082  -0.000244
    30  H    0.156731   0.000127
    31  H    0.120290   0.000066
    32  H    0.158916   0.000041
    33  H    0.208771  -0.003780
    34  H    0.130219   0.000347
 Sum of Mulliken charges =  -0.00000   1.00000

 Dipole moment (field-independent basis, Debye):
    X=             -2.4617    Y=              2.2981    Z=              1.8589  Tot=              3.8466
                          Isotropic Fermi Contact Couplings
        Atom                 a.u.       MegaHertz       Gauss      10(-4) cm-1
     1  N(14)              0.31444     101.59789      36.25265      33.88941
     2  S(33)             -0.08467     -29.08032     -10.37658      -9.70015
     3  O(17)             -0.00688       4.17011       1.48800       1.39100
     4  C(13)             -0.00010      -0.10885      -0.03884      -0.03631
     5  C(13)              0.00127       1.42425       0.50821       0.47508
     6  H(1)               0.00005       0.20667       0.07374       0.06894
     7  H(1)              -0.00009      -0.41265      -0.14725      -0.13765
     8  C(13)             -0.00062      -0.69468      -0.24788      -0.23172

 1\1\GINC-SE419\SP\UHF\Aug-CC-pVDZ\C9H20N1O3S1(2)\OHZDE\09-Apr-2025\0\\
 #t hf aug-cc-pvdz iop(5/13=1,5/36=2,99/5=2) pseudo=read geom=check gue
 ss=(read,tcheck) scf=(maxcycle=1)\\title\\0,2\N,0,0.628076,0.44654,-0.
 31683\S,0,1.212651,-1.113952,-0.294771\O,0,-0.110507,-1.926404,-0.6360
 38\C,0,-1.036608,-2.294683,0.425033\C,0,-1.858162,-1.123698,0.920454\H
 ,0,-0.465154,-2.759311,1.228304\H,0,-1.660178,-3.046444,-0.05666\C,0,-
 2.644733,-0.414003,-0.174409\H,0,-1.204893,-0.410415,1.430383\H,0,-2.5
 38243,-1.514112,1.685787\C,0,-3.358683,0.833695,0.331959\C,0,1.496071,

 Normal termination of Gaussian 16 at Wed Apr  9 01:16:18 2025.
