 Gaussian 16, Revision C.01,

 ----------------------------------------------------------------------
 #t hf aug-cc-pvdz symm=none int=(grid=ultrafine) guess=(read,tcheck) s
 table=(opt,rrhf)
 ----------------------------------------------------------------------
 -----
 title
 -----
 Symbolic Z-matrix:
 Charge =  1 Multiplicity = 1

 SCF Done:  E(RHF) =  -1233.64341337     A.U. after   14 cycles
 Normal termination of Gaussian 16 at Wed Apr  9 01:51:26 2025.
 Gaussian 16:  ES64L-G16RevC.01  3-Jul-2019

 ----------------------------------------------------------------------
 #t hf aug-cc-pvdz iop(5/13=1,5/36=2,99/5=2) pseudo=read geom=check gue
 ss=(read,tcheck) scf=(maxcycle=1)
 ----------------------------------------------------------------------
 -----
 title
 -----
 Structure from the checkpoint file:  "BH10_325_forward_mol1.chk"
 Charge =  1 Multiplicity = 1

                         Standard orientation:
 ---------------------------------------------------------------------
 Center     Atomic      Atomic             Coordinates (Angstroms)
 Number     Number       Type             X           Y           Z
 ---------------------------------------------------------------------
      1          7           0       -2.226533   -0.667593   -1.574676
      2          6           0       -3.373811   -1.131618   -0.805416
      3          6           0       -3.041896   -1.195320    0.676761
      4          1           0       -3.710459   -2.126723   -1.121973
      5          1           0       -4.215356   -0.447020   -0.947861
      6          8           0       -1.972693   -0.895213    1.126261
      7          8           0       -4.024456   -1.614571    1.476205
      8          6           0       -1.308376    1.138508   -1.097637
      9         16           0        0.126429    2.826570   -0.401844
     10          1           0       -0.544748    0.852360   -1.794449
     11          1           0       -2.123797    1.772316   -1.412601
     12          1           0       -1.280163    0.755666   -0.094230
     13          1           0       -4.829792   -1.842497    0.995999
     14          6           0        1.098153    1.737722    0.690802
     15          6           0       -0.875267    3.661187    0.851085
     16          1           0       -1.569042    4.319330    0.330714
     17          1           0       -0.234610    4.260880    1.495302
     18          1           0       -1.428293    2.934417    1.446144
     19          6           0        2.095011    0.894796   -0.086896
     20          1           0        0.413951    1.099781    1.249422
     21          1           0        1.633518    2.373516    1.397671
     22          6           0        2.729703   -0.209701    0.759987
     23          8           0        1.448717    0.230869   -1.186716
     24          1           0        2.877014    1.533669   -0.506276
     25          6           0        1.662968   -1.169936   -1.168904
     26          6           0        2.903308   -1.333139   -0.268677
     27          8           0        2.930336   -2.603931    0.342782
     28          1           0        3.800950   -1.155821   -0.866254
     29          8           0        1.827951   -0.616489    1.766033
     30          1           0        3.678214    0.115881    1.197101
     31          7           0        0.459591   -1.851520   -0.727421
     32          1           0        1.872559   -1.490582   -2.190295
     33          1           0        2.104877   -1.487674    2.076758
     34          1           0        3.810659   -2.985439    0.299365
     35          1           0       -2.430171   -0.685895   -2.568877
     36          1           0       -1.384759   -1.238048   -1.395780
     37          1           0        0.600196   -2.854850   -0.806035
     38          1           0        0.287371   -1.654897    0.257178
 ---------------------------------------------------------------------

 SCF Done:  E(RHF) =  -1234.55701950     A.U. after    2 cycles

 The electronic state is 1-A.
 Alpha  occ. eigenvalues --  -94.09490 -20.72155 -20.67583 -20.66753 -20.65958
 Alpha  occ. eigenvalues --  -20.65860 -15.65164 -15.60310 -11.52098 -11.45342
 Alpha  occ. eigenvalues --  -11.43195 -11.42384 -11.41847 -11.40886 -11.40641
 Alpha  occ. eigenvalues --  -11.38913 -11.38761  -8.37548  -6.35323  -6.35196
 Alpha  occ. eigenvalues --   -6.35048  -1.67295  -1.60556  -1.58383  -1.58195
 Alpha  occ. eigenvalues --   -1.56073  -1.34753  -1.29955  -1.24126  -1.17415
 Alpha  occ. eigenvalues --   -1.13263  -1.12530  -1.08927  -1.04792  -0.97184
 Alpha  occ. eigenvalues --   -0.96341  -0.94085  -0.91230  -0.89162  -0.86394
 Alpha  occ. eigenvalues --   -0.84115  -0.83076  -0.82417  -0.82187  -0.79826
 Alpha  occ. eigenvalues --   -0.79774  -0.78642  -0.76732  -0.75844  -0.74929
 Alpha  occ. eigenvalues --   -0.73785  -0.73048  -0.72663  -0.72080  -0.71312
 Alpha  occ. eigenvalues --   -0.70334  -0.69902  -0.69033  -0.66204  -0.65958
 Alpha  occ. eigenvalues --   -0.63999  -0.63003  -0.62759  -0.62200  -0.59783
 Alpha  occ. eigenvalues --   -0.58325  -0.57666  -0.56883  -0.56521  -0.55089
 Alpha  occ. eigenvalues --   -0.52622  -0.48852
 Alpha virt. eigenvalues --   -0.06729  -0.05555  -0.05138  -0.04914  -0.04335
 Alpha virt. eigenvalues --   -0.04196  -0.03825  -0.03293  -0.02656  -0.02190
 Alpha virt. eigenvalues --   -0.01788  -0.01090  -0.00660  -0.00508  -0.00013

 Mulliken charges:
               1
     1  N    0.277040
     2  C   -0.515594
     3  C    2.249518
     4  H    0.149798
     5  H    0.143386
     6  O   -1.188485
     7  O   -1.420542
     8  C   -0.249871
     9  S    0.242375
    10  H    0.558759
    11  H    0.071822
    12  H    0.259882
    13  H    0.423447
    14  C   -0.290623
    15  C   -0.483736
    16  H    0.171235
    17  H    0.165019
    18  H    0.178446
    19  C    0.560271
    20  H    0.271771
    21  H    0.135271
    22  C    0.946076
    23  O   -1.794805
    24  H    0.099241
    25  C   -0.387137
    26  C    1.534172
    27  O   -1.548299
    28  H    0.161850
    29  O   -1.661156
    30  H    0.157745
    31  N    0.223424
    32  H    0.012635
    33  H    0.381148
    34  H    0.326450
    35  H    0.336243
    36  H   -0.119830
    37  H    0.320077
    38  H    0.302974
 Sum of Mulliken charges =   1.00000

 Dipole moment (field-independent basis, Debye):
    X=             -2.7376    Y=              0.1793    Z=             -3.4055  Tot=              4.3731

 Test job not archived.
 1\1\GINC-SE424\SP\RHF\Aug-CC-pVDZ\C9H21N2O5S1(1+)\OHZDE\09-Apr-2025\0\
 \#t hf aug-cc-pvdz iop(5/13=1,5/36=2,99/5=2) pseudo=read geom=check gu
 ess=(read,tcheck) scf=(maxcycle=1)\\title\\1,1\N,0,-2.226533,-0.667593
 ,-1.574676\C,0,-3.373811,-1.131618,-0.805416\C,0,-3.041896,-1.19532,0.
 676761\H,0,-3.710459,-2.126723,-1.121973\H,0,-4.215356,-0.44702,-0.947
 861\O,0,-1.972693,-0.895213,1.126261\O,0,-4.024456,-1.614571,1.476205\
 C,0,-1.308376,1.138508,-1.097637\S,0,0.126429,2.82657,-0.401844\H,0,-0
 .544748,0.85236,-1.794449\H,0,-2.123797,1.772316,-1.412601\H,0,-1.2801

 Normal termination of Gaussian 16 at Wed Apr  9 01:52:33 2025.
