 Gaussian 16, Revision C.01,

 ----------------------------------------------------------------------
 #t hf aug-cc-pvdz symm=none int=(grid=ultrafine) guess=(read,tcheck) s
 table=opt
 ----------------------------------------------------------------------
 -----
 title
 -----
 Symbolic Z-matrix:
 Charge =  0 Multiplicity = 2

 SCF Done:  E(UHF) =  -1728.32606648     A.U. after   18 cycles
 Normal termination of Gaussian 16 at Wed Apr  9 02:40:26 2025.
 Gaussian 16:  ES64L-G16RevC.01  3-Jul-2019

 ----------------------------------------------------------------------
 #t hf aug-cc-pvdz iop(5/13=1,5/36=2,99/5=2) pseudo=read geom=check gue
 ss=(read,tcheck) scf=(maxcycle=1)
 ----------------------------------------------------------------------
 -----
 title
 -----
 Structure from the checkpoint file:  "BH10_292_reverse_mol2.chk"
 Charge =  0 Multiplicity = 2

                         Standard orientation:
 ---------------------------------------------------------------------
 Center     Atomic      Atomic             Coordinates (Angstroms)
 Number     Number       Type             X           Y           Z
 ---------------------------------------------------------------------
      1          6           0        0.579734   -0.259093   -2.122271
      2          6           0        1.886670    0.377810   -2.345393
      3         14           0       -0.033037   -0.010184   -0.283218
      4          9           0        2.955712   -0.252921   -1.783635
      5         14           0       -0.497521    2.268984    0.073911
      6         14           0        1.562857   -0.733586    1.287586
      7         14           0       -2.035157   -1.213585    0.010550
      8          6           0       -2.090336    2.763453   -0.807775
      9          1           0       -2.282114    3.833015   -0.682717
     10          1           0       -2.035434    2.561379   -1.880441
     11          1           0       -2.954153    2.224266   -0.413127
     12          6           0       -0.705346    2.590240    1.919694
     13          1           0       -0.993149    3.631218    2.092378
     14          1           0       -1.475905    1.954759    2.360343
     15          1           0        0.224923    2.411320    2.463380
     16          6           0        0.885450    3.382606   -0.562058
     17          1           0        0.703605    4.416421   -0.253921
     18          1           0        1.861111    3.085106   -0.172294
     19          1           0        0.941219    3.373695   -1.652950
     20          6           0        0.697040   -0.931051    2.953113
     21          1           0       -0.065493   -1.712501    2.921902
     22          1           0        1.422057   -1.210057    3.723186
     23          1           0        0.213664   -0.005837    3.273670
     24          6           0        2.313286   -2.390526    0.804380
     25          1           0        2.891765   -2.300861   -0.116725
     26          1           0        2.986102   -2.745038    1.590727
     27          1           0        1.546204   -3.153479    0.653809
     28          6           0        2.941981    0.533666    1.482158
     29          1           0        3.469695    0.684670    0.538797
     30          1           0        2.558369    1.499936    1.817725
     31          1           0        3.670839    0.192487    2.223073
     32          6           0       -1.701164   -3.050330    0.275536
     33          1           0       -1.105781   -3.219785    1.175563
     34          1           0       -2.641926   -3.595735    0.394100
     35          1           0       -1.162896   -3.493752   -0.564434
     36          6           0       -2.963527   -0.566752    1.518967
     37          1           0       -3.869900   -1.156149    1.684891
     38          1           0       -2.356557   -0.629855    2.424474
     39          1           0       -3.266779    0.474632    1.392078
     40          6           0       -3.142321   -1.004053   -1.501834
     41          1           0       -4.081615   -1.548028   -1.366783
     42          1           0       -3.388309    0.046573   -1.670783
     43          1           0       -2.670104   -1.383506   -2.410680
     44          6           0        0.575940   -1.734567   -2.548901
     45          1           0       -0.424093   -2.162140   -2.475621
     46          1           0        0.912426   -1.838172   -3.583474
     47          1           0        1.239846   -2.330199   -1.922071
     48          1           0       -0.138076    0.294029   -2.737836
     49          1           0        2.044608    1.446676   -2.410818
 ---------------------------------------------------------------------

 SCF Done:  E(UHF) =  -1729.07005950     A.U. after    2 cycles

 The electronic state is 2-A.
 Alpha  occ. eigenvalues --  -69.50560 -69.50527 -69.50101 -69.48509 -26.46190
 Alpha  occ. eigenvalues --  -11.31828 -11.23548 -11.23092 -11.21103 -11.21069
 Alpha  occ. eigenvalues --  -11.20970 -11.20940 -11.20930 -11.20886 -11.20584
 Alpha  occ. eigenvalues --  -11.20207 -11.20157  -6.17664  -6.17623  -6.17194
 Alpha  occ. eigenvalues --   -6.16010  -3.92985  -3.92980  -3.92967  -3.92949
 Alpha  occ. eigenvalues --   -3.92938  -3.92936  -3.92516  -3.92507  -3.92504
 Alpha  occ. eigenvalues --   -3.91334  -3.91220  -3.91212  -1.59114  -1.07200
 Alpha  occ. eigenvalues --   -0.98524  -0.97745  -0.97271  -0.93948  -0.93149
 Alpha  occ. eigenvalues --   -0.93003  -0.92646  -0.92416  -0.92102  -0.91920
 Alpha  occ. eigenvalues --   -0.81918  -0.73399  -0.71380  -0.68674  -0.65292
 Alpha  occ. eigenvalues --   -0.64494  -0.64106  -0.61036  -0.59100  -0.58736
 Alpha  occ. eigenvalues --   -0.58208  -0.58124  -0.57349  -0.56829  -0.56512
 Alpha  occ. eigenvalues --   -0.56258  -0.56084  -0.55827  -0.54890  -0.54818
 Alpha  occ. eigenvalues --   -0.54538  -0.54338  -0.54102  -0.54014  -0.53864
 Alpha  occ. eigenvalues --   -0.53706  -0.53566  -0.53146  -0.51675  -0.51005
 Alpha  occ. eigenvalues --   -0.45721  -0.44535  -0.44204  -0.43931  -0.43801
 Alpha  occ. eigenvalues --   -0.43348  -0.43257  -0.35484  -0.35074  -0.32531
 Alpha virt. eigenvalues --    0.02372   0.02445   0.02654   0.03346   0.04399
 Alpha virt. eigenvalues --    0.04472   0.04695   0.04830   0.05127   0.06737
 Alpha virt. eigenvalues --    0.06780   0.06970   0.07025   0.07195   0.07342

  Beta  occ. eigenvalues --  -69.50563 -69.50515 -69.50104 -69.48437 -26.45808
  Beta  occ. eigenvalues --  -11.29211 -11.23820 -11.22979 -11.21103 -11.21068
  Beta  occ. eigenvalues --  -11.20974 -11.20931 -11.20926 -11.20886 -11.20581
  Beta  occ. eigenvalues --  -11.20209 -11.20156  -6.17668  -6.17605  -6.17199
  Beta  occ. eigenvalues --   -6.15897  -3.92987  -3.92982  -3.92977  -3.92934
  Beta  occ. eigenvalues --   -3.92927  -3.92902  -3.92519  -3.92515  -3.92507
  Beta  occ. eigenvalues --   -3.91178  -3.91157  -3.91073  -1.57848  -1.05635
  Beta  occ. eigenvalues --   -0.98481  -0.97702  -0.97263  -0.93151  -0.93015
  Beta  occ. eigenvalues --   -0.92697  -0.92512  -0.92131  -0.91954  -0.90561
  Beta  occ. eigenvalues --   -0.79728  -0.72765  -0.70526  -0.65021  -0.64556
  Beta  occ. eigenvalues --   -0.63816  -0.62909  -0.60517  -0.58978  -0.58546
  Beta  occ. eigenvalues --   -0.58152  -0.58092  -0.57306  -0.56782  -0.56431
  Beta  occ. eigenvalues --   -0.56229  -0.56015  -0.55731  -0.54870  -0.54794
  Beta  occ. eigenvalues --   -0.54490  -0.54303  -0.54090  -0.53858  -0.53703
  Beta  occ. eigenvalues --   -0.53657  -0.53551  -0.53129  -0.51272  -0.50393
  Beta  occ. eigenvalues --   -0.44894  -0.44523  -0.44186  -0.43877  -0.43471
  Beta  occ. eigenvalues --   -0.43347  -0.40545  -0.35152  -0.34997
  Beta virt. eigenvalues --    0.02336   0.02435   0.02620   0.03337   0.04399
  Beta virt. eigenvalues --    0.04476   0.04675   0.04817   0.05118   0.06732
  Beta virt. eigenvalues --    0.06783   0.06974   0.07022   0.07178   0.07286

 Mulliken charges and spin densities:
               1          2
     1  C   -0.355900  -0.310426
     2  C    0.858965   1.354571
     3  Si   2.978808  -0.037552
     4  F   -0.863105   0.004706
     5  Si   1.204689  -0.011809
     6  Si   1.466761  -0.015274
     7  Si   1.360642   0.054606
     8  C   -0.347362   0.000391
     9  H   -0.193378   0.000011
    10  H   -0.062394   0.000861
    11  H   -0.105574   0.000702
    12  C   -0.192022   0.001228
    13  H   -0.152299   0.000187
    14  H   -0.099297  -0.000237
    15  H   -0.104661   0.000664
    16  C   -0.337929   0.003898
    17  H   -0.206916   0.000969
    18  H   -0.086547   0.003971
    19  H   -0.062035   0.004002
    20  C   -0.258243   0.001401
    21  H   -0.133344   0.000609
    22  H   -0.188361   0.000976
    23  H   -0.080551   0.000360
    24  C   -0.364753   0.001093
    25  H   -0.027215  -0.000067
    26  H   -0.212815  -0.000345
    27  H   -0.085628   0.000776
    28  C   -0.323375   0.002236
    29  H   -0.109578  -0.000573
    30  H   -0.119365   0.001310
    31  H   -0.162694   0.000316
    32  C   -0.325454  -0.003168
    33  H   -0.109155   0.000444
    34  H   -0.183653   0.000641
    35  H   -0.105518  -0.000003
    36  C   -0.253713   0.006948
    37  H   -0.223842   0.002560
    38  H   -0.084008  -0.001491
    39  H   -0.120569  -0.001666
    40  C   -0.344861  -0.006905
    41  H   -0.176937  -0.000071
    42  H   -0.118616   0.000503
    43  H   -0.099447   0.000399
    44  C   -0.375540   0.052276
    45  H    0.015245   0.003385
    46  H    0.085332  -0.001409
    47  H    0.091285  -0.003329
    48  H   -0.186161   0.004491
    49  H   -0.118915  -0.117165
 Sum of Mulliken charges =  -0.00000   1.00000

 Dipole moment (field-independent basis, Debye):
    X=             -1.4052    Y=              0.5573    Z=             -0.0107  Tot=              1.5117
                          Isotropic Fermi Contact Couplings
        Atom                 a.u.       MegaHertz       Gauss      10(-4) cm-1
     1  C(13)             -0.05118     -57.53142     -20.52864     -19.19042
     2  C(13)              0.29497     331.60445     118.32471     110.61134
     3  Si(29)             0.08844     -78.60050     -28.04661     -26.21831
     4  F(19)              0.05619     236.41385      84.35834      78.85917
     5  Si(29)            -0.00397       3.53017       1.25965       1.17754
     6  Si(29)            -0.00334       2.96823       1.05914       0.99009
     7  Si(29)             0.01464     -13.01202      -4.64301      -4.34034
     8  C(13)             -0.00005      -0.05590      -0.01995      -0.01865

 1\1\GINC-SE187\SP\UHF\Aug-CC-pVDZ\C12H32F1Si4(2)\OHZDE\09-Apr-2025\0\\
 #t hf aug-cc-pvdz iop(5/13=1,5/36=2,99/5=2) pseudo=read geom=check gue
 ss=(read,tcheck) scf=(maxcycle=1)\\title\\0,2\C,0,0.579734,-0.259093,-
 2.122271\C,0,1.88667,0.377812,-2.345393\Si,0,-0.033037,-0.010184,-0.28
 3218\F,0,2.955712,-0.252919,-1.783635\Si,0,-0.497523,2.268983,0.073911
 \Si,0,1.562858,-0.733585,1.287586\Si,0,-2.035156,-1.213587,0.01055\C,0
 ,-2.090338,2.763451,-0.807775\H,0,-2.282117,3.833013,-0.682717\H,0,-2.
 035436,2.561377,-1.880441\H,0,-2.954155,2.224263,-0.413127\C,0,-0.7053

 Normal termination of Gaussian 16 at Wed Apr  9 02:43:08 2025.
