 Gaussian 16, Revision C.01,

 ----------------------------------------------------------------------
 #t hf aug-cc-pvdz symm=none int=(grid=ultrafine) guess=(read,tcheck) s
 table=opt
 ----------------------------------------------------------------------
 -----
 title
 -----
 Symbolic Z-matrix:
 Charge =  0 Multiplicity = 2

 SCF Done:  E(UHF) =  -515.207450593     A.U. after   15 cycles
 Normal termination of Gaussian 16 at Wed Apr  9 00:57:09 2025.
 Gaussian 16:  ES64L-G16RevC.01  3-Jul-2019

 ----------------------------------------------------------------------
 #t hf aug-cc-pvdz iop(5/13=1,5/36=2,99/5=2) pseudo=read geom=check gue
 ss=(read,tcheck) scf=(maxcycle=1)
 ----------------------------------------------------------------------
 -----
 title
 -----
 Structure from the checkpoint file:  "BH10_143_reverse_mol2.chk"
 Charge =  0 Multiplicity = 2

                         Standard orientation:
 ---------------------------------------------------------------------
 Center     Atomic      Atomic             Coordinates (Angstroms)
 Number     Number       Type             X           Y           Z
 ---------------------------------------------------------------------
      1         16           0        1.814164   -0.091051   -0.000045
      2          6           0        0.125264    0.534687    0.000012
      3          6           0       -0.969256   -0.524014    0.000001
      4          6           0       -2.363119    0.095118    0.000062
      5          1           0        0.037731    1.194577   -0.870616
      6          1           0        0.037781    1.194503    0.870703
      7          1           0       -0.842793   -1.166971    0.874839
      8          1           0       -0.842841   -1.166905   -0.874892
      9          1           0       -2.519053    0.721376   -0.882372
     10          1           0       -2.519008    0.721306    0.882553
     11          1           0       -3.135772   -0.675813    0.000051
 ---------------------------------------------------------------------

 SCF Done:  E(UHF) =  -515.394440361     A.U. after    2 cycles

 The electronic state is 2-A.
 Alpha  occ. eigenvalues --  -93.96214 -11.27175 -11.23936 -11.23239  -8.24285
 Alpha  occ. eigenvalues --   -6.23462  -6.21700  -6.21391  -1.10631  -1.01629
 Alpha  occ. eigenvalues --   -0.88898  -0.81142  -0.66158  -0.60128  -0.57548
 Alpha  occ. eigenvalues --   -0.57320  -0.50951  -0.49578  -0.47730  -0.43057
 Alpha  occ. eigenvalues --   -0.37439
 Alpha virt. eigenvalues --    0.03618   0.04073   0.04182   0.04988   0.07122
 Alpha virt. eigenvalues --    0.07474   0.07944   0.08221   0.11490   0.13167
 Alpha virt. eigenvalues --    0.14899   0.15127   0.15702   0.16152   0.16851

  Beta  occ. eigenvalues --  -93.95324 -11.27304 -11.23934 -11.23245  -8.23262
  Beta  occ. eigenvalues --   -6.21180  -6.20855  -6.19502  -1.09188  -0.98595
  Beta  occ. eigenvalues --   -0.85624  -0.79070  -0.65274  -0.59907  -0.56786
  Beta  occ. eigenvalues --   -0.56195  -0.50879  -0.49121  -0.46684  -0.35258
  Beta virt. eigenvalues --    0.01032   0.03633   0.04080   0.04445   0.05054
  Beta virt. eigenvalues --    0.07143   0.07493   0.08352   0.08359   0.11573
  Beta virt. eigenvalues --    0.13193   0.15183   0.15748   0.16059   0.16230

 Mulliken charges and spin densities:
               1          2
     1  S    0.289350   1.089362
     2  C   -0.816160  -0.131044
     3  C   -0.319040   0.004993
     4  C   -0.372587  -0.000671
     5  H    0.212170   0.022391
     6  H    0.212185   0.022392
     7  H    0.185072  -0.002844
     8  H    0.185071  -0.002843
     9  H    0.154795  -0.000563
    10  H    0.154793  -0.000563
    11  H    0.114351  -0.000610
 Sum of Mulliken charges =  -0.00000   1.00000

 Dipole moment (field-independent basis, Debye):
    X=             -1.8643    Y=              0.5229    Z=              0.0001  Tot=              1.9362
                          Isotropic Fermi Contact Couplings
        Atom                 a.u.       MegaHertz       Gauss      10(-4) cm-1
     1  S(33)              0.17723      60.87464      21.72159      20.30560
     2  C(13)             -0.02586     -29.07706     -10.37542      -9.69906
     3  C(13)             -0.00041      -0.46037      -0.16427      -0.15356
     4  C(13)             -0.00148      -1.66437      -0.59389      -0.55517
     5  H(1)               0.01226      54.77937      19.54664      18.27243
     6  H(1)               0.01226      54.78361      19.54815      18.27384
     7  H(1)              -0.00031      -1.36570      -0.48731      -0.45555
     8  H(1)              -0.00031      -1.36572      -0.48732      -0.45556

 Normal termination of Gaussian 16 at Wed Apr  9 00:57:12 2025.
