 Gaussian 16, Revision C.01,

 ----------------------------------------------------------------------
 #t hf aug-cc-pvdz symm=none int=(grid=ultrafine) guess=(read,tcheck) s
 table=(opt,rrhf)
 ----------------------------------------------------------------------
 -----
 title
 -----
 Symbolic Z-matrix:
 Charge =  0 Multiplicity = 1

 SCF Done:  E(RHF) =  -551.328546707     A.U. after   13 cycles
 Normal termination of Gaussian 16 at Wed Apr  9 01:02:08 2025.
 Gaussian 16:  ES64L-G16RevC.01  3-Jul-2019

 ----------------------------------------------------------------------
 #t hf aug-cc-pvdz iop(5/13=1,5/36=2,99/5=2) pseudo=read geom=check gue
 ss=(read,tcheck) scf=(maxcycle=1)
 ----------------------------------------------------------------------
 -----
 title
 -----
 Structure from the checkpoint file:  "BH10_276_forward_mol2.chk"
 Charge =  0 Multiplicity = 1

                         Standard orientation:
 ---------------------------------------------------------------------
 Center     Atomic      Atomic             Coordinates (Angstroms)
 Number     Number       Type             X           Y           Z
 ---------------------------------------------------------------------
      1          6           0        0.009810   -1.233927    0.000056
      2          6           0        1.264980   -0.712711    0.000056
      3          6           0        1.264980    0.712711    0.000002
      4          6           0        0.009810    1.233927   -0.000061
      5          1           0        2.160727    1.317889   -0.000002
      6          1           0        2.160727   -1.317889    0.000102
      7          1           0       -0.280932   -2.272534    0.000097
      8         16           0       -1.191067   -0.000000   -0.000025
      9          1           0       -0.280934    2.272534   -0.000118
 ---------------------------------------------------------------------

 SCF Done:  E(RHF) =  -551.546805051     A.U. after    2 cycles

 The electronic state is 1-A.
 Alpha  occ. eigenvalues --  -93.97698 -11.27003 -11.26951 -11.24627 -11.24568
 Alpha  occ. eigenvalues --   -8.25932  -6.23702  -6.23608  -6.23398  -1.19054
 Alpha  occ. eigenvalues --   -1.00657  -0.99224  -0.78103  -0.76084  -0.71412
 Alpha  occ. eigenvalues --   -0.59077  -0.56544  -0.54006  -0.53462  -0.48556
 Alpha  occ. eigenvalues --   -0.35518  -0.33850
 Alpha virt. eigenvalues --    0.03663   0.03824   0.04416   0.05643   0.08204
 Alpha virt. eigenvalues --    0.09676   0.11810   0.11931   0.13893   0.14058
 Alpha virt. eigenvalues --    0.14211   0.14428   0.14507   0.14524   0.15795

 Mulliken charges:
               1
     1  C   -0.628645
     2  C    0.502191
     3  C    0.502192
     4  C   -0.628646
     5  H   -0.109672
     6  H   -0.109672
     7  H   -0.145837
     8  S    0.763928
     9  H   -0.145837
 Sum of Mulliken charges =  -0.00000

 Dipole moment (field-independent basis, Debye):
    X=              0.7996    Y=              0.0000    Z=              0.0000  Tot=              0.7996

 Test job not archived.
 1\1\GINC-SE455\SP\RHF\Aug-CC-pVDZ\C4H4S1\OHZDE\09-Apr-2025\0\\#t hf au
 g-cc-pvdz iop(5/13=1,5/36=2,99/5=2) pseudo=read geom=check guess=(read
 ,tcheck) scf=(maxcycle=1)\\title\\0,1\C,0,0.00981,-1.233927,0.000056\C
 ,0,1.26498,-0.712711,0.000056\C,0,1.26498,0.712711,0.000002\C,0,0.0098
 1,1.233927,-0.000061\H,0,2.160727,1.317889,-0.000002\H,0,2.160727,-1.3
 17889,0.000102\H,0,-0.280933,-2.272534,0.000097\S,0,-1.191067,0.,-0.00
 0025\H,0,-0.280934,2.272534,-0.000118\\Version=ES64L-G16RevC.01\State=
 1-A\HF=-551.5468051\RMSD=2.257e-02\Dipole=0.3145748,0.,0.0000076\Quadr

 Normal termination of Gaussian 16 at Wed Apr  9 01:02:12 2025.
