 Gaussian 16, Revision C.01,

 ----------------------------------------------------------------------
 #t hf aug-cc-pvdz symm=none int=(grid=ultrafine) guess=(read,tcheck) s
 table=opt
 ----------------------------------------------------------------------
 -----
 title
 -----
 Symbolic Z-matrix:
 Charge =  0 Multiplicity = 2

 SCF Done:  E(UHF) =  -733.731012268     A.U. after   14 cycles
 Normal termination of Gaussian 16 at Wed Apr  9 00:55:32 2025.
 Gaussian 16:  ES64L-G16RevC.01  3-Jul-2019

 ----------------------------------------------------------------------
 #t hf aug-cc-pvdz iop(5/13=1,5/36=2,99/5=2) pseudo=read geom=check gue
 ss=(read,tcheck) scf=(maxcycle=1)
 ----------------------------------------------------------------------
 -----
 title
 -----
 Structure from the checkpoint file:  "BH10_107_forward_mol3.chk"
 Charge =  0 Multiplicity = 2

                         Standard orientation:
 ---------------------------------------------------------------------
 Center     Atomic      Atomic             Coordinates (Angstroms)
 Number     Number       Type             X           Y           Z
 ---------------------------------------------------------------------
      1         16           0       -1.479997   -0.040421    0.000067
      2          6           0        0.323519   -0.004107    0.000003
      3          9           0        0.716912    1.275611   -0.001235
      4          9           0        0.849204   -0.601553   -1.073285
      5          9           0        0.849311   -0.599459    1.074399
 ---------------------------------------------------------------------

 SCF Done:  E(UHF) =  -734.087335644     A.U. after    2 cycles

 The electronic state is 2-A.
 Alpha  occ. eigenvalues --  -94.02371 -26.52998 -26.52439 -26.52437 -11.55978
 Alpha  occ. eigenvalues --   -8.30541  -6.29704  -6.27922  -6.27551  -1.74180
 Alpha  occ. eigenvalues --   -1.63950  -1.63366  -1.11358  -0.94104  -0.83596
 Alpha  occ. eigenvalues --   -0.83200  -0.78626  -0.71063  -0.70535  -0.65962
 Alpha  occ. eigenvalues --   -0.65599  -0.63836  -0.55182  -0.50788  -0.44415
 Alpha virt. eigenvalues --    0.06203   0.09046   0.09654   0.10282   0.10402
 Alpha virt. eigenvalues --    0.11793   0.12420   0.19391   0.23138   0.23396
 Alpha virt. eigenvalues --    0.24835   0.28442   0.29283   0.29715   0.30296

  Beta  occ. eigenvalues --  -94.01454 -26.52865 -26.52421 -26.52418 -11.56114
  Beta  occ. eigenvalues --   -8.29487  -6.27419  -6.27008  -6.25599  -1.74063
  Beta  occ. eigenvalues --   -1.63691  -1.63323  -1.05484  -0.92109  -0.83184
  Beta  occ. eigenvalues --   -0.83184  -0.76089  -0.70486  -0.70369  -0.65676
  Beta  occ. eigenvalues --   -0.65540  -0.63742  -0.53935  -0.42075
  Beta virt. eigenvalues --   -0.03868   0.06441   0.09072   0.10338   0.10621
  Beta virt. eigenvalues --    0.10954   0.12485   0.12987   0.20716   0.23433
  Beta virt. eigenvalues --    0.23626   0.25391   0.30104   0.30262   0.30466

 Mulliken charges and spin densities:
               1          2
     1  S    0.272728   1.077508
     2  C    1.486231  -0.074261
     3  F   -0.592332  -0.005741
     4  F   -0.583316   0.001244
     5  F   -0.583312   0.001250
 Sum of Mulliken charges =  -0.00000   1.00000

 Dipole moment (field-independent basis, Debye):
    X=             -0.9944    Y=             -0.0744    Z=              0.0001  Tot=              0.9972
                          Isotropic Fermi Contact Couplings
        Atom                 a.u.       MegaHertz       Gauss      10(-4) cm-1
     1  S(33)              0.19410      66.66701      23.78845      22.23772
     2  C(13)             -0.02811     -31.60121     -11.27610     -10.54103
     3  F(19)              0.02320      97.61738      34.83231      32.56165
     4  F(19)              0.00131       5.52069       1.96992       1.84150
     5  F(19)              0.00130       5.47483       1.95356       1.82621
 --------------------------------------------------------
       Center         ----  Spin Dipole Couplings  ----
                      3XX-RR        3YY-RR        3ZZ-RR

 Normal termination of Gaussian 16 at Wed Apr  9 00:55:34 2025.
