 Gaussian 16, Revision C.01,

 ----------------------------------------------------------------------
 #t hf aug-cc-pvdz symm=none int=(grid=ultrafine) guess=(read,tcheck) s
 table=(opt,rrhf)
 ----------------------------------------------------------------------
 -----
 title
 -----
 Symbolic Z-matrix:
 Charge =  0 Multiplicity = 1

 SCF Done:  E(RHF) =  -650.918896874     A.U. after   13 cycles
 Normal termination of Gaussian 16 at Wed Apr  9 00:55:02 2025.
 Gaussian 16:  ES64L-G16RevC.01  3-Jul-2019

 ----------------------------------------------------------------------
 #t hf aug-cc-pvdz iop(5/13=1,5/36=2,99/5=2) pseudo=read geom=check gue
 ss=(read,tcheck) scf=(maxcycle=1)
 ----------------------------------------------------------------------
 -----
 title
 -----
 Structure from the checkpoint file:  "BH10_101_reverse_mol3.chk"
 Charge =  0 Multiplicity = 1

                         Standard orientation:
 ---------------------------------------------------------------------
 Center     Atomic      Atomic             Coordinates (Angstroms)
 Number     Number       Type             X           Y           Z
 ---------------------------------------------------------------------
      1          8           0        0.097064    1.505759   -0.000109
      2          6           0       -0.078181    0.340958   -0.000036
      3          6           0        0.953957   -0.749306    0.000119
      4          6           0        2.375359   -0.209268    0.000208
      5          1           0        0.753805   -1.379177   -0.870721
      6          1           0        0.753656   -1.379079    0.870994
      7          1           0        2.562884    0.405812   -0.880212
      8          1           0        3.087380   -1.035381    0.000322
      9          1           0        2.562731    0.405924    0.880582
     10         17           0       -1.764928   -0.315205   -0.000108
 ---------------------------------------------------------------------

 SCF Done:  E(RHF) =  -651.191650397     A.U. after    2 cycles

 The electronic state is 1-A.
 Alpha  occ. eigenvalues -- -105.57455 -20.58377 -11.41688 -11.27900 -11.24933
 Alpha  occ. eigenvalues --  -10.62357  -7.79278  -7.78913  -7.78896  -1.53677
 Alpha  occ. eigenvalues --   -1.11643  -1.06021  -0.91651  -0.77255  -0.69637
 Alpha  occ. eigenvalues --   -0.67202  -0.66563  -0.58215  -0.57509  -0.55047
 Alpha  occ. eigenvalues --   -0.52431  -0.47331  -0.47233  -0.44832
 Alpha virt. eigenvalues --    0.03148   0.04335   0.04429   0.05363   0.07389
 Alpha virt. eigenvalues --    0.09086   0.10629   0.11639   0.11741   0.12619
 Alpha virt. eigenvalues --    0.13211   0.14998   0.15603   0.16465   0.16508

 Mulliken charges:
               1
     1  O   -1.056193
     2  C    0.755612
     3  C   -0.361439
     4  C   -0.223382
     5  H    0.267648
     6  H    0.267640
     7  H    0.167365
     8  H    0.147526
     9  H    0.167363
    10  Cl  -0.132139
 Sum of Mulliken charges =   0.00000

 Dipole moment (field-independent basis, Debye):
    X=              2.1879    Y=             -2.1755    Z=              0.0003  Tot=              3.0854

 Test job not archived.
 1\1\GINC-SE403\SP\RHF\Aug-CC-pVDZ\C3H5Cl1O1\OHZDE\09-Apr-2025\0\\#t hf
  aug-cc-pvdz iop(5/13=1,5/36=2,99/5=2) pseudo=read geom=check guess=(r
 ead,tcheck) scf=(maxcycle=1)\\title\\0,1\O,0,-0.097064,1.505759,0.0001
 09\C,0,0.078181,0.340958,0.000036\C,0,-0.953957,-0.749306,-0.000119\C,
 0,-2.375359,-0.209268,-0.000208\H,0,-0.753805,-1.379177,0.870721\H,0,-
 0.753656,-1.379079,-0.870994\H,0,-2.562884,0.405812,0.880212\H,0,-3.08
 738,-1.035382,-0.000322\H,0,-2.562731,0.405924,-0.880582\Cl,0,1.764928
 ,-0.315204,0.000108\\Version=ES64L-G16RevC.01\State=1-A\HF=-651.191650

 Normal termination of Gaussian 16 at Wed Apr  9 00:55:05 2025.
