 Gaussian 16, Revision C.01,

 ----------------------------------------------------------------------
 #t hf aug-cc-pvdz symm=none int=(grid=ultrafine) guess=(read,tcheck) s
 table=(opt,rrhf)
 ----------------------------------------------------------------------
 -----
 title
 -----
 Symbolic Z-matrix:
 Charge = -1 Multiplicity = 1

 SCF Done:  E(RHF) =  -2156.63189468     A.U. after   15 cycles
 Normal termination of Gaussian 16 at Wed Apr  9 02:03:24 2025.
 Gaussian 16:  ES64L-G16RevC.01  3-Jul-2019

 ----------------------------------------------------------------------
 #t hf aug-cc-pvdz iop(5/13=1,5/36=2,99/5=2) pseudo=read geom=check gue
 ss=(read,tcheck) scf=(maxcycle=1)
 ----------------------------------------------------------------------
 -----
 title
 -----
 Structure from the checkpoint file:  "BH10_327_forward_mol1.chk"
 Charge = -1 Multiplicity = 1

                         Standard orientation:
 ---------------------------------------------------------------------
 Center     Atomic      Atomic             Coordinates (Angstroms)
 Number     Number       Type             X           Y           Z
 ---------------------------------------------------------------------
      1         16           0        1.935179    1.744099   -1.726279
      2          6           0        0.412093    2.700630   -1.393279
      3         16           0        0.791111   -0.340574   -1.512202
      4          6           0        1.628290   -0.813193    0.043847
      5          6           0        2.758714   -1.829717   -0.127660
      6          1           0        0.870303   -1.223736    0.708328
      7          1           0        2.034461    0.095376    0.482803
      8          6           0       -0.088861    2.640884    0.060191
      9          1           0       -0.382115    2.299882   -2.022909
     10          1           0        0.574852    3.738221   -1.691233
     11          7           0        2.281407   -3.065859   -0.714267
     12          6           0        3.420088   -2.024745    1.227667
     13          1           0        3.531523   -1.396099   -0.766364
     14          8           0        4.549633   -1.715705    1.509033
     15          8           0        2.603805   -2.609743    2.131547
     16          7           0       -1.443137    3.163251    0.146566
     17          6           0        0.812103    3.388541    1.041642
     18          1           0       -0.040929    1.587816    0.366617
     19          8           0        0.379600    4.123059    1.894231
     20          8           0        2.119508    3.156668    0.939741
     21         16           0       -0.931264   -2.144426   -1.169906
     22          6           0       -1.972877   -0.917718   -0.315059
     23          6           0       -3.396971   -1.399525   -0.114601
     24          1           0       -1.988922   -0.006057   -0.911156
     25          1           0       -1.548224   -0.668624    0.661482
     26          7           0       -3.435441   -2.539114    0.798265
     27          6           0       -4.266798   -0.289673    0.436952
     28          1           0       -3.814985   -1.636822   -1.106324
     29          8           0       -3.973758    0.871119    0.549803
     30          8           0       -5.499227   -0.736148    0.774100
     31          1           0        2.310635    2.596413    0.141876
     32          1           0        3.101398   -2.670252    2.957853
     33          1           0       -5.986043    0.026484    1.114889
     34          1           0       -2.130295    2.418014    0.127767
     35          1           0       -1.548824    3.679353    1.012661
     36          1           0        1.344287   -3.300330   -0.405196
     37          1           0        2.911522   -3.842200   -0.567818
     38          1           0       -4.333816   -3.004589    0.768123
     39          1           0       -2.716232   -3.193283    0.503003
 ---------------------------------------------------------------------

 SCF Done:  E(RHF) =  -2157.78493415     A.U. after    2 cycles

 The electronic state is 1-A.
 Alpha  occ. eigenvalues --  -93.87235 -93.80696 -93.77250 -20.52158 -20.51763
 Alpha  occ. eigenvalues --  -20.47314 -20.45805 -20.45589 -20.42039 -15.39905
 Alpha  occ. eigenvalues --  -15.39328 -15.37344 -11.30777 -11.30343 -11.27655
 Alpha  occ. eigenvalues --  -11.18989 -11.18771 -11.17274 -11.16876 -11.15497
 Alpha  occ. eigenvalues --  -11.14381  -8.14459  -8.08748  -8.05296  -6.12174
 Alpha  occ. eigenvalues --   -6.11965  -6.11690  -6.06528  -6.06399  -6.06258
 Alpha  occ. eigenvalues --   -6.03119  -6.02940  -6.02804  -1.47177  -1.46791
 Alpha  occ. eigenvalues --   -1.42788  -1.37338  -1.36908  -1.33827  -1.10763
 Alpha  occ. eigenvalues --   -1.10668  -1.08482  -0.97621  -0.94407  -0.93891
 Alpha  occ. eigenvalues --   -0.88398  -0.85670  -0.83435  -0.76687  -0.74742
 Alpha  occ. eigenvalues --   -0.72984  -0.71248  -0.70475  -0.67818  -0.63899
 Alpha  occ. eigenvalues --   -0.63324  -0.63019  -0.62287  -0.61793  -0.60237
 Alpha  occ. eigenvalues --   -0.59496  -0.57857  -0.57587  -0.55781  -0.55038
 Alpha  occ. eigenvalues --   -0.54357  -0.53218  -0.52289  -0.51199  -0.50507
 Alpha  occ. eigenvalues --   -0.49747  -0.47978  -0.47088  -0.46084  -0.45707
 Alpha  occ. eigenvalues --   -0.45478  -0.43740  -0.43441  -0.40006  -0.39753
 Alpha  occ. eigenvalues --   -0.39440  -0.38097  -0.37923  -0.36867  -0.35596
 Alpha  occ. eigenvalues --   -0.35240  -0.33511  -0.33025  -0.32577  -0.32293
 Alpha  occ. eigenvalues --   -0.30982  -0.26117  -0.22980  -0.20644  -0.16785
 Alpha virt. eigenvalues --    0.09676   0.10194   0.11311   0.11708   0.12134
 Alpha virt. eigenvalues --    0.12732   0.13194   0.14013   0.14621   0.14774
 Alpha virt. eigenvalues --    0.15493   0.15955   0.16669   0.17007   0.17561

 Mulliken charges:
               1
     1  S   -0.386799
     2  C   -0.181942
     3  S   -0.069981
     4  C    0.274099
     5  C   -1.420442
     6  H    0.203266
     7  H   -0.040802
     8  C   -2.079119
     9  H    0.206798
    10  H    0.108290
    11  N    0.583568
    12  C    2.570058
    13  H    0.073234
    14  O   -1.343534
    15  O   -1.369461
    16  N    1.012151
    17  C    2.424671
    18  H    0.216129
    19  O   -1.442184
    20  O   -1.522938
    21  S   -0.262591
    22  C   -0.993091
    23  C   -0.998829
    24  H    0.037769
    25  H    0.208105
    26  N    0.510128
    27  C    2.482902
    28  H    0.267325
    29  O   -1.262913
    30  O   -1.472481
    31  H    0.801064
    32  H    0.391411
    33  H    0.383586
    34  H    0.133105
    35  H    0.204379
    36  H    0.306566
    37  H    0.136992
    38  H    0.142879
    39  H    0.168635
 Sum of Mulliken charges =  -1.00000

 Dipole moment (field-independent basis, Debye):
    X=             -3.9097    Y=             -4.6944    Z=              2.3978  Tot=              6.5630

 Test job not archived.
 1\1\GINC-SE227\SP\RHF\Aug-CC-pVDZ\C9H18N3O6S3(1-)\OHZDE\09-Apr-2025\0\
 \#t hf aug-cc-pvdz iop(5/13=1,5/36=2,99/5=2) pseudo=read geom=check gu
 ess=(read,tcheck) scf=(maxcycle=1)\\title\\-1,1\S,0,1.935179,1.744099,
 -1.726279\C,0,0.412094,2.70063,-1.393279\S,0,0.791111,-0.340574,-1.512
 202\C,0,1.62829,-0.813193,0.043847\C,0,2.758714,-1.829718,-0.12766\H,0
 ,0.870303,-1.223736,0.708328\H,0,2.034461,0.095375,0.482803\C,0,-0.088
 86,2.640884,0.060191\H,0,-0.382114,2.299882,-2.022909\H,0,0.574853,3.7
 38221,-1.691233\N,0,2.281406,-3.06586,-0.714267\C,0,3.420088,-2.024746

 Normal termination of Gaussian 16 at Wed Apr  9 02:04:52 2025.
