 Gaussian 16, Revision C.01,

 ----------------------------------------------------------------------
 #t hf aug-cc-pvdz symm=none int=(grid=ultrafine) guess=(read,tcheck) s
 table=opt
 ----------------------------------------------------------------------
 -----
 title
 -----
 Symbolic Z-matrix:
 Charge =  0 Multiplicity = 2

 SCF Done:  E(UHF) =  -759.107537711     A.U. after   16 cycles
 Normal termination of Gaussian 16 at Wed Apr  9 01:23:25 2025.
 Gaussian 16:  ES64L-G16RevC.01  3-Jul-2019

 ----------------------------------------------------------------------
 #t hf aug-cc-pvdz iop(5/13=1,5/36=2,99/5=2) pseudo=read geom=check gue
 ss=(read,tcheck) scf=(maxcycle=1)
 ----------------------------------------------------------------------
 -----
 title
 -----
 Structure from the checkpoint file:  "BH10_287_reverse_mol2.chk"
 Charge =  0 Multiplicity = 2

                         Standard orientation:
 ---------------------------------------------------------------------
 Center     Atomic      Atomic             Coordinates (Angstroms)
 Number     Number       Type             X           Y           Z
 ---------------------------------------------------------------------
      1         14           0        1.444292   -0.002664    0.049038
      2          6           0        1.563014   -1.428156   -1.177528
      3          6           0        2.251247   -2.684392   -0.634156
      4          6           0        0.553579    1.438578   -0.779833
      5          6           0        0.490299    2.724122    0.051159
      6          6           0        3.169690    0.535681    0.594089
      7          6           0        4.065672    1.035093   -0.544500
      8          6           0        0.474312   -0.576709    1.585594
      9          6           0       -0.874172   -1.080415    1.235355
     10          6           0       -2.074053   -0.198758    1.184682
     11          6           0       -3.020487   -0.509214    0.024277
     12          6           0       -5.187683    0.073445   -1.169138
     13          6           0       -4.253325    0.386936   -0.006301
     14          1           0        0.548424   -1.673130   -1.508570
     15          1           0        2.088224   -1.072770   -2.070718
     16          1           0        1.721699   -3.087181    0.233048
     17          1           0        2.296073   -3.478196   -1.383607
     18          1           0        3.277387   -2.476349   -0.319978
     19          1           0       -0.457674    1.110854   -1.041998
     20          1           0        1.051104    1.641238   -1.734628
     21          1           0       -0.049879    3.517595   -0.470862
     22          1           0       -0.015230    2.562995    1.006762
     23          1           0        1.489817    3.104780    0.275769
     24          1           0        3.650595   -0.305904    1.104184
     25          1           0        3.064889    1.316313    1.355311
     26          1           0        4.221558    0.260966   -1.300243
     27          1           0        3.626299    1.898186   -1.051452
     28          1           0        5.051078    1.338315   -0.182505
     29          1           0       -2.643966   -0.277321    2.125337
     30          1           0       -1.760076    0.849643    1.126498
     31          1           0       -2.474863   -0.411426   -0.921107
     32          1           0       -3.332968   -1.558021    0.086301
     33          1           0       -5.545260   -0.958496   -1.118572
     34          1           0       -6.061656    0.728310   -1.170307
     35          1           0       -4.677252    0.198320   -2.127915
     36          1           0       -3.935046    1.433747   -0.063147
     37          1           0       -4.796118    0.285428    0.939736
     38          1           0       -0.996974   -2.129367    0.985349
     39          1           0        1.076144   -1.348196    2.078052
     40          1           0        0.415014    0.269693    2.280538
 ---------------------------------------------------------------------

 SCF Done:  E(UHF) =  -759.666843255     A.U. after    2 cycles

 The electronic state is 2-A.
 Alpha  occ. eigenvalues --  -69.49358 -11.22485 -11.22480 -11.22443 -11.22387
 Alpha  occ. eigenvalues --  -11.22270 -11.22199 -11.22167 -11.21940 -11.20630
 Alpha  occ. eigenvalues --  -11.20613 -11.20593 -11.20499  -6.16576  -3.91951
 Alpha  occ. eigenvalues --   -3.91849  -3.91844  -1.09587  -1.04931  -1.03019
 Alpha  occ. eigenvalues --   -1.01328  -1.00720  -0.96443  -0.88042  -0.85489
 Alpha  occ. eigenvalues --   -0.83689  -0.82441  -0.79668  -0.78021  -0.65569
 Alpha  occ. eigenvalues --   -0.65487  -0.62285  -0.61775  -0.61654  -0.59730
 Alpha  occ. eigenvalues --   -0.59048  -0.58440  -0.57586  -0.57301  -0.55295
 Alpha  occ. eigenvalues --   -0.55196  -0.53703  -0.53005  -0.51513  -0.51187
 Alpha  occ. eigenvalues --   -0.50670  -0.50016  -0.49527  -0.49324  -0.48400
 Alpha  occ. eigenvalues --   -0.47879  -0.47046  -0.46473  -0.44145  -0.40776
 Alpha  occ. eigenvalues --   -0.40651  -0.29891
 Alpha virt. eigenvalues --    0.02611   0.02687   0.03058   0.03680   0.04234
 Alpha virt. eigenvalues --    0.04512   0.04652   0.05230   0.05593   0.06371
 Alpha virt. eigenvalues --    0.06726   0.06936   0.07474   0.08303   0.08417

  Beta  occ. eigenvalues --  -69.49289 -11.22530 -11.22482 -11.22439 -11.22386
  Beta  occ. eigenvalues --  -11.22265 -11.22069 -11.21941 -11.20910 -11.20621
  Beta  occ. eigenvalues --  -11.20564 -11.20502 -11.20021  -6.16465  -3.91812
  Beta  occ. eigenvalues --   -3.91791  -3.91715  -1.08351  -1.04226  -1.01550
  Beta  occ. eigenvalues --   -1.01319  -1.00612  -0.95962  -0.87367  -0.85465
  Beta  occ. eigenvalues --   -0.83606  -0.82438  -0.79357  -0.74036  -0.65207
  Beta  occ. eigenvalues --   -0.64667  -0.61922  -0.61610  -0.61388  -0.59474
  Beta  occ. eigenvalues --   -0.58469  -0.57869  -0.57413  -0.57198  -0.54881
  Beta  occ. eigenvalues --   -0.54668  -0.53394  -0.52677  -0.51313  -0.50672
  Beta  occ. eigenvalues --   -0.50283  -0.49926  -0.49443  -0.48922  -0.48345
  Beta  occ. eigenvalues --   -0.47496  -0.46673  -0.46027  -0.42032  -0.40762
  Beta  occ. eigenvalues --   -0.40471
  Beta virt. eigenvalues --    0.02621   0.02699   0.03059   0.03688   0.04241
  Beta virt. eigenvalues --    0.04513   0.04660   0.05232   0.05580   0.06372
  Beta virt. eigenvalues --    0.06734   0.06931   0.07480   0.08252   0.08422

 Mulliken charges and spin densities:
               1          2
     1  Si   2.919337  -0.002986
     2  C   -0.423764  -0.001106
     3  C   -0.501180   0.004418
     4  C   -0.351032  -0.012045
     5  C   -0.485358   0.004027
     6  C   -0.500327   0.004760
     7  C   -0.451715   0.000522
     8  C   -0.357488  -0.264672
     9  C    0.685176   1.633953
    10  C   -0.440081  -0.355322
    11  C   -0.531635   0.054984
    12  C   -0.400620   0.000484
    13  C   -0.150163  -0.000758
    14  H   -0.041499  -0.003265
    15  H   -0.111354  -0.006116
    16  H    0.121266   0.000354
    17  H    0.086330   0.000932
    18  H    0.128788   0.000050
    19  H   -0.161616  -0.003295
    20  H   -0.096118  -0.006038
    21  H    0.102513   0.000210
    22  H    0.140495   0.000476
    23  H    0.100775  -0.000223
    24  H   -0.078889  -0.000355
    25  H   -0.083625  -0.000412
    26  H    0.129005  -0.000554
    27  H    0.118597   0.000009
    28  H    0.074630   0.000823
    29  H    0.190916   0.038214
    30  H   -0.036478   0.000352
    31  H    0.160902   0.007282
    32  H    0.104509  -0.004116
    33  H    0.163396  -0.000146
    34  H    0.111829   0.000535
    35  H    0.157920  -0.000004
    36  H    0.106563   0.000328
    37  H    0.102999  -0.001294
    38  H   -0.338368  -0.103420
    39  H   -0.057920   0.003766
    40  H   -0.106717   0.009651
 Sum of Mulliken charges =  -0.00000   1.00000

 Dipole moment (field-independent basis, Debye):
    X=              0.0665    Y=              0.1196    Z=             -0.0701  Tot=              0.1537
                          Isotropic Fermi Contact Couplings
        Atom                 a.u.       MegaHertz       Gauss      10(-4) cm-1
     1  Si(29)             0.10040     -89.22403     -31.83735     -29.76193
     2  C(13)             -0.00172      -1.93478      -0.69038      -0.64537
     3  C(13)              0.00014       0.15442       0.05510       0.05151
     4  C(13)             -0.00179      -2.01072      -0.71748      -0.67070
     5  C(13)              0.00039       0.43369       0.15475       0.14466
     6  C(13)              0.00570       6.40635       2.28595       2.13693
     7  C(13)              0.00131       1.47680       0.52696       0.49261
     8  C(13)             -0.05784     -65.02678     -23.20317     -21.69060

 Normal termination of Gaussian 16 at Wed Apr  9 01:24:27 2025.
