 Gaussian 16, Revision C.01,

 ----------------------------------------------------------------------
 #t hf aug-cc-pvdz symm=none int=(grid=ultrafine) guess=(read,tcheck) s
 table=(opt,rrhf)
 ----------------------------------------------------------------------
 -----
 title
 -----
 Symbolic Z-matrix:
 Charge =  1 Multiplicity = 1

 SCF Done:  E(RHF) =  -465.335381584     A.U. after   13 cycles
 Normal termination of Gaussian 16 at Wed Apr  9 01:00:09 2025.
 Gaussian 16:  ES64L-G16RevC.01  3-Jul-2019

 ----------------------------------------------------------------------
 #t hf aug-cc-pvdz iop(5/13=1,5/36=2,99/5=2) pseudo=read geom=check gue
 ss=(read,tcheck) scf=(maxcycle=1)
 ----------------------------------------------------------------------
 -----
 title
 -----
 Structure from the checkpoint file:  "BH10_134_forward_mol2.chk"
 Charge =  1 Multiplicity = 1

                         Standard orientation:
 ---------------------------------------------------------------------
 Center     Atomic      Atomic             Coordinates (Angstroms)
 Number     Number       Type             X           Y           Z
 ---------------------------------------------------------------------
      1          9           0        2.633259   -0.000029   -0.000047
      2          7           0        1.244324   -0.000008   -0.000019
      3          6           0        0.792095   -0.729374   -1.226229
      4          6           0       -0.736200   -0.894168   -1.123632
      5          6           0       -1.290797    0.000030    0.000007
      6          6           0        0.792132    1.426666   -0.018561
      7          6           0       -0.736200    1.420245   -0.212443
      8          6           0       -2.811523    0.000004   -0.000070
      9          1           0       -3.202346   -1.015156    0.092436
     10          6           0        0.792120   -0.697233    1.244802
     11          6           0       -0.736213   -0.526100    1.336194
     12          1           0        1.335850   -1.671701   -1.239432
     13          1           0        1.109501   -0.123034   -2.072644
     14          1           0       -0.989513   -1.936695   -0.926199
     15          1           0       -1.187477   -0.626329   -2.078986
     16          1           0        1.335845    1.909253   -0.828075
     17          1           0        1.109593    1.856523    0.929727
     18          1           0       -0.989664    1.770693   -1.213914
     19          1           0       -1.187415    2.113561    0.497357
     20          1           0       -3.202307    0.427426   -0.925515
     21          1           0       -3.202428    0.587720    0.832775
     22          1           0        1.335827   -0.237432    2.067472
     23          1           0        1.109574   -1.733413    1.142990
     24          1           0       -0.989665    0.165947    2.140457
     25          1           0       -1.187451   -1.487465    1.581698
 ---------------------------------------------------------------------

 SCF Done:  E(RHF) =  -465.815046149     A.U. after    2 cycles

 The electronic state is 1-A.
 Alpha  occ. eigenvalues --  -26.69300 -15.88665 -11.46646 -11.46646 -11.46622
 Alpha  occ. eigenvalues --  -11.41120 -11.40440 -11.40440 -11.40382 -11.36397
 Alpha  occ. eigenvalues --   -1.82579  -1.47801  -1.28350  -1.23724  -1.23723
 Alpha  occ. eigenvalues --   -1.11618  -1.07851  -1.07850  -1.02044  -0.95758
 Alpha  occ. eigenvalues --   -0.91320  -0.91320  -0.87686  -0.83890  -0.83890
 Alpha  occ. eigenvalues --   -0.77716  -0.77716  -0.77570  -0.77280  -0.75271
 Alpha  occ. eigenvalues --   -0.75270  -0.72708  -0.72708  -0.67681  -0.67681
 Alpha  occ. eigenvalues --   -0.66620  -0.63621  -0.62099  -0.62099
 Alpha virt. eigenvalues --   -0.07757  -0.06660  -0.06660  -0.06188  -0.05128
 Alpha virt. eigenvalues --   -0.05127  -0.04323  -0.04323  -0.03545  -0.01500
 Alpha virt. eigenvalues --   -0.00374  -0.00374  -0.00222   0.00126   0.00126

 Mulliken charges:
               1
     1  F   -0.740680
     2  N    1.636201
     3  C   -0.407928
     4  C    0.135551
     5  C   -2.302627
     6  C   -0.407842
     7  C    0.135496
     8  C    0.537854
     9  H    0.230189
    10  C   -0.407782
    11  C    0.135508
    12  H    0.158505
    13  H    0.179237
    14  H    0.196524
    15  H    0.131091
    16  H    0.158462
    17  H    0.179213
    18  H    0.196400
    19  H    0.131163
    20  H    0.230134
    21  H    0.230144
    22  H    0.158465
    23  H    0.179225
    24  H    0.196341
    25  H    0.131157
 Sum of Mulliken charges =   1.00000

 Dipole moment (field-independent basis, Debye):
    X=              0.5324    Y=              0.0001    Z=              0.0001  Tot=              0.5324

 Test job not archived.
 1\1\GINC-SE365\SP\RHF\Aug-CC-pVDZ\C8H15F1N1(1+)\OHZDE\09-Apr-2025\0\\#
 t hf aug-cc-pvdz iop(5/13=1,5/36=2,99/5=2) pseudo=read geom=check gues
 s=(read,tcheck) scf=(maxcycle=1)\\title\\1,1\F,0,-2.633259,0.000029,-0
 .000047\N,0,-1.244324,0.000008,-0.000019\C,0,-0.792095,0.727693,-1.227
 227\C,0,0.7362,0.892628,-1.124856\C,0,1.290797,-0.00003,0.000007\C,0,-
 0.792132,-1.42669,-0.016607\C,0,0.7362,-1.420535,-0.210497\C,0,2.81152
 3,-0.000004,-0.00007\H,0,3.202346,1.015281,0.091046\C,0,-0.79212,0.698
 938,1.243846\C,0,0.736213,0.52793,1.335472\H,0,-1.33585,1.670002,-1.24

 Normal termination of Gaussian 16 at Wed Apr  9 01:00:25 2025.
