 Gaussian 16, Revision C.01,

 ----------------------------------------------------------------------
 #t hf aug-cc-pvdz symm=none int=(grid=ultrafine) guess=(read,tcheck) s
 table=(opt,rrhf)
 ----------------------------------------------------------------------
 -----
 title
 -----
 Symbolic Z-matrix:
 Charge =  0 Multiplicity = 1

 SCF Done:  E(RHF) =  -1437.75244194     A.U. after   14 cycles
 Normal termination of Gaussian 16 at Wed Apr  9 01:39:03 2025.
 Gaussian 16:  ES64L-G16RevC.01  3-Jul-2019

 ----------------------------------------------------------------------
 #t hf aug-cc-pvdz iop(5/13=1,5/36=2,99/5=2) pseudo=read geom=check gue
 ss=(read,tcheck) scf=(maxcycle=1)
 ----------------------------------------------------------------------
 -----
 title
 -----
 Structure from the checkpoint file:  "BH10_327_reverse_mol2.chk"
 Charge =  0 Multiplicity = 1

                         Standard orientation:
 ---------------------------------------------------------------------
 Center     Atomic      Atomic             Coordinates (Angstroms)
 Number     Number       Type             X           Y           Z
 ---------------------------------------------------------------------
      1         16           0       -1.400889    1.532448    0.529859
      2          6           0       -2.370379    0.591278   -0.719603
      3         16           0        0.152158    2.361155   -0.562498
      4          6           0        1.270748    0.951326   -0.865209
      5          6           0        1.707345    0.189036    0.383061
      6          1           0        2.135228    1.402396   -1.361765
      7          1           0        0.800109    0.267697   -1.566571
      8          6           0       -2.634837   -0.849945   -0.264806
      9          1           0       -1.817608    0.610871   -1.656024
     10          1           0       -3.327703    1.092637   -0.847077
     11          7           0        2.530224    1.007061    1.271008
     12          6           0        2.510123   -1.032630   -0.077480
     13          1           0        0.820114   -0.196950    0.890032
     14          8           0        2.018490   -1.940779   -0.706650
     15          8           0        3.786575   -0.999353    0.244619
     16          7           0       -3.482180   -0.869623    0.909424
     17          6           0       -1.312000   -1.584935   -0.067021
     18          1           0       -3.162564   -1.337539   -1.089328
     19          8           0       -0.915519   -1.971669    1.002315
     20          8           0       -0.624288   -1.696033   -1.200289
     21          1           0        0.295753   -2.008977   -1.009481
     22          1           0        3.899585   -0.159732    0.750706
     23          1           0       -3.920923   -1.775274    1.020289
     24          1           0       -2.921036   -0.722801    1.742806
     25          1           0        2.294545    0.850139    2.243633
     26          1           0        2.399814    1.995711    1.088355
 ---------------------------------------------------------------------

 SCF Done:  E(RHF) =  -1438.51929066     A.U. after    2 cycles

 The electronic state is 1-A.
 Alpha  occ. eigenvalues --  -93.99111 -93.98389 -20.60541 -20.58710 -20.54902
 Alpha  occ. eigenvalues --  -20.53706 -15.53497 -15.49856 -11.40668 -11.38943
 Alpha  occ. eigenvalues --  -11.31008 -11.29942 -11.29705 -11.28758  -8.27027
 Alpha  occ. eigenvalues --   -8.26349  -6.24828  -6.24619  -6.24402  -6.24151
 Alpha  occ. eigenvalues --   -6.23941  -6.23732  -1.56384  -1.54660  -1.47269
 Alpha  occ. eigenvalues --   -1.45185  -1.24051  -1.21360  -1.13430  -1.07259
 Alpha  occ. eigenvalues --   -1.02101  -0.96347  -0.90664  -0.84074  -0.83632
 Alpha  occ. eigenvalues --   -0.79678  -0.76056  -0.75186  -0.73645  -0.71779
 Alpha  occ. eigenvalues --   -0.71526  -0.70223  -0.66924  -0.64879  -0.64217
 Alpha  occ. eigenvalues --   -0.62599  -0.61917  -0.60007  -0.59415  -0.58316
 Alpha  occ. eigenvalues --   -0.57154  -0.56707  -0.53080  -0.51391  -0.50689
 Alpha  occ. eigenvalues --   -0.48370  -0.47349  -0.46999  -0.46064  -0.45066
 Alpha  occ. eigenvalues --   -0.43245  -0.39554  -0.36864
 Alpha virt. eigenvalues --    0.02644   0.03502   0.03706   0.04805   0.05016
 Alpha virt. eigenvalues --    0.05575   0.05805   0.07069   0.07237   0.07363
 Alpha virt. eigenvalues --    0.08079   0.08598   0.09404   0.09967   0.11083

 Mulliken charges:
               1
     1  S    0.065743
     2  C   -0.361154
     3  S    0.122975
     4  C   -0.311435
     5  C   -1.650183
     6  H    0.252669
     7  H    0.098181
     8  C   -1.765844
     9  H    0.173041
    10  H    0.158668
    11  N    0.377115
    12  C    2.528171
    13  H    0.241527
    14  O   -1.445809
    15  O   -1.383070
    16  N    0.735334
    17  C    2.773918
    18  H    0.211118
    19  O   -1.453160
    20  O   -1.496437
    21  H    0.662491
    22  H    0.459766
    23  H    0.190776
    24  H    0.233497
    25  H    0.246930
    26  H    0.335175
 Sum of Mulliken charges =  -0.00000

 Dipole moment (field-independent basis, Debye):
    X=              0.0201    Y=              2.4567    Z=              0.0089  Tot=              2.4568

 Test job not archived.
 1\1\GINC-SE105\SP\RHF\Aug-CC-pVDZ\C6H12N2O4S2\OHZDE\09-Apr-2025\0\\#t
 hf aug-cc-pvdz iop(5/13=1,5/36=2,99/5=2) pseudo=read geom=check guess=
 (read,tcheck) scf=(maxcycle=1)\\title\\0,1\S,0,-1.400889,1.532448,0.52
 9859\C,0,-2.370379,0.591278,-0.719603\S,0,0.152158,2.361155,-0.562498\
 C,0,1.270748,0.951326,-0.865209\C,0,1.707345,0.189036,0.383061\H,0,2.1
 35228,1.402396,-1.361765\H,0,0.800109,0.267697,-1.566571\C,0,-2.634837
 ,-0.849945,-0.264806\H,0,-1.817608,0.610871,-1.656024\H,0,-3.327703,1.
 092637,-0.847077\N,0,2.530224,1.007061,1.271008\C,0,2.510123,-1.03263,

 Normal termination of Gaussian 16 at Wed Apr  9 01:39:32 2025.
