 Gaussian 16, Revision C.01,

 ----------------------------------------------------------------------
 #t hf aug-cc-pvdz symm=none int=(grid=ultrafine) guess=(read,tcheck) s
 table=(opt,rrhf)
 ----------------------------------------------------------------------
 -----
 title
 -----
 Symbolic Z-matrix:
 Charge =  0 Multiplicity = 1

 SCF Done:  E(RHF) =  -1572.15642104     A.U. after   25 cycles
 Normal termination of Gaussian 16 at Wed Apr  9 03:30:01 2025.
 Gaussian 16:  ES64L-G16RevC.01  3-Jul-2019

 ----------------------------------------------------------------------
 #t hf aug-cc-pvdz iop(5/13=1,5/36=2,99/5=2) pseudo=read geom=check gue
 ss=(read,tcheck) scf=(maxcycle=1)
 ----------------------------------------------------------------------
 -----
 title
 -----
 Structure from the checkpoint file:  "BH10_376_forward_mol1.chk"
 Charge =  0 Multiplicity = 1

                         Standard orientation:
 ---------------------------------------------------------------------
 Center     Atomic      Atomic             Coordinates (Angstroms)
 Number     Number       Type             X           Y           Z
 ---------------------------------------------------------------------
      1          6           0       -5.681392   -2.854624    0.251423
      2          6           0       -5.256793   -1.541335    0.381386
      3          6           0       -4.005629   -1.137915   -0.089039
      4          6           0       -3.180463   -2.101011   -0.678640
      5          6           0       -3.608991   -3.411574   -0.814294
      6          6           0       -4.860949   -3.797012   -0.352129
      7          1           0       -6.657849   -3.142044    0.622882
      8          1           0       -5.905514   -0.811491    0.852988
      9          1           0       -2.185547   -1.829538   -1.007769
     10          1           0       -2.953502   -4.141631   -1.274327
     11          1           0       -5.189700   -4.823849   -0.454799
     12          6           0       -3.594101    0.266091    0.081266
     13          1           0       -4.313327    0.892309    0.590937
     14          6           0       -2.731105    0.871533   -0.828376
     15          1           0       -2.282551    0.264281   -1.602272
     16          6           0       -2.794784    3.150355    0.107272
     17          6           0       -1.429714    2.633692   -1.867312
     18          6           0       -1.562450    3.651866    0.857165
     19          1           0       -3.511562    2.710853    0.794846
     20          1           0       -3.289139    3.985570   -0.401916
     21          6           0       -0.169132    3.133481   -1.166385
     22          1           0       -1.200505    1.817009   -2.550096
     23          1           0       -1.877740    3.445858   -2.451555
     24          6           0       -0.512002    4.185783   -0.114421
     25          1           0       -1.144901    2.829355    1.444290
     26          1           0       -1.868535    4.426520    1.564176
     27          1           0        0.332310    2.287334   -0.691276
     28          1           0        0.517133    3.537993   -1.914151
     29          1           0       -0.898403    5.084723   -0.609403
     30          1           0        0.386918    4.487157    0.427207
     31          7           0       -2.419937    2.165384   -0.901682
     32          7           0       -0.733582   -0.118716    0.428586
     33          7           0       -1.357676   -0.024467    1.556074
     34          7           0       -2.471519    0.162896    1.840766
     35          6           0        0.634652   -0.253265    0.449193
     36          6           0        1.257268   -0.366645   -0.799691
     37          6           0        1.488531   -0.254497    1.556497
     38          6           0        2.620509   -0.483587   -0.936925
     39          6           0        2.857663   -0.359671    1.412699
     40          6           0        3.465811   -0.482994    0.168734
     41          9           0        0.493863   -0.336921   -1.904873
     42          9           0        3.115600   -0.550899   -2.173985
     43          9           0        3.591740   -0.373763    2.522494
     44          9           0        0.988397   -0.149275    2.792987
     45          6           0        4.948006   -0.564848    0.057121
     46          8           0        5.713668    0.087894    0.711848
     47          8           0        5.321832   -1.462176   -0.858036
     48          6           0        6.732967   -1.579665   -1.070888
     49          1           0        6.847531   -2.331661   -1.846303
     50          1           0        7.146832   -0.625150   -1.395065
     51          1           0        7.229243   -1.892248   -0.152657
 ---------------------------------------------------------------------

 SCF Done:  E(RHF) =  -1573.69525811     A.U. after    2 cycles

 The electronic state is 1-A.
 Alpha  occ. eigenvalues --  -26.50222 -26.49890 -26.49677 -26.49258 -20.59612
 Alpha  occ. eigenvalues --  -20.54046 -15.65719 -15.62320 -15.55428 -15.54479
 Alpha  occ. eigenvalues --  -11.40414 -11.37253 -11.37127 -11.35063 -11.35044
 Alpha  occ. eigenvalues --  -11.33029 -11.32987 -11.29881 -11.28972 -11.28946
 Alpha  occ. eigenvalues --  -11.28022 -11.25054 -11.24793 -11.24613 -11.24601
 Alpha  occ. eigenvalues --  -11.24588 -11.23833 -11.23798 -11.23362 -11.23219
 Alpha  occ. eigenvalues --  -11.23121  -1.64312  -1.63920  -1.62331  -1.61936
 Alpha  occ. eigenvalues --   -1.55673  -1.47585  -1.46113  -1.30492  -1.28345
 Alpha  occ. eigenvalues --   -1.19769  -1.16058  -1.11770  -1.08962  -1.06952
 Alpha  occ. eigenvalues --   -1.05719  -1.04857  -1.01456  -1.00251  -1.00121
 Alpha  occ. eigenvalues --   -0.95183  -0.93619  -0.89635  -0.89230  -0.85491
 Alpha  occ. eigenvalues --   -0.85316  -0.83491  -0.82615  -0.81274  -0.81090
 Alpha  occ. eigenvalues --   -0.78590  -0.77335  -0.76682  -0.74968  -0.74578
 Alpha  occ. eigenvalues --   -0.73164  -0.73062  -0.72841  -0.72264  -0.71407
 Alpha  occ. eigenvalues --   -0.70789  -0.70391  -0.69111  -0.68766  -0.67932
 Alpha  occ. eigenvalues --   -0.67718  -0.67311  -0.67050  -0.66132  -0.65810
 Alpha  occ. eigenvalues --   -0.65093  -0.64361  -0.63462  -0.62753  -0.61836
 Alpha  occ. eigenvalues --   -0.61143  -0.61090  -0.59676  -0.59401  -0.59014
 Alpha  occ. eigenvalues --   -0.58735  -0.57029  -0.56379  -0.56076  -0.54569
 Alpha  occ. eigenvalues --   -0.53636  -0.53451  -0.52694  -0.51810  -0.51126
 Alpha  occ. eigenvalues --   -0.50309  -0.49560  -0.49153  -0.48812  -0.47641
 Alpha  occ. eigenvalues --   -0.46877  -0.45915  -0.45514  -0.38481  -0.36423
 Alpha  occ. eigenvalues --   -0.34580  -0.34244  -0.29375
 Alpha virt. eigenvalues --    0.01726   0.02644   0.02753   0.02916   0.03177
 Alpha virt. eigenvalues --    0.03547   0.03713   0.04186   0.04853   0.05151
 Alpha virt. eigenvalues --    0.05443   0.05767   0.06109   0.06281   0.06584

 Mulliken charges:
               1
     1  C    0.235761
     2  C    0.021041
     3  C    1.096921
     4  C    1.154781
     5  C   -0.362635
     6  C    0.184745
     7  H   -0.254534
     8  H   -0.410731
     9  H   -0.334534
    10  H   -0.300216
    11  H   -0.235747
    12  C    0.237854
    13  H   -0.381573
    14  C   -1.197368
    15  H   -0.257591
    16  C   -0.603973
    17  C   -0.690279
    18  C    0.127876
    19  H   -0.093128
    20  H    0.037091
    21  C    0.069303
    22  H   -0.010457
    23  H    0.037587
    24  C   -0.378340
    25  H    0.156080
    26  H    0.105111
    27  H    0.073850
    28  H    0.111601
    29  H    0.172431
    30  H    0.107649
    31  N    2.527820
    32  N    1.199918
    33  N   -1.774212
    34  N    1.582101
    35  C   -3.451864
    36  C    2.150002
    37  C    1.524125
    38  C    1.230592
    39  C    1.252828
    40  C    0.408127
    41  F   -1.258256
    42  F   -1.098915
    43  F   -1.077396
    44  F   -1.070385
    45  C    1.485558
    46  O   -1.308299
    47  O   -1.352096
    48  C    0.281951
    49  H    0.008370
    50  H    0.171216
    51  H    0.150239
 Sum of Mulliken charges =   0.00000

 Dipole moment (field-independent basis, Debye):
    X=             -2.4908    Y=              2.9626    Z=             -3.9167  Tot=              5.5065

 Test job not archived.
 1\1\GINC-SE021\SP\RHF\Aug-CC-pVDZ\C21H20F4N4O2\OHZDE\09-Apr-2025\0\\#t
  hf aug-cc-pvdz iop(5/13=1,5/36=2,99/5=2) pseudo=read geom=check guess
 =(read,tcheck) scf=(maxcycle=1)\\title\\0,1\C,0,-5.681392,-2.854624,0.
 251423\C,0,-5.256793,-1.541335,0.381386\C,0,-4.005629,-1.137915,-0.089
 039\C,0,-3.180463,-2.101011,-0.67864\C,0,-3.608991,-3.411574,-0.814294
 \C,0,-4.860949,-3.797012,-0.352129\H,0,-6.657849,-3.142044,0.622882\H,
 0,-5.905514,-0.811491,0.852988\H,0,-2.185547,-1.829538,-1.007769\H,0,-
 2.953502,-4.141631,-1.274327\H,0,-5.1897,-4.823849,-0.454799\C,0,-3.59

 Normal termination of Gaussian 16 at Wed Apr  9 03:33:40 2025.
