 Gaussian 16, Revision C.01,

 ----------------------------------------------------------------------
 #t hf aug-cc-pvdz symm=none int=(grid=ultrafine) guess=(read,tcheck) s
 table=(opt,rrhf)
 ----------------------------------------------------------------------
 -----
 title
 -----
 Symbolic Z-matrix:
 Charge =  0 Multiplicity = 1

 SCF Done:  E(RHF) =  -907.765687278     A.U. after   14 cycles
 Normal termination of Gaussian 16 at Wed Apr  9 01:44:24 2025.
 Gaussian 16:  ES64L-G16RevC.01  3-Jul-2019

 ----------------------------------------------------------------------
 #t hf aug-cc-pvdz iop(5/13=1,5/36=2,99/5=2) pseudo=read geom=check gue
 ss=(read,tcheck) scf=(maxcycle=1)
 ----------------------------------------------------------------------
 -----
 title
 -----
 Structure from the checkpoint file:  "BH10_358_forward_mol2.chk"
 Charge =  0 Multiplicity = 1

                         Standard orientation:
 ---------------------------------------------------------------------
 Center     Atomic      Atomic             Coordinates (Angstroms)
 Number     Number       Type             X           Y           Z
 ---------------------------------------------------------------------
      1          6           0        2.618024    0.239804   -0.700101
      2          6           0        1.833182   -0.812192    0.056827
      3          6           0        0.566464   -1.201488   -0.686128
      4          8           0        3.013380    1.227813   -0.145451
      5          8           0        1.535740   -0.325159    1.346136
      6          1           0        2.473140   -1.704565    0.127071
      7          1           0        2.048192    0.493750    1.460028
      8          8           0       -0.232377   -0.042780   -0.885519
      9          1           0        0.026205   -1.970880   -0.131291
     10          1           0        0.821707   -1.600754   -1.669589
     11         15           0       -1.542102    0.285478    0.001569
     12          8           0       -2.617459   -0.829351   -0.416284
     13          1           0       -3.337580   -0.455123   -0.934813
     14          8           0       -1.165593   -0.229463    1.450798
     15          1           0       -0.210152   -0.166874    1.661098
     16          8           0       -1.986036    1.664202   -0.198844
     17          1           0        2.822752    0.043433   -1.766320
 ---------------------------------------------------------------------

 SCF Done:  E(RHF) =  -908.371647245     A.U. after    2 cycles

 The electronic state is 1-A.
 Alpha  occ. eigenvalues --  -84.45854 -20.59947 -20.59341 -20.59318 -20.59103
 Alpha  occ. eigenvalues --  -20.58132 -20.50064 -11.38051 -11.34378 -11.34129
 Alpha  occ. eigenvalues --   -6.90616  -4.44796  -4.44142  -4.44013  -1.56278
 Alpha  occ. eigenvalues --   -1.53728  -1.49904  -1.48528  -1.47012  -1.38543
 Alpha  occ. eigenvalues --   -1.09061  -0.95113  -0.86718  -0.83298  -0.78583
 Alpha  occ. eigenvalues --   -0.74756  -0.73000  -0.71858  -0.71200  -0.67437
 Alpha  occ. eigenvalues --   -0.64844  -0.63674  -0.61919  -0.58608  -0.57632
 Alpha  occ. eigenvalues --   -0.56589  -0.55822  -0.53708  -0.52504  -0.52003
 Alpha  occ. eigenvalues --   -0.48059  -0.46272  -0.45792  -0.45293
 Alpha virt. eigenvalues --    0.02152   0.03503   0.03756   0.04786   0.05664
 Alpha virt. eigenvalues --    0.06333   0.07748   0.08312   0.09912   0.10337
 Alpha virt. eigenvalues --    0.11165   0.11980   0.13021   0.13126   0.13551

 Mulliken charges:
               1
     1  C    1.177752
     2  C    0.744272
     3  C    0.388559
     4  O   -1.126427
     5  O   -1.577366
     6  H    0.248928
     7  H    0.435763
     8  O   -1.633659
     9  H    0.143321
    10  H    0.018964
    11  P    4.256233
    12  O   -1.320360
    13  H    0.397791
    14  O   -1.500989
    15  H    0.624057
    16  O   -1.400715
    17  H    0.123877
 Sum of Mulliken charges =  -0.00000

 Dipole moment (field-independent basis, Debye):
    X=              3.0813    Y=             -5.0479    Z=             -1.9492  Tot=              6.2270

 Test job not archived.
 1\1\GINC-SE103\SP\RHF\Aug-CC-pVDZ\C3H7O6P1\OHZDE\09-Apr-2025\0\\#t hf
 aug-cc-pvdz iop(5/13=1,5/36=2,99/5=2) pseudo=read geom=check guess=(re
 ad,tcheck) scf=(maxcycle=1)\\title\\0,1\C,0,2.618024,0.239804,-0.70010
 1\C,0,1.833182,-0.812192,0.056827\C,0,0.566464,-1.201488,-0.686128\O,0
 ,3.01338,1.227813,-0.145451\O,0,1.53574,-0.325159,1.346136\H,0,2.47314
 ,-1.704565,0.127071\H,0,2.048192,0.49375,1.460028\O,0,-0.232377,-0.042
 78,-0.885519\H,0,0.026205,-1.97088,-0.131291\H,0,0.821707,-1.600754,-1
 .669589\P,0,-1.542102,0.285478,0.001569\O,0,-2.617459,-0.829351,-0.416

 Normal termination of Gaussian 16 at Wed Apr  9 01:44:34 2025.
