 Gaussian 16, Revision C.01,

 ----------------------------------------------------------------------
 #t hf aug-cc-pvdz symm=none int=(grid=ultrafine) guess=(read,tcheck) s
 table=(opt,rrhf)
 ----------------------------------------------------------------------
 -----
 title
 -----
 Symbolic Z-matrix:
 Charge =  0 Multiplicity = 1

 SCF Done:  E(RHF) =  -458.580566395     A.U. after   14 cycles
 Normal termination of Gaussian 16 at Wed Apr  9 00:54:51 2025.
 Gaussian 16:  ES64L-G16RevC.01  3-Jul-2019

 ----------------------------------------------------------------------
 #t hf aug-cc-pvdz iop(5/13=1,5/36=2,99/5=2) pseudo=read geom=check gue
 ss=(read,tcheck) scf=(maxcycle=1)
 ----------------------------------------------------------------------
 -----
 title
 -----
 Structure from the checkpoint file:  "BH10-RE_124_mol2.chk"
 Charge =  0 Multiplicity = 1

                         Standard orientation:
 ---------------------------------------------------------------------
 Center     Atomic      Atomic             Coordinates (Angstroms)
 Number     Number       Type             X           Y           Z
 ---------------------------------------------------------------------
      1          7           0       -0.026097   -0.358681   -0.000014
      2          6           0        1.366764   -0.091891    0.000002
      3          6           0       -1.158222    0.464685   -0.000005
      4          8           0       -1.035247    1.662497   -0.000018
      5          8           0        2.135455   -1.009890    0.000002
      6          6           0       -2.470476   -0.262495    0.000019
      7          6           0        1.756265    1.355857    0.000014
      8          9           0       -0.307416   -1.701451   -0.000007
      9          1           0       -2.556526   -0.902484    0.878979
     10          1           0       -2.556550   -0.902497   -0.878929
     11          1           0       -3.259855    0.484436    0.000024
     12          1           0        2.843270    1.389726    0.000054
     13          1           0        1.355679    1.868432    0.873857
     14          1           0        1.355750    1.868419   -0.873871
 ---------------------------------------------------------------------

 SCF Done:  E(RHF) =  -459.028959223     A.U. after    2 cycles

 The electronic state is 1-A.
 Alpha  occ. eigenvalues --  -26.52228 -20.55664 -20.54947 -15.64461 -11.40883
 Alpha  occ. eigenvalues --  -11.39793 -11.27063 -11.25830  -1.65277  -1.51256
 Alpha  occ. eigenvalues --   -1.50080  -1.23838  -1.07095  -1.02294  -0.93158
 Alpha  occ. eigenvalues --   -0.80340  -0.75687  -0.73767  -0.72630  -0.65515
 Alpha  occ. eigenvalues --   -0.64732  -0.64069  -0.63967  -0.62640  -0.59716
 Alpha  occ. eigenvalues --   -0.58846  -0.56097  -0.53511  -0.47390  -0.45408
 Alpha  occ. eigenvalues --   -0.45399
 Alpha virt. eigenvalues --    0.03229   0.04268   0.05053   0.05313   0.05867
 Alpha virt. eigenvalues --    0.05904   0.07788   0.10704   0.10900   0.11111
 Alpha virt. eigenvalues --    0.12102   0.13131   0.13304   0.14293   0.14708

 Mulliken charges:
               1
     1  N    1.477762
     2  C    0.401268
     3  C    0.582777
     4  O   -1.197864
     5  O   -1.199983
     6  C   -0.483593
     7  C   -0.283869
     8  F   -0.717651
     9  H    0.294077
    10  H    0.294080
    11  H    0.157189
    12  H    0.063575
    13  H    0.306116
    14  H    0.306117
 Sum of Mulliken charges =  -0.00000

 Dipole moment (field-independent basis, Debye):
    X=             -2.2346    Y=              0.8623    Z=              0.0001  Tot=              2.3952

 Test job not archived.
 1\1\GINC-SE070\SP\RHF\Aug-CC-pVDZ\C4H6F1N1O2\OHZDE\09-Apr-2025\0\\#t h
 f aug-cc-pvdz iop(5/13=1,5/36=2,99/5=2) pseudo=read geom=check guess=(
 read,tcheck) scf=(maxcycle=1)\\title\\0,1\N,0,-0.026097,-0.358681,-0.0
 00014\C,0,1.366764,-0.091891,0.000002\C,0,-1.158222,0.464685,-0.000005
 \O,0,-1.035247,1.662497,-0.000018\O,0,2.135455,-1.00989,0.000002\C,0,-
 2.470476,-0.262495,0.000019\C,0,1.756265,1.355857,0.000014\F,0,-0.3074
 16,-1.701451,-0.000007\H,0,-2.556526,-0.902484,0.878979\H,0,-2.55655,-
 0.902497,-0.878929\H,0,-3.259855,0.484436,0.000024\H,0,2.84327,1.38972

 Normal termination of Gaussian 16 at Wed Apr  9 00:54:56 2025.
