 Gaussian 16, Revision C.01,

 ----------------------------------------------------------------------
 #t hf aug-cc-pvdz symm=none int=(grid=ultrafine) guess=(read,tcheck) s
 table=(opt,rrhf)
 ----------------------------------------------------------------------
 -----
 title
 -----
 Symbolic Z-matrix:
 Charge =  0 Multiplicity = 1

 SCF Done:  E(RHF) =  -1125.27612025     A.U. after   15 cycles
 Normal termination of Gaussian 16 at Wed Apr  9 02:23:25 2025.
 Gaussian 16:  ES64L-G16RevC.01  3-Jul-2019

 ----------------------------------------------------------------------
 #t hf aug-cc-pvdz iop(5/13=1,5/36=2,99/5=2) pseudo=read geom=check gue
 ss=(read,tcheck) scf=(maxcycle=1)
 ----------------------------------------------------------------------
 -----
 title
 -----
 Structure from the checkpoint file:  "BH10_299_reverse_mol2.chk"
 Charge =  0 Multiplicity = 1

                         Standard orientation:
 ---------------------------------------------------------------------
 Center     Atomic      Atomic             Coordinates (Angstroms)
 Number     Number       Type             X           Y           Z
 ---------------------------------------------------------------------
      1          6           0       -0.108499   -2.759245    0.227597
      2          6           0        0.663781   -1.813588    1.192889
      3          6           0        1.510873   -0.503658   -1.489653
      4          1           0       -1.029150   -3.078417    0.722265
      5          6           0        2.181618   -2.094358    1.221262
      6          1           0        2.690648   -1.300294    1.779086
      7          1           0        2.341165   -3.010996    1.800325
      8          1           0        1.741064    0.142004   -2.342302
      9          1           0        0.308556   -2.036506    2.204783
     10          6           0        2.868003   -2.281015   -0.127497
     11          1           0        3.907401   -2.571378    0.056155
     12          1           0        2.418295   -3.132192   -0.645747
     13          6           0        2.873036   -1.073144   -1.057316
     14          1           0        3.470837   -0.277791   -0.603301
     15          1           0        3.411172   -1.361410   -1.967040
     16          6           0        0.568654   -1.602266   -2.045798
     17          1           0        0.051548   -1.195471   -2.920011
     18          6           0       -0.523083   -2.145216   -1.116593
     19          1           0       -1.237502   -1.338130   -0.923018
     20          1           0       -1.088692   -2.898513   -1.674196
     21          1           0        1.176074   -2.431502   -2.424028
     22          1           0        0.472912   -3.671516    0.060750
     23          6           0        0.817963    0.386187   -0.432338
     24          1           0       -0.066185    0.853761   -0.892794
     25         14           0        1.801795    1.956827    0.030537
     26          6           0        2.977721    1.695735    1.479919
     27          1           0        3.763153    0.969786    1.262893
     28          1           0        3.463674    2.639686    1.742247
     29          1           0        2.443372    1.348959    2.368886
     30          6           0        0.623817    3.342974    0.508503
     31          1           0        1.163298    4.294045    0.531313
     32          1           0       -0.195951    3.439838   -0.207144
     33          1           0        0.185238    3.193289    1.496577
     34          6           0        2.784378    2.536699   -1.464493
     35          1           0        2.124819    2.734309   -2.313510
     36          1           0        3.305556    3.468415   -1.228079
     37          1           0        3.532878    1.810516   -1.786287
     38          5           0        0.260908   -0.331206    0.823558
     39          6           0       -3.137885   -0.500676    1.327349
     40          6           0       -3.421731    0.294421    0.125203
     41          8           0       -2.646835    0.998814   -0.480589
     42          8           0       -4.700343    0.132320   -0.264566
     43          6           0       -5.085587    0.845020   -1.440499
     44          1           0       -4.475759    0.537325   -2.290134
     45          1           0       -6.129518    0.593333   -1.608002
     46          1           0       -4.969517    1.918648   -1.292010
     47          6           0       -1.994906   -0.437922    2.017772
     48          6           0       -0.809212    0.419923    1.741304
     49          1           0       -0.303256    0.625688    2.694488
     50          1           0       -1.115565    1.361847    1.295061
     51          1           0       -3.929498   -1.167632    1.643000
     52          1           0       -1.916964   -1.107529    2.870041
 ---------------------------------------------------------------------

 SCF Done:  E(RHF) =  -1126.18946579     A.U. after    2 cycles

 The electronic state is 1-A.
 Alpha  occ. eigenvalues --  -69.50284 -20.58489 -20.52464 -11.38304 -11.29175
 Alpha  occ. eigenvalues --  -11.27305 -11.23734 -11.22263 -11.22119 -11.21938
 Alpha  occ. eigenvalues --  -11.21707 -11.21546 -11.21513 -11.21448 -11.20798
 Alpha  occ. eigenvalues --  -11.20342 -11.20010 -11.19737 -11.19655 -11.17699
 Alpha  occ. eigenvalues --   -7.57141  -6.17278  -3.92616  -3.92612  -3.92603
 Alpha  occ. eigenvalues --   -1.54145  -1.44370  -1.11889  -1.09765  -1.04506
 Alpha  occ. eigenvalues --   -1.04003  -1.00572  -0.98216  -0.95480  -0.93449
 Alpha  occ. eigenvalues --   -0.92270  -0.91920  -0.91164  -0.87698  -0.83485
 Alpha  occ. eigenvalues --   -0.79586  -0.78675  -0.76013  -0.71822  -0.70064
 Alpha  occ. eigenvalues --   -0.67391  -0.67021  -0.66274  -0.65036  -0.64897
 Alpha  occ. eigenvalues --   -0.62658  -0.61954  -0.60482  -0.59082  -0.58655
 Alpha  occ. eigenvalues --   -0.57821  -0.57653  -0.57093  -0.56552  -0.55866
 Alpha  occ. eigenvalues --   -0.55450  -0.55147  -0.54275  -0.53816  -0.53634
 Alpha  occ. eigenvalues --   -0.53374  -0.52795  -0.52452  -0.52021  -0.49543
 Alpha  occ. eigenvalues --   -0.49099  -0.47935  -0.46953  -0.45780  -0.45074
 Alpha  occ. eigenvalues --   -0.44833  -0.43729  -0.43581  -0.43348  -0.42089
 Alpha  occ. eigenvalues --   -0.41705  -0.40910  -0.38575  -0.36584
 Alpha virt. eigenvalues --    0.02272   0.02479   0.02751   0.03341   0.04136
 Alpha virt. eigenvalues --    0.04212   0.04353   0.04576   0.04711   0.05918
 Alpha virt. eigenvalues --    0.06432   0.06800   0.06887   0.07143   0.07402

 Mulliken charges:
               1
     1  C   -0.452889
     2  C    0.216193
     3  C   -0.017453
     4  H    0.033918
     5  C   -0.478940
     6  H    0.168692
     7  H    0.056640
     8  H    0.056476
     9  H   -0.167401
    10  C   -0.231666
    11  H    0.001908
    12  H    0.290246
    13  C   -0.264739
    14  H    0.110424
    15  H    0.100423
    16  C   -0.699207
    17  H    0.088271
    18  C    0.139848
    19  H    0.453361
    20  H   -0.050345
    21  H    0.124651
    22  H    0.109673
    23  C   -1.185455
    24  H    0.053198
    25  Si   2.209013
    26  C   -0.269795
    27  H   -0.015227
    28  H   -0.184450
    29  H    0.045628
    30  C   -0.370524
    31  H   -0.211463
    32  H    0.045635
    33  H    0.024100
    34  C   -0.392810
    35  H   -0.061805
    36  H   -0.202925
    37  H    0.012753
    38  B    1.420409
    39  C    0.526683
    40  C    2.274871
    41  O   -1.282765
    42  O   -1.657300
    43  C    0.170848
    44  H    0.172077
    45  H   -0.027759
    46  H    0.169736
    47  C    0.601420
    48  C   -0.808049
    49  H    0.190724
    50  H   -0.131076
    51  H   -0.346855
    52  H   -0.356918
 Sum of Mulliken charges =   0.00000

 Dipole moment (field-independent basis, Debye):
    X=             -0.5512    Y=             -0.5777    Z=              0.3662  Tot=              0.8785

 Test job not archived.
 1\1\GINC-SE335\SP\RHF\Aug-CC-pVDZ\C17H31B1O2Si1\OHZDE\09-Apr-2025\0\\#
 t hf aug-cc-pvdz iop(5/13=1,5/36=2,99/5=2) pseudo=read geom=check gues
 s=(read,tcheck) scf=(maxcycle=1)\\title\\0,1\C,0,-0.108499,-2.759245,0
 .227597\C,0,0.663781,-1.813588,1.192889\C,0,1.510873,-0.503658,-1.4896
 53\H,0,-1.02915,-3.078417,0.722265\C,0,2.181618,-2.094358,1.221262\H,0
 ,2.690648,-1.300294,1.779086\H,0,2.341165,-3.010996,1.800325\H,0,1.741
 064,0.142004,-2.342302\H,0,0.308556,-2.036506,2.204783\C,0,2.868003,-2
 .281015,-0.127497\H,0,3.907401,-2.571377,0.056155\H,0,2.418295,-3.1321

 Normal termination of Gaussian 16 at Wed Apr  9 02:26:25 2025.
