 Gaussian 16, Revision C.01,

 ----------------------------------------------------------------------
 #t hf aug-cc-pvdz symm=none int=(grid=ultrafine) guess=(read,tcheck) s
 table=(opt,rrhf)
 ----------------------------------------------------------------------
 -----
 title
 -----
 Symbolic Z-matrix:
 Charge =  0 Multiplicity = 1

 SCF Done:  E(RHF) =  -614.646163018     A.U. after   14 cycles
 Normal termination of Gaussian 16 at Wed Apr  9 00:54:35 2025.
 Gaussian 16:  ES64L-G16RevC.01  3-Jul-2019

 ----------------------------------------------------------------------
 #t hf aug-cc-pvdz iop(5/13=1,5/36=2,99/5=2) pseudo=read geom=check gue
 ss=(read,tcheck) scf=(maxcycle=1)
 ----------------------------------------------------------------------
 -----
 title
 -----
 Structure from the checkpoint file:  "BH10-RE_127_mol2.chk"
 Charge =  0 Multiplicity = 1

                         Standard orientation:
 ---------------------------------------------------------------------
 Center     Atomic      Atomic             Coordinates (Angstroms)
 Number     Number       Type             X           Y           Z
 ---------------------------------------------------------------------
      1         16           0        1.408561   -0.519481   -0.164514
      2          6           0       -0.300181   -0.594014    0.379620
      3          6           0       -1.266297    0.265291   -0.424372
      4          6           0       -2.693944    0.151790    0.099656
      5          1           0       -3.373899    0.775523   -0.483053
      6          1           0       -2.760173    0.473564    1.141984
      7          1           0       -3.057845   -0.877677    0.044881
      8          1           0       -0.934048    1.304778   -0.378255
      9          1           0       -1.221216   -0.033405   -1.474649
     10          1           0       -0.540850   -1.659893    0.283108
     11          1           0       -0.336140   -0.352400    1.444356
     12          9           0        1.694414    1.082534    0.191603
 ---------------------------------------------------------------------

 SCF Done:  E(RHF) =  -614.927604850     A.U. after    2 cycles

 The electronic state is 1-A.
 Alpha  occ. eigenvalues --  -94.02513 -26.46185 -11.28193 -11.24471 -11.23653
 Alpha  occ. eigenvalues --   -8.29851  -6.27665  -6.27341  -6.27067  -1.56444
 Alpha  occ. eigenvalues --   -1.10948  -1.01536  -0.89429  -0.82095  -0.67764
 Alpha  occ. eigenvalues --   -0.65997  -0.64660  -0.62723  -0.59570  -0.56462
 Alpha  occ. eigenvalues --   -0.56161  -0.51328  -0.49752  -0.47013  -0.37139
 Alpha virt. eigenvalues --    0.03395   0.03868   0.04127   0.05329   0.06765
 Alpha virt. eigenvalues --    0.07204   0.07544   0.08218   0.10235   0.11642
 Alpha virt. eigenvalues --    0.13140   0.14849   0.15436   0.15616   0.16535

 Mulliken charges:
               1
     1  S    0.997845
     2  C   -0.843321
     3  C   -0.340377
     4  C   -0.383587
     5  H    0.119461
     6  H    0.156974
     7  H    0.157307
     8  H    0.190442
     9  H    0.173599
    10  H    0.265431
    11  H    0.199390
    12  F   -0.693163
 Sum of Mulliken charges =  -0.00000

 Dipole moment (field-independent basis, Debye):
    X=             -2.3392    Y=             -1.1770    Z=              0.1886  Tot=              2.6254

 Test job not archived.
 1\1\GINC-SE129\SP\RHF\Aug-CC-pVDZ\C3H7F1S1\OHZDE\09-Apr-2025\0\\#t hf
 aug-cc-pvdz iop(5/13=1,5/36=2,99/5=2) pseudo=read geom=check guess=(re
 ad,tcheck) scf=(maxcycle=1)\\title\\0,1\S,0,1.408561,-0.519481,-0.1645
 14\C,0,-0.300181,-0.594014,0.37962\C,0,-1.266297,0.265291,-0.424372\C,
 0,-2.693944,0.15179,0.099656\H,0,-3.373899,0.775523,-0.483053\H,0,-2.7
 60173,0.473564,1.141984\H,0,-3.057845,-0.877677,0.044881\H,0,-0.934048
 ,1.304778,-0.378255\H,0,-1.221216,-0.033405,-1.474649\H,0,-0.54085,-1.
 659893,0.283108\H,0,-0.33614,-0.3524,1.444356\F,0,1.694414,1.082534,0.

 Normal termination of Gaussian 16 at Wed Apr  9 00:54:39 2025.
