 Gaussian 16, Revision C.01,

 ----------------------------------------------------------------------
 #t hf aug-cc-pvdz symm=none int=(grid=ultrafine) guess=(read,tcheck) s
 table=(opt,rrhf)
 ----------------------------------------------------------------------
 -----
 title
 -----
 Symbolic Z-matrix:
 Charge =  0 Multiplicity = 1

 SCF Done:  E(RHF) =  -1000.85867430     A.U. after   18 cycles
 Normal termination of Gaussian 16 at Wed Apr  9 02:29:27 2025.
 Gaussian 16:  ES64L-G16RevC.01  3-Jul-2019

 ----------------------------------------------------------------------
 #t hf aug-cc-pvdz iop(5/13=1,5/36=2,99/5=2) pseudo=read geom=check gue
 ss=(read,tcheck) scf=(maxcycle=1)
 ----------------------------------------------------------------------
 -----
 title
 -----
 Structure from the checkpoint file:  "BH10_84_forward_mol1.chk"
 Charge =  0 Multiplicity = 1

                         Standard orientation:
 ---------------------------------------------------------------------
 Center     Atomic      Atomic             Coordinates (Angstroms)
 Number     Number       Type             X           Y           Z
 ---------------------------------------------------------------------
      1          6           0       -0.186078   -0.901891   -0.996871
      2          6           0        2.107901   -0.675559   -0.131856
      3          6           0       -0.725170   -0.016367   -0.079293
      4          1           0       -0.408305   -0.140911    0.945642
      5          6           0        2.040664    0.772563    0.033454
      6          6           0        1.109034   -1.372213   -0.810246
      7          6           0        3.367620    1.507312    0.024764
      8          1           0        1.433700   -2.278536   -1.313285
      9          1           0       -0.729290   -1.168074   -1.896370
     10          6           0        0.844279    2.847550   -0.032773
     11          6           0        3.385842   -1.393687    0.008300
     12          6           0       -1.993397    0.726438   -0.263512
     13          1           0       -1.967086    1.584779    0.418772
     14          6           0       -2.230000    1.221034   -1.693127
     15          1           0       -1.372129    1.794645   -2.052628
     16          1           0       -2.381034    0.395818   -2.391331
     17          1           0       -3.112218    1.861603   -1.747759
     18          7           0        0.923706    1.409540    0.112774
     19         14           0       -3.456440   -0.322781    0.397448
     20          6           0       -4.974351    0.781617    0.443859
     21          6           0       -3.761662   -1.785562   -0.732866
     22          6           0       -3.044607   -0.915284    2.128220
     23          1           0       -4.026528   -1.469106   -1.744418
     24          1           0       -4.586225   -2.395112   -0.354072
     25          1           0       -2.878414   -2.424182   -0.798900
     26          1           0       -5.254273    1.128092   -0.553521
     27          1           0       -4.808565    1.661807    1.070306
     28          1           0       -5.830774    0.240862    0.855030
     29          1           0       -0.202464    3.121133   -0.175502
     30          1           0        1.414489    3.238144   -0.882227
     31          1           0        1.187342    3.355391    0.874609
     32          1           0       -2.787417   -0.081933    2.787274
     33          1           0       -2.202178   -1.610510    2.122825
     34          1           0       -3.897816   -1.434473    2.572198
     35          6           0        4.650933   -0.614839    0.308030
     36          6           0        4.395615    0.770110    0.875005
     37          8           0        3.455483   -2.602292   -0.137420
     38          1           0        3.729398    1.585713   -1.007269
     39          1           0        3.234104    2.522910    0.394428
     40          1           0        4.023524    0.693335    1.901604
     41          1           0        5.324160    1.343619    0.917336
     42          1           0        5.271519   -1.228973    0.961614
     43          1           0        5.187090   -0.532880   -0.645185
 ---------------------------------------------------------------------

 SCF Done:  E(RHF) =  -1001.64078979     A.U. after    2 cycles

 The electronic state is 1-A.
 Alpha  occ. eigenvalues --  -69.51752 -20.49438 -15.48613 -11.31159 -11.29315
 Alpha  occ. eigenvalues --  -11.29155 -11.25985 -11.25701 -11.24374 -11.24028
 Alpha  occ. eigenvalues --  -11.23575 -11.23208 -11.23023 -11.21553 -11.21332
 Alpha  occ. eigenvalues --  -11.21331 -11.21055 -11.20638  -6.18814  -3.94150
 Alpha  occ. eigenvalues --   -3.94136  -3.94130  -1.43379  -1.23660  -1.11761
 Alpha  occ. eigenvalues --   -1.10593  -1.06599  -0.99899  -0.98407  -0.97734
 Alpha  occ. eigenvalues --   -0.95307  -0.93533  -0.93331  -0.90990  -0.85900
 Alpha  occ. eigenvalues --   -0.81995  -0.77562  -0.75393  -0.69550  -0.68867
 Alpha  occ. eigenvalues --   -0.67599  -0.66300  -0.64703  -0.62901  -0.62057
 Alpha  occ. eigenvalues --   -0.60871  -0.60128  -0.59681  -0.58923  -0.58194
 Alpha  occ. eigenvalues --   -0.57716  -0.57418  -0.56291  -0.56186  -0.55362
 Alpha  occ. eigenvalues --   -0.55021  -0.54796  -0.54228  -0.53458  -0.52572
 Alpha  occ. eigenvalues --   -0.51320  -0.50080  -0.49140  -0.47756  -0.46710
 Alpha  occ. eigenvalues --   -0.45199  -0.44644  -0.44492  -0.41545  -0.38272
 Alpha  occ. eigenvalues --   -0.36876  -0.29031
 Alpha virt. eigenvalues --    0.02516   0.02649   0.02922   0.03216   0.03795
 Alpha virt. eigenvalues --    0.03908   0.04371   0.04835   0.05203   0.06024
 Alpha virt. eigenvalues --    0.06139   0.06354   0.06891   0.07119   0.07383

 Mulliken charges:
               1
     1  C    0.654283
     2  C    2.235514
     3  C    0.733150
     4  H   -0.275526
     5  C   -2.897509
     6  C   -0.564661
     7  C   -0.336407
     8  H   -0.367356
     9  H   -0.383290
    10  C   -0.387714
    11  C    0.854914
    12  C   -1.152469
    13  H    0.019941
    14  C   -0.272700
    15  H    0.151512
    16  H    0.215837
    17  H    0.106350
    18  N    1.801201
    19  Si   2.324537
    20  C   -0.494320
    21  C   -0.446238
    22  C   -0.474516
    23  H    0.022026
    24  H   -0.080775
    25  H    0.050635
    26  H   -0.014306
    27  H    0.020341
    28  H   -0.066903
    29  H   -0.123093
    30  H    0.223512
    31  H    0.185428
    32  H    0.033677
    33  H    0.024727
    34  H   -0.101383
    35  C   -0.421513
    36  C   -0.165161
    37  O   -1.696274
    38  H    0.159128
    39  H    0.083326
    40  H    0.126257
    41  H    0.170501
    42  H    0.211331
    43  H    0.313984
 Sum of Mulliken charges =  -0.00000

 Dipole moment (field-independent basis, Debye):
    X=             -2.2736    Y=              4.4511    Z=              0.0830  Tot=              4.9989

 Test job not archived.
 1\1\GINC-SE112\SP\RHF\Aug-CC-pVDZ\C15H25N1O1Si1\OHZDE\09-Apr-2025\0\\#
 t hf aug-cc-pvdz iop(5/13=1,5/36=2,99/5=2) pseudo=read geom=check gues
 s=(read,tcheck) scf=(maxcycle=1)\\title\\0,1\C,0,-0.186078,-0.901891,-
 0.996871\C,0,2.107901,-0.675559,-0.131856\C,0,-0.72517,-0.016367,-0.07
 9293\H,0,-0.408305,-0.140911,0.945642\C,0,2.040664,0.772563,0.033454\C
 ,0,1.109034,-1.372213,-0.810246\C,0,3.36762,1.507312,0.024764\H,0,1.43
 37,-2.278536,-1.313285\H,0,-0.72929,-1.168074,-1.89637\C,0,0.844279,2.
 84755,-0.032773\C,0,3.385842,-1.393687,0.0083\C,0,-1.993397,0.726438,-

 Normal termination of Gaussian 16 at Wed Apr  9 02:31:01 2025.
