 Gaussian 16, Revision C.01,

 ----------------------------------------------------------------------
 #t hf aug-cc-pvdz symm=none int=(grid=ultrafine) guess=(read,tcheck) s
 table=(opt,rrhf)
 ----------------------------------------------------------------------
 -----
 title
 -----
 Symbolic Z-matrix:
 Charge =  0 Multiplicity = 1

 SCF Done:  E(RHF) =  -576.011618209     A.U. after   13 cycles

 1\1\GINC-SE396\Stability\RHF\Aug-CC-pVDZ\C3H5Cl1\OHZDE\09-Apr-2025\0\\
 #t hf aug-cc-pvdz symm=none int=(grid=ultrafine) guess=(read,tcheck) s
 table=(opt,rrhf)\\title\\0,1\C,0,0.034598,0.741215,0.137322\C,0,-1.129
 787,-0.131605,0.447372\C,0,-2.215312,-0.193958,-0.308514\H,0,-1.05238,
 -0.728382,1.350995\H,0,-2.304958,0.38512,-1.221522\H,0,-3.053595,-0.82
 5498,-0.042263\H,0,0.263488,1.417643,0.958591\H,0,-0.121917,1.314529,-
 0.773196\Cl,0,1.537198,-0.238666,-0.113511\\Version=ES64L-G16RevC.01\H
 F=-576.0116182\RMSD=4.476e-09\Dipole=-0.7816751,0.4250664,0.1162947\Qu

 Normal termination of Gaussian 16 at Wed Apr  9 00:55:01 2025.
 Gaussian 16:  ES64L-G16RevC.01  3-Jul-2019

 ----------------------------------------------------------------------
 #t hf aug-cc-pvdz iop(5/13=1,5/36=2,99/5=2) pseudo=read geom=check gue
 ss=(read,tcheck) scf=(maxcycle=1)
 ----------------------------------------------------------------------
 -----
 title
 -----
 Structure from the checkpoint file:  "BH10_100_reverse_mol3.chk"
 Charge =  0 Multiplicity = 1

                         Standard orientation:
 ---------------------------------------------------------------------
 Center     Atomic      Atomic             Coordinates (Angstroms)
 Number     Number       Type             X           Y           Z
 ---------------------------------------------------------------------
      1          6           0        0.034598    0.741215    0.137322
      2          6           0       -1.129787   -0.131605    0.447372
      3          6           0       -2.215312   -0.193958   -0.308514
      4          1           0       -1.052380   -0.728382    1.350995
      5          1           0       -2.304958    0.385120   -1.221522
      6          1           0       -3.053595   -0.825498   -0.042263
      7          1           0        0.263488    1.417643    0.958591
      8          1           0       -0.121917    1.314529   -0.773196
      9         17           0        1.537198   -0.238666   -0.113511
 ---------------------------------------------------------------------

 SCF Done:  E(RHF) =  -576.214550365     A.U. after    2 cycles

 The electronic state is 1-A.
 Alpha  occ. eigenvalues -- -105.55468 -11.31105 -11.25967 -11.25166 -10.60286
 Alpha  occ. eigenvalues --   -7.77223  -7.76849  -7.76840  -1.12839  -1.04174
 Alpha  occ. eigenvalues --   -0.91010  -0.78720  -0.68080  -0.63700  -0.60365
 Alpha  occ. eigenvalues --   -0.55539  -0.53343  -0.44884  -0.44348  -0.39114
 Alpha virt. eigenvalues --    0.03636   0.04182   0.04270   0.06157   0.06851
 Alpha virt. eigenvalues --    0.08528   0.09489   0.12365   0.13415   0.14806
 Alpha virt. eigenvalues --    0.15399   0.15860   0.16578   0.16736   0.17028

 Mulliken charges:
               1
     1  C   -0.816885
     2  C    0.789551
     3  C   -0.114486
     4  H   -0.093033
     5  H   -0.048399
     6  H   -0.071488
     7  H    0.250285
     8  H    0.185446
     9  Cl  -0.080990
 Sum of Mulliken charges =   0.00000

 Dipole moment (field-independent basis, Debye):
    X=             -1.9918    Y=              1.0825    Z=              0.2917  Tot=              2.2856

 Test job not archived.
 1\1\GINC-SE396\SP\RHF\Aug-CC-pVDZ\C3H5Cl1\OHZDE\09-Apr-2025\0\\#t hf a
 ug-cc-pvdz iop(5/13=1,5/36=2,99/5=2) pseudo=read geom=check guess=(rea
 d,tcheck) scf=(maxcycle=1)\\title\\0,1\C,0,0.034598,0.741215,0.137322\
 C,0,-1.129787,-0.131605,0.447372\C,0,-2.215312,-0.193958,-0.308514\H,0
 ,-1.05238,-0.728382,1.350995\H,0,-2.304958,0.38512,-1.221522\H,0,-3.05
 3595,-0.825498,-0.042263\H,0,0.263488,1.417643,0.958591\H,0,-0.121917,
 1.314529,-0.773196\Cl,0,1.537198,-0.238666,-0.113511\\Version=ES64L-G1
 6RevC.01\State=1-A\HF=-576.2145504\RMSD=1.068e-02\Dipole=-0.7836241,0.

 Normal termination of Gaussian 16 at Wed Apr  9 00:55:04 2025.
