 Gaussian 16, Revision C.01,

 ----------------------------------------------------------------------
 #t hf aug-cc-pvdz symm=none int=(grid=ultrafine) guess=(read,tcheck) s
 table=(opt,rrhf)
 ----------------------------------------------------------------------
 -----
 title
 -----
 Symbolic Z-matrix:
 Charge = -1 Multiplicity = 1

 SCF Done:  E(RHF) =  -366.297262142     A.U. after   14 cycles
 Normal termination of Gaussian 16 at Wed Apr  9 01:21:12 2025.
 Gaussian 16:  ES64L-G16RevC.01  3-Jul-2019

 ----------------------------------------------------------------------
 #t hf aug-cc-pvdz iop(5/13=1,5/36=2,99/5=2) pseudo=read geom=check gue
 ss=(read,tcheck) scf=(maxcycle=1)
 ----------------------------------------------------------------------
 -----
 title
 -----
 Structure from the checkpoint file:  "BH10_318_forward_mol1.chk"
 Charge = -1 Multiplicity = 1

                         Standard orientation:
 ---------------------------------------------------------------------
 Center     Atomic      Atomic             Coordinates (Angstroms)
 Number     Number       Type             X           Y           Z
 ---------------------------------------------------------------------
      1          6           0       -1.226248    0.146570    0.000004
      2          8           0       -1.039082    1.359028    0.000048
      3          6           0       -2.647181   -0.413201   -0.000011
      4          1           0       -2.793194   -1.043206    0.880027
      5          1           0       -2.793179   -1.043210   -0.880048
      6          1           0       -3.373519    0.398821   -0.000016
      7          8           0       -0.325508   -0.769973   -0.000031
      8          6           0        1.428098   -0.268785   -0.000011
      9          1           0        1.726937   -1.298271   -0.000053
     10          1           0        1.384239    0.279193   -0.921389
     11          1           0        1.384239    0.279118    0.921412
     12          9           0        3.339242    0.103068    0.000004
 ---------------------------------------------------------------------

 SCF Done:  E(RHF) =  -366.664160932     A.U. after    2 cycles

 The electronic state is 1-A.
 Alpha  occ. eigenvalues --  -26.09979 -20.36619 -20.35014 -11.21063 -11.15426
 Alpha  occ. eigenvalues --  -11.10847  -1.33089  -1.24231  -1.16414  -0.86672
 Alpha  occ. eigenvalues --   -0.77380  -0.59243  -0.51461  -0.49316  -0.48961
 Alpha  occ. eigenvalues --   -0.45160  -0.44703  -0.42068  -0.38288  -0.32072
 Alpha  occ. eigenvalues --   -0.26890  -0.26560  -0.25832  -0.25472  -0.22897
 Alpha virt. eigenvalues --    0.12459   0.13987   0.14126   0.16203   0.17328
 Alpha virt. eigenvalues --    0.17940   0.19704   0.24069   0.25502   0.25936
 Alpha virt. eigenvalues --    0.26202   0.26255   0.27865   0.28282   0.30250

 Mulliken charges:
               1
     1  C    1.812780
     2  O   -1.278374
     3  C   -0.643569
     4  H    0.186689
     5  H    0.186683
     6  H    0.150295
     7  O   -1.314989
     8  C    0.246655
     9  H    0.147245
    10  H    0.213971
    11  H    0.213972
    12  F   -0.921357
 Sum of Mulliken charges =  -1.00000

 Dipole moment (field-independent basis, Debye):
    X=             -8.0590    Y=             -2.3961    Z=             -0.0001  Tot=              8.4077

 Test job not archived.
 1\1\GINC-SE044\SP\RHF\Aug-CC-pVDZ\C3H6F1O2(1-)\OHZDE\09-Apr-2025\0\\#t
  hf aug-cc-pvdz iop(5/13=1,5/36=2,99/5=2) pseudo=read geom=check guess
 =(read,tcheck) scf=(maxcycle=1)\\title\\-1,1\C,0,-1.226248,0.14657,0.0
 00004\O,0,-1.039082,1.359028,0.000048\C,0,-2.647181,-0.413201,-0.00001
 1\H,0,-2.793194,-1.043206,0.880027\H,0,-2.793179,-1.04321,-0.880048\H,
 0,-3.373519,0.398821,-0.000016\O,0,-0.325508,-0.769973,-0.000031\C,0,1
 .428098,-0.268785,-0.000011\H,0,1.726937,-1.298271,-0.000053\H,0,1.384
 239,0.279193,-0.921389\H,0,1.384239,0.279118,0.921412\F,0,3.339242,0.1

 Normal termination of Gaussian 16 at Wed Apr  9 01:21:16 2025.
