 Gaussian 16, Revision C.01,

 ----------------------------------------------------------------------
 #t hf aug-cc-pvdz symm=none int=(grid=ultrafine) guess=(read,tcheck) s
 table=(opt,rrhf)
 ----------------------------------------------------------------------
 -----
 title
 -----
 Symbolic Z-matrix:
 Charge =  0 Multiplicity = 1

 SCF Done:  E(RHF) =  -887.707708756     A.U. after   17 cycles
 Normal termination of Gaussian 16 at Wed Apr  9 01:47:17 2025.
 Gaussian 16:  ES64L-G16RevC.01  3-Jul-2019

 ----------------------------------------------------------------------
 #t hf aug-cc-pvdz iop(5/13=1,5/36=2,99/5=2) pseudo=read geom=check gue
 ss=(read,tcheck) scf=(maxcycle=1)
 ----------------------------------------------------------------------
 -----
 title
 -----
 Structure from the checkpoint file:  "BH10_377_forward_mol2.chk"
 Charge =  0 Multiplicity = 1

                         Standard orientation:
 ---------------------------------------------------------------------
 Center     Atomic      Atomic             Coordinates (Angstroms)
 Number     Number       Type             X           Y           Z
 ---------------------------------------------------------------------
      1          7           0       -2.097162   -1.028316    0.000024
      2          7           0       -3.100539   -0.306477   -0.000015
      3          7           0       -4.106701    0.184734   -0.000034
      4          6           0       -0.821658   -0.462655    0.000011
      5          6           0       -0.521198    0.896447    0.000010
      6          6           0        0.253325   -1.351427    0.000006
      7          6           0        0.782761    1.355714    0.000001
      8          6           0        1.559990   -0.903946   -0.000003
      9          6           0        1.830472    0.454167   -0.000005
     10          9           0       -1.515773    1.790684    0.000020
     11          9           0        1.026236    2.661351    0.000000
     12          9           0        3.085615    0.886157   -0.000013
     13          9           0        2.560989   -1.776398   -0.000009
     14          9           0        0.023895   -2.659503    0.000008
 ---------------------------------------------------------------------

 SCF Done:  E(RHF) =  -888.534377449     A.U. after    2 cycles

 The electronic state is 1-A.
 Alpha  occ. eigenvalues --  -26.52869 -26.52413 -26.52282 -26.52172 -26.51626
 Alpha  occ. eigenvalues --  -15.75948 -15.65081 -15.59238 -11.38821 -11.38691
 Alpha  occ. eigenvalues --  -11.38638 -11.38555 -11.38328 -11.35363  -1.67270
 Alpha  occ. eigenvalues --   -1.66604  -1.65774  -1.64876  -1.64244  -1.56010
 Alpha  occ. eigenvalues --   -1.37770  -1.22829  -1.11098  -1.07823  -0.98239
 Alpha  occ. eigenvalues --   -0.93033  -0.87996  -0.85480  -0.81742  -0.80194
 Alpha  occ. eigenvalues --   -0.79683  -0.78336  -0.76230  -0.76146  -0.75770
 Alpha  occ. eigenvalues --   -0.75718  -0.73075  -0.72895  -0.71749  -0.70012
 Alpha  occ. eigenvalues --   -0.69361  -0.67970  -0.66981  -0.64282  -0.62632
 Alpha  occ. eigenvalues --   -0.59868  -0.57585  -0.54169  -0.50362  -0.38830
 Alpha  occ. eigenvalues --   -0.37048
 Alpha virt. eigenvalues --    0.04037   0.04380   0.05092   0.06683   0.07226
 Alpha virt. eigenvalues --    0.08667   0.09549   0.09579   0.09603   0.10403
 Alpha virt. eigenvalues --    0.11454   0.11485   0.12606   0.13140   0.13343

 Mulliken charges:
               1
     1  N    0.297672
     2  N   -1.258033
     3  N    1.027935
     4  C   -2.165169
     5  C    2.167367
     6  C    1.893783
     7  C    0.710719
     8  C    0.847237
     9  C    1.417989
    10  F   -1.013404
    11  F   -0.963119
    12  F   -0.975501
    13  F   -0.975978
    14  F   -1.011498
 Sum of Mulliken charges =  -0.00000

 Dipole moment (field-independent basis, Debye):
    X=             -0.5966    Y=              0.4452    Z=             -0.0000  Tot=              0.7444

 Test job not archived.
 1\1\GINC-SE462\SP\RHF\Aug-CC-pVDZ\C6F5N3\OHZDE\09-Apr-2025\0\\#t hf au
 g-cc-pvdz iop(5/13=1,5/36=2,99/5=2) pseudo=read geom=check guess=(read
 ,tcheck) scf=(maxcycle=1)\\title\\0,1\N,0,2.097162,-1.028316,-0.000024
 \N,0,3.100539,-0.306477,0.000015\N,0,4.106701,0.184734,0.000034\C,0,0.
 821658,-0.462655,-0.000011\C,0,0.521198,0.896447,-0.00001\C,0,-0.25332
 5,-1.351427,-0.000006\C,0,-0.782761,1.355714,-0.000001\C,0,-1.55999,-0
 .903946,0.000003\C,0,-1.830472,0.454167,0.000005\F,0,1.515773,1.790684
 ,-0.00002\F,0,-1.026236,2.661351,0.\F,0,-3.085615,0.886157,0.000013\F,

 Normal termination of Gaussian 16 at Wed Apr  9 01:47:26 2025.
