 Gaussian 16, Revision C.01,

 ----------------------------------------------------------------------
 #t hf aug-cc-pvdz symm=none int=(grid=ultrafine) guess=(read,tcheck) s
 table=(opt,rrhf)
 ----------------------------------------------------------------------
 -----
 title
 -----
 Symbolic Z-matrix:
 Charge =  0 Multiplicity = 1

 SCF Done:  E(RHF) =  -1125.23397727     A.U. after   16 cycles
 Normal termination of Gaussian 16 at Wed Apr  9 02:07:41 2025.
 Gaussian 16:  ES64L-G16RevC.01  3-Jul-2019

 ----------------------------------------------------------------------
 #t hf aug-cc-pvdz iop(5/13=1,5/36=2,99/5=2) pseudo=read geom=check gue
 ss=(read,tcheck) scf=(maxcycle=1)
 ----------------------------------------------------------------------
 -----
 title
 -----
 Structure from the checkpoint file:  "BH10_299_forward_mol1.chk"
 Charge =  0 Multiplicity = 1

                         Standard orientation:
 ---------------------------------------------------------------------
 Center     Atomic      Atomic             Coordinates (Angstroms)
 Number     Number       Type             X           Y           Z
 ---------------------------------------------------------------------
      1          6           0        0.876355    2.583375   -0.894967
      2          6           0        0.850033    1.769986    0.428352
      3          6           0       -1.937579    0.984020   -0.609883
      4          1           0        1.895869    2.566938   -1.293271
      5          6           0        0.040803    2.498762    1.514073
      6          1           0        0.036064    1.899293    2.428328
      7          1           0        0.565928    3.427295    1.767318
      8          1           0       -2.888446    0.554342   -0.937317
      9          1           0        1.881497    1.768785    0.796280
     10          6           0       -1.394207    2.856118    1.150968
     11          1           0       -1.859222    3.336154    2.018027
     12          1           0       -1.393600    3.617195    0.365757
     13          6           0       -2.278117    1.688262    0.721701
     14          1           0       -2.301590    0.941883    1.522203
     15          1           0       -3.301400    2.069710    0.638760
     16          6           0       -1.539830    1.965297   -1.741344
     17          1           0       -1.996768    1.606821   -2.669286
     18          6           0       -0.044460    2.131755   -2.033180
     19          1           0        0.338509    1.187549   -2.431097
     20          1           0        0.056109    2.849737   -2.853807
     21          1           0       -1.993360    2.943289   -1.553490
     22          1           0        0.674471    3.635050   -0.662728
     23          6           0       -0.923342   -0.179800   -0.474080
     24          1           0       -0.584558   -0.410069   -1.497137
     25         14           0       -1.771917   -1.835873   -0.127310
     26          6           0       -3.067110   -2.113838   -1.469154
     27          1           0       -3.481120   -3.122816   -1.390462
     28          1           0       -3.902278   -1.413977   -1.397599
     29          1           0       -2.633907   -2.012753   -2.467957
     30          6           0       -2.660433   -1.943647    1.528310
     31          1           0       -3.179908   -2.903266    1.602847
     32          1           0       -1.985840   -1.867923    2.381902
     33          1           0       -3.413328   -1.157794    1.623989
     34          6           0       -0.544562   -3.258715   -0.290722
     35          1           0        0.211852   -3.299436    0.494564
     36          1           0       -1.081658   -4.211158   -0.271984
     37          1           0       -0.017452   -3.195414   -1.246200
     38          5           0        0.453856    0.236993    0.203144
     39          6           0        2.952305   -0.693785    1.524411
     40          1           0        3.977545   -0.648801    1.858558
     41          6           0        2.717761   -0.777105    0.175422
     42          8           0        1.563984   -0.577535   -0.392595
     43          8           0        3.730690   -1.021942   -0.647527
     44          6           0        3.508220   -0.857972   -2.050847
     45          1           0        2.723933   -1.529580   -2.397672
     46          1           0        4.456479   -1.106148   -2.519761
     47          1           0        3.231502    0.171542   -2.279586
     48          6           0        1.870837   -0.400814    2.385328
     49          1           0        2.104352    0.171850    3.281524
     50          6           0        0.558592   -0.687251    2.110194
     51          1           0       -0.213346   -0.373610    2.799189
     52          1           0        0.342227   -1.569500    1.530206
 ---------------------------------------------------------------------

 SCF Done:  E(RHF) =  -1126.14766367     A.U. after    2 cycles

 The electronic state is 1-A.
 Alpha  occ. eigenvalues --  -69.49661 -20.59684 -20.56507 -11.39560 -11.30380
 Alpha  occ. eigenvalues --  -11.28665 -11.22167 -11.21588 -11.21548 -11.21372
 Alpha  occ. eigenvalues --  -11.21345 -11.21241 -11.21106 -11.21079 -11.21053
 Alpha  occ. eigenvalues --  -11.19915 -11.19835 -11.19687 -11.18894 -11.17711
 Alpha  occ. eigenvalues --   -7.61504  -6.16694  -3.92035  -3.92033  -3.92002
 Alpha  occ. eigenvalues --   -1.56350  -1.47591  -1.11388  -1.10798  -1.04265
 Alpha  occ. eigenvalues --   -1.03587  -1.02241  -0.97925  -0.95052  -0.94142
 Alpha  occ. eigenvalues --   -0.92043  -0.91645  -0.90808  -0.87824  -0.84542
 Alpha  occ. eigenvalues --   -0.82123  -0.79124  -0.77140  -0.73940  -0.71527
 Alpha  occ. eigenvalues --   -0.68839  -0.68228  -0.66613  -0.66187  -0.64458
 Alpha  occ. eigenvalues --   -0.62818  -0.61583  -0.61034  -0.60099  -0.58741
 Alpha  occ. eigenvalues --   -0.58586  -0.57676  -0.57176  -0.56528  -0.56382
 Alpha  occ. eigenvalues --   -0.55854  -0.55233  -0.54875  -0.53693  -0.53624
 Alpha  occ. eigenvalues --   -0.53189  -0.52859  -0.52201  -0.51342  -0.49824
 Alpha  occ. eigenvalues --   -0.49118  -0.48875  -0.47932  -0.47099  -0.45845
 Alpha  occ. eigenvalues --   -0.45160  -0.43538  -0.43089  -0.42614  -0.41636
 Alpha  occ. eigenvalues --   -0.41314  -0.40581  -0.38535  -0.29820
 Alpha virt. eigenvalues --    0.02278   0.02459   0.02817   0.03336   0.04153
 Alpha virt. eigenvalues --    0.04182   0.04392   0.04556   0.04943   0.06224
 Alpha virt. eigenvalues --    0.06433   0.06711   0.06934   0.06960   0.07159

 Mulliken charges:
               1
     1  C   -0.511020
     2  C   -0.147966
     3  C    0.381211
     4  H    0.020765
     5  C   -0.518580
     6  H    0.046544
     7  H    0.064271
     8  H    0.149634
     9  H    0.089481
    10  C   -0.294281
    11  H    0.026995
    12  H    0.278771
    13  C   -0.299337
    14  H    0.167294
    15  H   -0.035407
    16  C   -0.523899
    17  H    0.022112
    18  C    0.027663
    19  H    0.380800
    20  H   -0.068356
    21  H    0.117272
    22  H    0.141139
    23  C   -0.787311
    24  H    0.261963
    25  Si   2.165026
    26  C   -0.460452
    27  H   -0.166421
    28  H   -0.032168
    29  H    0.051637
    30  C   -0.348664
    31  H   -0.129740
    32  H   -0.072084
    33  H    0.021696
    34  C   -0.433787
    35  H   -0.008549
    36  H   -0.173891
    37  H    0.087641
    38  B    3.167401
    39  C    0.363294
    40  H   -0.317061
    41  C    2.146812
    42  O   -3.268977
    43  O   -1.802300
    44  C    0.249225
    45  H    0.266496
    46  H   -0.092332
    47  H    0.183540
    48  C    0.358000
    49  H   -0.251072
    50  C   -0.084749
    51  H   -0.168994
    52  H   -0.239283
 Sum of Mulliken charges =   0.00000

 Dipole moment (field-independent basis, Debye):
    X=              1.1566    Y=              0.3092    Z=             -0.7950  Tot=              1.4371

 Test job not archived.
 1\1\GINC-SE029\SP\RHF\Aug-CC-pVDZ\C17H31B1O2Si1\OHZDE\09-Apr-2025\0\\#
 t hf aug-cc-pvdz iop(5/13=1,5/36=2,99/5=2) pseudo=read geom=check gues
 s=(read,tcheck) scf=(maxcycle=1)\\title\\0,1\C,0,0.876355,2.583375,-0.
 894967\C,0,0.850033,1.769986,0.428352\C,0,-1.937579,0.98402,-0.609883\
 H,0,1.895869,2.566938,-1.293271\C,0,0.040803,2.498762,1.514073\H,0,0.0
 36064,1.899293,2.428328\H,0,0.565928,3.427295,1.767318\H,0,-2.888446,0
 .554342,-0.937317\H,0,1.881497,1.768785,0.79628\C,0,-1.394207,2.856118
 ,1.150968\H,0,-1.859222,3.336154,2.018027\H,0,-1.3936,3.617195,0.36575

 Normal termination of Gaussian 16 at Wed Apr  9 02:10:53 2025.
