 Gaussian 16, Revision C.01,

 ----------------------------------------------------------------------
 #t hf aug-cc-pvdz symm=none int=(grid=ultrafine) guess=(read,tcheck) s
 table=(opt,rrhf)
 ----------------------------------------------------------------------
 -----
 title
 -----
 Symbolic Z-matrix:
 Charge = -1 Multiplicity = 1

 SCF Done:  E(RHF) =  -214.473013429     A.U. after   13 cycles
 Normal termination of Gaussian 16 at Wed Apr  9 02:09:05 2025.
 Gaussian 16:  ES64L-G16RevC.01  3-Jul-2019

 ----------------------------------------------------------------------
 #t hf aug-cc-pvdz iop(5/13=1,5/36=2,99/5=2) pseudo=read geom=check gue
 ss=(read,tcheck) scf=(maxcycle=1)
 ----------------------------------------------------------------------
 -----
 title
 -----
 Structure from the checkpoint file:  "BH76RC_8_mol1.chk"
 Charge = -1 Multiplicity = 1

                         Standard orientation:
 ---------------------------------------------------------------------
 Center     Atomic      Atomic             Coordinates (Angstroms)
 Number     Number       Type             X           Y           Z
 ---------------------------------------------------------------------
      1          9           0        1.899053   -0.076457   -0.005404
      2          6           0        0.489413    0.105484    0.006768
      3          1           0        0.001304   -0.786167   -0.361155
      4          1           0        0.171943    0.298358    1.023244
      5          1           0        0.249744    0.947470   -0.630885
      6          8           0       -2.169447   -0.073143   -0.002320
      7          1           0       -3.095369    0.180697   -0.004624
 ---------------------------------------------------------------------

 SCF Done:  E(RHF) =  -214.689971883     A.U. after    2 cycles

 The electronic state is 1-A.
 Alpha  occ. eigenvalues --  -26.27335 -20.20024 -11.12603  -1.38592  -1.01571
 Alpha  occ. eigenvalues --   -0.76279  -0.50262  -0.50087  -0.48047  -0.34915
 Alpha  occ. eigenvalues --   -0.34705  -0.27513  -0.12756  -0.12731
 Alpha virt. eigenvalues --    0.16080   0.17574   0.17972   0.18325   0.24405
 Alpha virt. eigenvalues --    0.27380   0.27900   0.31456   0.39346   0.41577
 Alpha virt. eigenvalues --    0.41965   0.42579   0.44533   0.45109   0.46867

 Mulliken charges:
               1
     1  F   -0.738966
     2  C    0.358247
     3  H    0.150686
     4  H    0.103520
     5  H    0.089818
     6  O   -1.289305
     7  H    0.326000
 Sum of Mulliken charges =  -1.00000

 Dipole moment (field-independent basis, Debye):
    X=              5.9624    Y=              0.8249    Z=              0.0221  Tot=              6.0192

 Test job not archived.
 1\1\GINC-SE366\SP\RHF\Aug-CC-pVDZ\C1H4F1O1(1-)\OHZDE\09-Apr-2025\0\\#t
  hf aug-cc-pvdz iop(5/13=1,5/36=2,99/5=2) pseudo=read geom=check guess
 =(read,tcheck) scf=(maxcycle=1)\\title\\-1,1\F,0,1.89905296,-0.0764571
 1,-0.00540401\C,0,0.48941325,0.10548407,0.00676802\H,0,0.001304,-0.786
 16683,-0.36115498\H,0,0.17194291,0.29835805,1.02324351\H,0,0.24974413,
 0.94747063,-0.63088507\O,0,-2.16944664,-0.07314287,-0.00232\H,0,-3.095
 36918,0.18069708,-0.004624\\Version=ES64L-G16RevC.01\State=1-A\HF=-214
 .6899719\RMSD=5.692e-03\Dipole=2.3457855,0.3245444,0.0086945\Quadrupol

 Normal termination of Gaussian 16 at Wed Apr  9 02:09:07 2025.
