 Gaussian 16, Revision C.01,

 ----------------------------------------------------------------------
 #t hf aug-cc-pvdz symm=none int=(grid=ultrafine) guess=(read,tcheck) s
 table=(opt,rrhf)
 ----------------------------------------------------------------------
 -----
 title
 -----
 Symbolic Z-matrix:
 Charge = -1 Multiplicity = 1

 SCF Done:  E(RHF) =  -598.633442914     A.U. after   11 cycles
 Normal termination of Gaussian 16 at Wed Apr  9 02:08:54 2025.
 Gaussian 16:  ES64L-G16RevC.01  3-Jul-2019

 ----------------------------------------------------------------------
 #t hf aug-cc-pvdz iop(5/13=1,5/36=2,99/5=2) pseudo=read geom=check gue
 ss=(read,tcheck) scf=(maxcycle=1)
 ----------------------------------------------------------------------
 -----
 title
 -----
 Structure from the checkpoint file:  "BH76RC_6_mol2.chk"
 Charge = -1 Multiplicity = 1

                         Standard orientation:
 ---------------------------------------------------------------------
 Center     Atomic      Atomic             Coordinates (Angstroms)
 Number     Number       Type             X           Y           Z
 ---------------------------------------------------------------------
      1          9           0        0.000000    0.000000   -2.648542
      2          6           0        0.000000    0.000000   -1.240168
      3          1           0       -0.000000    1.024720   -0.886408
      4          1           0       -0.887433   -0.512360   -0.886408
      5          1           0        0.887433   -0.512360   -0.886408
      6         17           0        0.000000    0.000000    1.996301
 ---------------------------------------------------------------------

 SCF Done:  E(RHF) =  -598.850997188     A.U. after    2 cycles

 The electronic state is 1-A1.
 Alpha  occ. eigenvalues -- -105.25707 -26.30396 -11.16106 -10.30221  -7.46960
 Alpha  occ. eigenvalues --   -7.46950  -7.46950  -1.41952  -0.79816  -0.70367
 Alpha  occ. eigenvalues --   -0.53516  -0.53516  -0.51423  -0.37811  -0.37811
 Alpha  occ. eigenvalues --   -0.17956  -0.17733  -0.17733
 Alpha virt. eigenvalues --    0.15410   0.16948   0.16948   0.21852   0.26243
 Alpha virt. eigenvalues --    0.26243   0.29914   0.31054   0.33372   0.33372
 Alpha virt. eigenvalues --    0.39478   0.41723   0.41723   0.43615   0.43615

 Mulliken charges:
               1
     1  F   -0.702741
     2  C    0.374276
     3  H    0.105814
     4  H    0.105814
     5  H    0.105814
     6  Cl  -0.988977
 Sum of Mulliken charges =  -1.00000

 Dipole moment (field-independent basis, Debye):
    X=             -0.0000    Y=              0.0000    Z=             -6.5462  Tot=              6.5462

 Test job not archived.
 1\1\GINC-SE070\SP\RHF\Aug-CC-pVDZ\C1H3Cl1F1(1-)\OHZDE\09-Apr-2025\0\\#
 t hf aug-cc-pvdz iop(5/13=1,5/36=2,99/5=2) pseudo=read geom=check gues
 s=(read,tcheck) scf=(maxcycle=1)\\title\\-1,1\F,0,0.,0.,-1.88993612\C,
 0,0.,0.,-0.48156273\H,0,-0.51235996,0.88743348,-0.12780247\H,0,-0.5123
 5996,-0.88743348,-0.12780247\H,0,1.02471992,0.,-0.12780247\Cl,0,0.,0.,
 2.75490626\\Version=ES64L-G16RevC.01\State=1-A1\HF=-598.8509972\RMSD=5
 .138e-03\Dipole=0.,0.,-2.5754732\Quadrupole=7.3529007,7.3529007,-14.70
 58013,0.,0.,0.\PG=C03V [C3(F1C1Cl1),3SGV(H1)]\\@

 Normal termination of Gaussian 16 at Wed Apr  9 02:08:56 2025.
