 Gaussian 16, Revision C.01,

 ----------------------------------------------------------------------
 #t hf aug-cc-pvdz symm=none int=(grid=ultrafine) guess=(read,tcheck) s
 table=(opt,rrhf)
 ----------------------------------------------------------------------
 -----
 title
 -----
 Symbolic Z-matrix:
 Charge =  0 Multiplicity = 1

 SCF Done:  E(RHF) =  -499.122199607     A.U. after   11 cycles

 1\1\GINC-SE127\Stability\RHF\Aug-CC-pVDZ\C1H3Cl1\OHZDE\09-Apr-2025\0\\
 #t hf aug-cc-pvdz symm=none int=(grid=ultrafine) guess=(read,tcheck) s
 table=(opt,rrhf)\\title\\0,1\C,0,0.,0.,-0.14991696\Cl,0,0.,0.,1.632801
 68\H,0,-0.51399776,-0.89027024,-0.49429491\H,0,-0.51399776,0.89027024,
 -0.49429491\H,0,1.02799552,0.,-0.49429491\\Version=ES64L-G16RevC.01\HF
 =-499.1221996\RMSD=1.698e-09\Dipole=0.,0.,-0.8571707\Quadrupole=0.5867
 ,0.5867001,-1.1734001,0.,0.,0.\PG=Unknown\\@
 The archive entry for this job was punched.

 Normal termination of Gaussian 16 at Wed Apr  9 02:08:54 2025.
 Gaussian 16:  ES64L-G16RevC.01  3-Jul-2019

 ----------------------------------------------------------------------
 #t hf aug-cc-pvdz iop(5/13=1,5/36=2,99/5=2) pseudo=read geom=check gue
 ss=(read,tcheck) scf=(maxcycle=1)
 ----------------------------------------------------------------------
 -----
 title
 -----
 Structure from the checkpoint file:  "BH76RC_5_mol2.chk"
 Charge =  0 Multiplicity = 1

                         Standard orientation:
 ---------------------------------------------------------------------
 Center     Atomic      Atomic             Coordinates (Angstroms)
 Number     Number       Type             X           Y           Z
 ---------------------------------------------------------------------
      1          6           0        0.000000    0.000000   -1.125888
      2         17           0        0.000000    0.000000    0.656831
      3          1           0        0.000000    1.027996   -1.470266
      4          1           0        0.890270   -0.513998   -1.470266
      5          1           0       -0.890270   -0.513998   -1.470266
 ---------------------------------------------------------------------

 SCF Done:  E(RHF) =  -499.245233733     A.U. after    2 cycles

 The electronic state is 1-A1.
 Alpha  occ. eigenvalues -- -105.55744 -11.30250 -10.60580  -7.77526  -7.77136
 Alpha  occ. eigenvalues --   -7.77136  -1.10018  -0.90576  -0.62719  -0.62719
 Alpha  occ. eigenvalues --   -0.55852  -0.44519  -0.44519
 Alpha virt. eigenvalues --    0.03359   0.05519   0.05519   0.07622   0.13781
 Alpha virt. eigenvalues --    0.15024   0.15024   0.15475   0.16801   0.16801
 Alpha virt. eigenvalues --    0.23333   0.26606   0.26606   0.29805   0.34941

 Mulliken charges:
               1
     1  C   -0.448773
     2  Cl  -0.145003
     3  H    0.197925
     4  H    0.197925
     5  H    0.197925
 Sum of Mulliken charges =  -0.00000

 Dipole moment (field-independent basis, Debye):
    X=              0.0000    Y=              0.0000    Z=             -2.1844  Tot=              2.1844

 Test job not archived.
 1\1\GINC-SE127\SP\RHF\Aug-CC-pVDZ\C1H3Cl1\OHZDE\09-Apr-2025\0\\#t hf a
 ug-cc-pvdz iop(5/13=1,5/36=2,99/5=2) pseudo=read geom=check guess=(rea
 d,tcheck) scf=(maxcycle=1)\\title\\0,1\C,0,0.,0.,-0.14991696\Cl,0,0.,0
 .,1.63280168\H,0,-0.51399776,-0.89027024,-0.49429491\H,0,-0.51399776,0
 .89027024,-0.49429491\H,0,1.02799552,0.,-0.49429491\\Version=ES64L-G16
 RevC.01\State=1-A1\HF=-499.2452337\RMSD=5.340e-03\Dipole=0.,0.,-0.8594
 256\Quadrupole=-0.4814604,-0.4814604,0.9629208,0.,0.,0.\PG=C03V [C3(C1
 Cl1),3SGV(H1)]\\@

 Normal termination of Gaussian 16 at Wed Apr  9 02:08:55 2025.
