 Gaussian 16, Revision C.01,

 ----------------------------------------------------------------------
 #t hf aug-cc-pvdz symm=none int=(grid=ultrafine) guess=(read,tcheck) s
 table=(opt,rrhf)
 ----------------------------------------------------------------------
 -----
 title
 -----
 Symbolic Z-matrix:
 Charge = -1 Multiplicity = 1

 SCF Done:  E(RHF) =  -598.574269392     A.U. after   12 cycles
 Normal termination of Gaussian 16 at Wed Apr  9 02:08:54 2025.
 Gaussian 16:  ES64L-G16RevC.01  3-Jul-2019

 ----------------------------------------------------------------------
 #t hf aug-cc-pvdz iop(5/13=1,5/36=2,99/5=2) pseudo=read geom=check gue
 ss=(read,tcheck) scf=(maxcycle=1)
 ----------------------------------------------------------------------
 -----
 title
 -----
 Structure from the checkpoint file:  "BH76RC_6_mol1.chk"
 Charge = -1 Multiplicity = 1

                         Standard orientation:
 ---------------------------------------------------------------------
 Center     Atomic      Atomic             Coordinates (Angstroms)
 Number     Number       Type             X           Y           Z
 ---------------------------------------------------------------------
      1         17           0        0.000000    0.000000    1.623140
      2          6           0        0.000000    0.000000   -0.227359
      3          1           0        0.000000    1.026323   -0.555139
      4          1           0        0.888822   -0.513162   -0.555139
      5          1           0       -0.888822   -0.513162   -0.555139
      6          9           0        0.000000    0.000000   -2.729311
 ---------------------------------------------------------------------

 SCF Done:  E(RHF) =  -598.791856833     A.U. after    2 cycles

 The electronic state is 1-A1.
 Alpha  occ. eigenvalues -- -105.40107 -26.04033 -11.13001 -10.44943  -7.61856
 Alpha  occ. eigenvalues --   -7.61551  -7.61551  -1.09107  -0.92330  -0.73748
 Alpha  occ. eigenvalues --   -0.45062  -0.45062  -0.38397  -0.29562  -0.29562
 Alpha  occ. eigenvalues --   -0.19843  -0.19843  -0.19832
 Alpha virt. eigenvalues --    0.16064   0.17444   0.17444   0.20044   0.28132
 Alpha virt. eigenvalues --    0.28132   0.28334   0.28838   0.28838   0.31558
 Alpha virt. eigenvalues --    0.38678   0.42944   0.42944   0.43016   0.50027

 Mulliken charges:
               1
     1  Cl  -0.342605
     2  C   -0.396149
     3  H    0.233083
     4  H    0.233083
     5  H    0.233083
     6  F   -0.960495
 Sum of Mulliken charges =  -1.00000

 Dipole moment (field-independent basis, Debye):
    X=              0.0000    Y=              0.0000    Z=              8.1849  Tot=              8.1849

 Test job not archived.
 1\1\GINC-SE345\SP\RHF\Aug-CC-pVDZ\C1H3Cl1F1(1-)\OHZDE\09-Apr-2025\0\\#
 t hf aug-cc-pvdz iop(5/13=1,5/36=2,99/5=2) pseudo=read geom=check gues
 s=(read,tcheck) scf=(maxcycle=1)\\title\\-1,1\Cl,0,0.,0.,2.12296416\C,
 0,0.,0.,0.27246585\H,0,-0.51316166,-0.88882207,-0.05531445\H,0,-0.5131
 6166,0.88882207,-0.05531445\H,0,1.02632332,0.,-0.05531445\F,0,0.,0.,-2
 .22948665\\Version=ES64L-G16RevC.01\State=1-A1\HF=-598.7918568\RMSD=4.
 645e-03\Dipole=0.,0.,3.2202\Quadrupole=9.7603016,9.7603016,-19.5206032
 ,0.,0.,0.\PG=C03V [C3(F1C1Cl1),3SGV(H1)]\\@

 Normal termination of Gaussian 16 at Wed Apr  9 02:08:56 2025.
