 Gaussian 16, Revision C.01,

 ----------------------------------------------------------------------
 #t hf aug-cc-pvdz symm=none int=(grid=ultrafine) guess=(read,tcheck) s
 table=(opt,rrhf)
 ----------------------------------------------------------------------
 -----
 title
 -----
 Symbolic Z-matrix:
 Charge =  0 Multiplicity = 1

 SCF Done:  E(RHF) =  -460.092614788     A.U. after    9 cycles
 Normal termination of Gaussian 16 at Wed Apr  9 02:08:23 2025.
 Gaussian 16:  ES64L-G16RevC.01  3-Jul-2019

 ----------------------------------------------------------------------
 #t hf aug-cc-pvdz iop(5/13=1,5/36=2,99/5=2) pseudo=read geom=check gue
 ss=(read,tcheck) scf=(maxcycle=1)
 ----------------------------------------------------------------------
 -----
 title
 -----
 Structure from the checkpoint file:  "BH76RC_14_mol2.chk"
 Charge =  0 Multiplicity = 1

                         Standard orientation:
 ---------------------------------------------------------------------
 Center     Atomic      Atomic             Coordinates (Angstroms)
 Number     Number       Type             X           Y           Z
 ---------------------------------------------------------------------
      1         17           0        0.000000    0.000000    0.070803
      2          1           0        0.000000    0.000000   -1.203645
 ---------------------------------------------------------------------

 SCF Done:  E(RHF) =  -460.170444164     A.U. after    2 cycles

 The electronic state is 1-SG.
 Alpha  occ. eigenvalues -- -105.58437 -10.63217  -7.80207  -7.79793  -7.79793
 Alpha  occ. eigenvalues --   -1.07648  -0.63424  -0.48695  -0.48695
 Alpha virt. eigenvalues --    0.03512   0.12658   0.14004   0.14004   0.17978
 Alpha virt. eigenvalues --    0.21230   0.31176   0.31176   0.45482   0.45482
 Alpha virt. eigenvalues --    0.47900   0.57584   0.59419   0.59419   0.90214

 Mulliken charges:
               1
     1  Cl  -0.160080
     2  H    0.160080
 Sum of Mulliken charges =  -0.00000

 Dipole moment (field-independent basis, Debye):
    X=             -0.0000    Y=              0.0000    Z=             -1.2607  Tot=              1.2607

 Test job not archived.
 1\1\GINC-SE127\SP\RHF\Aug-CC-pVDZ\Cl1H1\OHZDE\09-Apr-2025\0\\#t hf aug
 -cc-pvdz iop(5/13=1,5/36=2,99/5=2) pseudo=read geom=check guess=(read,
 tcheck) scf=(maxcycle=1)\\title\\0,1\Cl,0,0.,0.,0.07080285\H,0,0.,0.,-
 1.20364532\\Version=ES64L-G16RevC.01\State=1-SG\HF=-460.1704442\RMSD=4
 .540e-03\Dipole=0.,0.,-0.4960171\Quadrupole=-0.9551046,-0.9551046,1.91
 02092,0.,0.,0.\PG=C*V [C*(H1Cl1)]\\@

 Normal termination of Gaussian 16 at Wed Apr  9 02:08:24 2025.
