 Gaussian 16, Revision C.01,

 ----------------------------------------------------------------------
 #t hf aug-cc-pvdz symm=none int=(grid=ultrafine) guess=(read,tcheck) s
 table=(opt,rrhf)
 ----------------------------------------------------------------------
 -----
 title
 -----
 Symbolic Z-matrix:
 Charge = -1 Multiplicity = 1

 SCF Done:  E(RHF) =  -214.529543669     A.U. after   12 cycles
 Normal termination of Gaussian 16 at Wed Apr  9 02:09:25 2025.
 Gaussian 16:  ES64L-G16RevC.01  3-Jul-2019

 ----------------------------------------------------------------------
 #t hf aug-cc-pvdz iop(5/13=1,5/36=2,99/5=2) pseudo=read geom=check gue
 ss=(read,tcheck) scf=(maxcycle=1)
 ----------------------------------------------------------------------
 -----
 title
 -----
 Structure from the checkpoint file:  "BH76RC_8_mol2.chk"
 Charge = -1 Multiplicity = 1

                         Standard orientation:
 ---------------------------------------------------------------------
 Center     Atomic      Atomic             Coordinates (Angstroms)
 Number     Number       Type             X           Y           Z
 ---------------------------------------------------------------------
      1          6           0       -1.297998   -0.389518   -0.000034
      2          8           0       -0.477223    0.728021    0.000054
      3          1           0       -2.351923   -0.080231   -0.008639
      4          1           0       -1.140853   -1.035821   -0.878101
      5          1           0       -1.153178   -1.027513    0.886361
      6          1           0        0.510581    0.371160    0.000243
      7          9           0        1.749015   -0.190518   -0.000010
 ---------------------------------------------------------------------

 SCF Done:  E(RHF) =  -214.746543843     A.U. after    2 cycles

 The electronic state is 1-A.
 Alpha  occ. eigenvalues --  -26.07945 -20.30572 -11.09922  -1.21674  -1.14168
 Alpha  occ. eigenvalues --   -0.72988  -0.48133  -0.42681  -0.39669  -0.31670
 Alpha  occ. eigenvalues --   -0.24760  -0.24338  -0.21486  -0.21368
 Alpha virt. eigenvalues --    0.14218   0.16204   0.17000   0.21411   0.24235
 Alpha virt. eigenvalues --    0.27242   0.28879   0.31546   0.36686   0.40144
 Alpha virt. eigenvalues --    0.40766   0.44658   0.44762   0.46992   0.48481

 Mulliken charges:
               1
     1  C    0.441188
     2  O   -1.228241
     3  H   -0.051761
     4  H    0.049785
     5  H    0.050452
     6  H    0.746899
     7  F   -1.008321
 Sum of Mulliken charges =  -1.00000

 Dipole moment (field-independent basis, Debye):
    X=             -4.6834    Y=             -0.9587    Z=             -0.0010  Tot=              4.7805

 Test job not archived.
 1\1\GINC-SE366\SP\RHF\Aug-CC-pVDZ\C1H4F1O1(1-)\OHZDE\09-Apr-2025\0\\#t
  hf aug-cc-pvdz iop(5/13=1,5/36=2,99/5=2) pseudo=read geom=check guess
 =(read,tcheck) scf=(maxcycle=1)\\title\\-1,1\C,0,-1.29799761,-0.389518
 35,-0.000034\O,0,-0.47722312,0.72802084,0.000054\H,0,-2.35192282,-0.08
 023226,-0.00863903\H,0,-1.14085315,-1.03582206,-0.87810079\H,0,-1.1531
 7769,-1.02751397,0.88636124\H,0,0.51058034,0.37116013,0.000243\F,0,1.7
 4901535,-0.19051703,-0.00001\\Version=ES64L-G16RevC.01\State=1-A\HF=-2
 14.7465438\RMSD=6.902e-03\Dipole=-1.8425826,-0.3771899,-0.0004088\Quad

 Normal termination of Gaussian 16 at Wed Apr  9 02:09:27 2025.
