 Gaussian 16, Revision C.01,

 ----------------------------------------------------------------------
 #t hf aug-cc-pvdz symm=none int=(grid=ultrafine) guess=(read,tcheck) s
 table=(opt,rrhf)
 ----------------------------------------------------------------------
 -----
 title
 -----
 Symbolic Z-matrix:
 Charge =  0 Multiplicity = 1

 SCF Done:  E(RHF) =  -521.848443976     A.U. after   14 cycles
 Normal termination of Gaussian 16 at Wed Apr  9 02:10:40 2025.
 Gaussian 16:  ES64L-G16RevC.01  3-Jul-2019

 ----------------------------------------------------------------------
 #t hf aug-cc-pvdz iop(5/13=1,5/36=2,99/5=2) pseudo=read geom=check gue
 ss=(read,tcheck) scf=(maxcycle=1)
 ----------------------------------------------------------------------
 -----
 title
 -----
 Structure from the checkpoint file:  "BHPERI26_21_mol3.chk"
 Charge =  0 Multiplicity = 1

                         Standard orientation:
 ---------------------------------------------------------------------
 Center     Atomic      Atomic             Coordinates (Angstroms)
 Number     Number       Type             X           Y           Z
 ---------------------------------------------------------------------
      1          6           0       -0.346546   -0.214154    1.304476
      2         14           0       -1.060364    0.923157    0.000000
      3          6           0        1.665055    0.555957    0.697742
      4          6           0       -0.346546   -1.479880    0.704231
      5          6           0       -0.346546   -0.214154   -1.304476
      6          6           0        1.665055    0.555957   -0.697742
      7          6           0       -0.346546   -1.479880   -0.704231
      8          1           0       -0.363922   -0.112722    2.383393
      9          1           0       -2.551732    0.897438    0.000000
     10          1           0       -0.614421    2.338869    0.000000
     11          1           0        1.581146    1.493924    1.233399
     12          1           0        2.167138   -0.234286    1.237947
     13          1           0       -0.210520   -2.398707    1.267424
     14          1           0       -0.363922   -0.112722   -2.383393
     15          1           0        1.581146    1.493924   -1.233399
     16          1           0        2.167138   -0.234286   -1.237947
     17          1           0       -0.210520   -2.398707   -1.267424
 ---------------------------------------------------------------------

 SCF Done:  E(RHF) =  -522.128673580     A.U. after    2 cycles

 The electronic state is 1-A'.
 Alpha  occ. eigenvalues --  -69.52402 -11.24443 -11.24369 -11.23762 -11.23697
 Alpha  occ. eigenvalues --  -11.23568 -11.23552  -6.19393  -3.94762  -3.94706
 Alpha  occ. eigenvalues --   -3.94698  -1.11725  -1.02173  -0.96009  -0.85703
 Alpha  occ. eigenvalues --   -0.80216  -0.71890  -0.70138  -0.67535  -0.63393
 Alpha  occ. eigenvalues --   -0.58701  -0.56047  -0.54749  -0.52642  -0.51684
 Alpha  occ. eigenvalues --   -0.47993  -0.44455  -0.44351  -0.31789  -0.31242
 Alpha virt. eigenvalues --    0.03257   0.03473   0.03672   0.04687   0.05328
 Alpha virt. eigenvalues --    0.05728   0.06037   0.06115   0.06682   0.08576
 Alpha virt. eigenvalues --    0.08775   0.08963   0.11036   0.11992   0.12181

 Mulliken charges:
               1
     1  C   -0.202030
     2  Si   0.686638
     3  C    0.038067
     4  C    0.342341
     5  C   -0.202030
     6  C    0.038067
     7  C    0.342341
     8  H   -0.265778
     9  H   -0.039271
    10  H   -0.006564
    11  H   -0.035575
    12  H   -0.023554
    13  H   -0.173873
    14  H   -0.265778
    15  H   -0.035575
    16  H   -0.023554
    17  H   -0.173873
 Sum of Mulliken charges =  -0.00000

 Dipole moment (field-independent basis, Debye):
    X=              0.7271    Y=             -0.1342    Z=              0.0000  Tot=              0.7394

 Test job not archived.
 1\1\GINC-SE403\SP\RHF\Aug-CC-pVDZ\C6H10Si1\OHZDE\09-Apr-2025\0\\#t hf
 aug-cc-pvdz iop(5/13=1,5/36=2,99/5=2) pseudo=read geom=check guess=(re
 ad,tcheck) scf=(maxcycle=1)\\title\\0,1\C,0,-0.60440289,0.09628447,1.3
 0447607\Si,0,-0.74911343,1.43122735,0.\C,0,1.54144542,-0.09064058,0.69
 774155\C,0,-1.15781215,-1.04204796,0.70423074\C,0,-0.60440289,0.096284
 47,-1.30447607\C,0,1.54144542,-0.09064058,-0.69774155\C,0,-1.15781215,
 -1.04204796,-0.70423074\H,0,-0.57568156,0.19510472,2.38339309\H,0,-2.1
 0162282,2.06016253,0.\H,0,0.27093286,2.50947166,0.\H,0,1.87608655,0.78

 Normal termination of Gaussian 16 at Wed Apr  9 02:10:45 2025.
