 Gaussian 16, Revision C.01,

 ----------------------------------------------------------------------
 #t hf aug-cc-pvdz symm=none int=(grid=ultrafine) guess=(read,tcheck) s
 table=(opt,rrhf)
 ----------------------------------------------------------------------
 -----
 title
 -----
 Symbolic Z-matrix:
 Charge =  0 Multiplicity = 1

 SCF Done:  E(RHF) =  -573.066873776     A.U. after   15 cycles
 Normal termination of Gaussian 16 at Wed Apr  9 02:11:11 2025.
 Gaussian 16:  ES64L-G16RevC.01  3-Jul-2019

 ----------------------------------------------------------------------
 #t hf aug-cc-pvdz iop(5/13=1,5/36=2,99/5=2) pseudo=read geom=check gue
 ss=(read,tcheck) scf=(maxcycle=1)
 ----------------------------------------------------------------------
 -----
 title
 -----
 Structure from the checkpoint file:  "BHPERI26_25_mol3.chk"
 Charge =  0 Multiplicity = 1

                         Standard orientation:
 ---------------------------------------------------------------------
 Center     Atomic      Atomic             Coordinates (Angstroms)
 Number     Number       Type             X           Y           Z
 ---------------------------------------------------------------------
      1          1           0       -2.176208    0.853743    1.292398
      2          6           0       -1.277980    0.737855    0.696552
      3          6           0       -0.029503    0.378132    1.243025
      4          6           0       -1.277980    0.737855   -0.696552
      5          1           0        2.132482   -0.173140    0.000000
      6         15           0        1.203305    0.902023    0.000000
      7          6           0       -0.029503   -1.774930    0.696470
      8          1           0        0.159520    0.417499    2.309561
      9          6           0       -0.029503   -1.774930   -0.696470
     10          1           0       -2.176208    0.853743   -1.292398
     11          6           0       -0.029503    0.378132   -1.243025
     12          1           0        0.159520    0.417499   -2.309561
     13          1           0        0.885185   -1.984480   -1.237100
     14          1           0       -0.937611   -2.011713    1.235148
     15          1           0        0.885185   -1.984480    1.237100
     16          1           0       -0.937611   -2.011713   -1.235148
 ---------------------------------------------------------------------

 SCF Done:  E(RHF) =  -573.356373674     A.U. after    2 cycles

 The electronic state is 1-A'.
 Alpha  occ. eigenvalues --  -84.27358 -11.25896 -11.25869 -11.24168 -11.24089
 Alpha  occ. eigenvalues --  -11.23933 -11.23861  -6.74392  -4.27199  -4.27033
 Alpha  occ. eigenvalues --   -4.26253  -1.14140  -1.01766  -0.96633  -0.91179
 Alpha  occ. eigenvalues --   -0.79835  -0.75499  -0.71807  -0.69527  -0.63421
 Alpha  occ. eigenvalues --   -0.58348  -0.56332  -0.55090  -0.53673  -0.51131
 Alpha  occ. eigenvalues --   -0.48225  -0.45687  -0.34328  -0.32610  -0.30295
 Alpha virt. eigenvalues --    0.03416   0.03557   0.03880   0.04985   0.05306
 Alpha virt. eigenvalues --    0.05755   0.06142   0.06971   0.07939   0.08718
 Alpha virt. eigenvalues --    0.10236   0.10951   0.12290   0.12458   0.14023

 Mulliken charges:
               1
     1  H   -0.180107
     2  C    0.211124
     3  C    0.013824
     4  C    0.211124
     5  H    0.533668
     6  P    0.055272
     7  C    0.020320
     8  H   -0.280779
     9  C    0.020320
    10  H   -0.180107
    11  C    0.013824
    12  H   -0.280779
    13  H   -0.029491
    14  H   -0.049362
    15  H   -0.029491
    16  H   -0.049362
 Sum of Mulliken charges =   0.00000

 Dipole moment (field-independent basis, Debye):
    X=             -0.2656    Y=             -0.6186    Z=             -0.0000  Tot=              0.6732

 Test job not archived.
 1\1\GINC-SE041\SP\RHF\Aug-CC-pVDZ\C6H9P1\OHZDE\09-Apr-2025\0\\#t hf au
 g-cc-pvdz iop(5/13=1,5/36=2,99/5=2) pseudo=read geom=check guess=(read
 ,tcheck) scf=(maxcycle=1)\\title\\0,1\H,0,-1.95893181,1.23117454,1.292
 39837\C,0,-1.06070455,1.11528651,0.6965522\C,0,0.1877728,0.7555634,1.2
 4302535\C,0,-1.06070455,1.11528651,-0.6965522\H,0,2.34975742,0.2042912
 5,0.\P,0,1.42058115,1.27945455,0.\C,0,0.1877728,-1.39749821,0.6964702\
 H,0,0.37679586,0.79493041,2.30956066\C,0,0.1877728,-1.39749821,-0.6964
 702\H,0,-1.95893181,1.23117454,-1.29239837\C,0,0.1877728,0.7555634,-1.

 Normal termination of Gaussian 16 at Wed Apr  9 02:11:17 2025.
