 Gaussian 16, Revision C.01,

 ----------------------------------------------------------------------
 #t hf aug-cc-pvdz symm=none int=(grid=ultrafine) guess=(read,tcheck) s
 table=(opt,rrhf)
 ----------------------------------------------------------------------
 -----
 title
 -----
 Symbolic Z-matrix:
 Charge =  0 Multiplicity = 1

 SCF Done:  E(RHF) =  -629.286459389     A.U. after   15 cycles
 Normal termination of Gaussian 16 at Wed Apr  9 02:11:37 2025.
 Gaussian 16:  ES64L-G16RevC.01  3-Jul-2019

 ----------------------------------------------------------------------
 #t hf aug-cc-pvdz iop(5/13=1,5/36=2,99/5=2) pseudo=read geom=check gue
 ss=(read,tcheck) scf=(maxcycle=1)
 ----------------------------------------------------------------------
 -----
 title
 -----
 Structure from the checkpoint file:  "BHPERI26_26_mol3.chk"
 Charge =  0 Multiplicity = 1

                         Standard orientation:
 ---------------------------------------------------------------------
 Center     Atomic      Atomic             Coordinates (Angstroms)
 Number     Number       Type             X           Y           Z
 ---------------------------------------------------------------------
      1          6           0       -0.005137    0.390174    1.204752
      2         16           0        1.216920    0.813244    0.000000
      3          6           0       -0.005137   -1.714447    0.702159
      4          6           0       -1.294288    0.694069    0.686481
      5          6           0       -0.005137    0.390174   -1.204752
      6          6           0       -0.005137   -1.714447   -0.702159
      7          6           0       -1.294288    0.694069   -0.686481
      8          1           0        0.260498    0.477189    2.250149
      9          1           0        0.915735   -1.928851    1.230286
     10          1           0       -0.903787   -2.002111    1.233478
     11          1           0       -2.180432    0.729041    1.307287
     12          1           0        0.260498    0.477189   -2.250149
     13          1           0        0.915735   -1.928851   -1.230286
     14          1           0       -0.903787   -2.002111   -1.233478
     15          1           0       -2.180432    0.729041   -1.307287
 ---------------------------------------------------------------------

 SCF Done:  E(RHF) =  -629.589785801     A.U. after    2 cycles

 The electronic state is 1-A'.
 Alpha  occ. eigenvalues --  -93.95721 -11.28693 -11.28639 -11.24136 -11.24051
 Alpha  occ. eigenvalues --  -11.23968 -11.23905  -8.23824  -6.21592  -6.21522
 Alpha  occ. eigenvalues --   -6.21269  -1.17879  -1.01635  -0.99854  -0.97616
 Alpha  occ. eigenvalues --   -0.79827  -0.78376  -0.74327  -0.70763  -0.63595
 Alpha  occ. eigenvalues --   -0.58313  -0.56598  -0.56344  -0.55365  -0.52349
 Alpha  occ. eigenvalues --   -0.49944  -0.48036  -0.35073  -0.34051  -0.31265
 Alpha virt. eigenvalues --    0.03293   0.03502   0.04044   0.04927   0.05363
 Alpha virt. eigenvalues --    0.06003   0.06155   0.08286   0.08881   0.09212
 Alpha virt. eigenvalues --    0.10891   0.12257   0.12793   0.13756   0.14263

 Mulliken charges:
               1
     1  C   -0.509573
     2  S    0.507263
     3  C    0.040436
     4  C    0.540900
     5  C   -0.509573
     6  C    0.040436
     7  C    0.540900
     8  H   -0.160787
     9  H    0.001996
    10  H   -0.017721
    11  H   -0.148882
    12  H   -0.160787
    13  H    0.001996
    14  H   -0.017721
    15  H   -0.148882
 Sum of Mulliken charges =  -0.00000

 Dipole moment (field-independent basis, Debye):
    X=             -1.1171    Y=             -0.6225    Z=              0.0000  Tot=              1.2788

 Test job not archived.
 1\1\GINC-SE029\SP\RHF\Aug-CC-pVDZ\C6H8S1\OHZDE\09-Apr-2025\0\\#t hf au
 g-cc-pvdz iop(5/13=1,5/36=2,99/5=2) pseudo=read geom=check guess=(read
 ,tcheck) scf=(maxcycle=1)\\title\\0,1\C,0,0.82811617,-0.21159069,1.204
 75228\S,0,1.44229834,-1.34965552,0.\C,0,-1.2490846,-0.5502165,0.702159
 2\C,0,0.92063189,1.10965989,0.68648123\C,0,0.82811617,-0.21159069,-1.2
 0475228\C,0,-1.2490846,-0.5502165,-0.7021592\C,0,0.92063189,1.10965989
 ,-0.68648123\H,0,0.95673688,-0.45976412,2.25014885\H,0,-1.31253023,-1.
 49358792,1.23028597\H,0,-1.67759031,0.29044161,1.23347838\H,0,0.812571

 Normal termination of Gaussian 16 at Wed Apr  9 02:11:41 2025.
