 Gaussian 16, Revision C.01,

 ----------------------------------------------------------------------
 #t hf aug-cc-pvdz symm=none int=(grid=ultrafine) guess=(read,tcheck) s
 table=(opt,rrhf)
 ----------------------------------------------------------------------
 -----
 title
 -----
 Symbolic Z-matrix:
 Charge =  0 Multiplicity = 1

 SCF Done:  E(RHF) =  -573.067317299     A.U. after   15 cycles
 Normal termination of Gaussian 16 at Wed Apr  9 02:10:49 2025.
 Gaussian 16:  ES64L-G16RevC.01  3-Jul-2019

 ----------------------------------------------------------------------
 #t hf aug-cc-pvdz iop(5/13=1,5/36=2,99/5=2) pseudo=read geom=check gue
 ss=(read,tcheck) scf=(maxcycle=1)
 ----------------------------------------------------------------------
 -----
 title
 -----
 Structure from the checkpoint file:  "BHPERI26_24_mol3.chk"
 Charge =  0 Multiplicity = 1

                         Standard orientation:
 ---------------------------------------------------------------------
 Center     Atomic      Atomic             Coordinates (Angstroms)
 Number     Number       Type             X           Y           Z
 ---------------------------------------------------------------------
      1          1           0       -1.555451    1.784068    1.290038
      2          6           0       -0.800401    1.277384    0.698094
      3          6           0        0.136699    0.394952    1.247013
      4          6           0       -0.800401    1.277384   -0.698094
      5          1           0        2.017003    1.316940    0.000000
      6         15           0        1.441209    0.002458    0.000000
      7          6           0       -0.800401   -1.551526    0.697823
      8          1           0        0.314024    0.315799    2.312915
      9          6           0       -0.800401   -1.551526   -0.697823
     10          1           0       -1.555451    1.784068   -1.290038
     11          6           0        0.136699    0.394952   -1.247013
     12          1           0        0.314024    0.315799   -2.312915
     13          1           0       -0.077974   -2.157056   -1.231458
     14          1           0       -1.713547   -1.344579    1.238859
     15          1           0       -0.077974   -2.157056    1.231458
     16          1           0       -1.713547   -1.344579   -1.238859
 ---------------------------------------------------------------------

 SCF Done:  E(RHF) =  -573.357143629     A.U. after    2 cycles

 The electronic state is 1-A'.
 Alpha  occ. eigenvalues --  -84.26990 -11.25745 -11.25719 -11.24523 -11.24449
 Alpha  occ. eigenvalues --  -11.23856 -11.23781  -6.73931  -4.26592  -4.26581
 Alpha  occ. eigenvalues --   -4.25937  -1.13663  -1.02332  -0.96522  -0.90799
 Alpha  occ. eigenvalues --   -0.80291  -0.75214  -0.71743  -0.68819  -0.64207
 Alpha  occ. eigenvalues --   -0.58784  -0.56367  -0.56274  -0.53794  -0.51672
 Alpha  occ. eigenvalues --   -0.45447  -0.44762  -0.34050  -0.32486  -0.31588
 Alpha virt. eigenvalues --    0.03460   0.03563   0.04114   0.04796   0.05405
 Alpha virt. eigenvalues --    0.06029   0.06055   0.06401   0.07940   0.08798
 Alpha virt. eigenvalues --    0.09914   0.10300   0.12398   0.13964   0.13970

 Mulliken charges:
               1
     1  H   -0.165163
     2  C    0.275744
     3  C   -0.209335
     4  C    0.275744
     5  H    0.525290
     6  P    0.150181
     7  C    0.061407
     8  H   -0.270142
     9  C    0.061407
    10  H   -0.165163
    11  C   -0.209335
    12  H   -0.270142
    13  H   -0.003525
    14  H   -0.026722
    15  H   -0.003525
    16  H   -0.026722
 Sum of Mulliken charges =  -0.00000

 Dipole moment (field-independent basis, Debye):
    X=             -0.8570    Y=              0.0411    Z=              0.0000  Tot=              0.8580

 Test job not archived.
 1\1\GINC-SE404\SP\RHF\Aug-CC-pVDZ\C6H9P1\OHZDE\09-Apr-2025\0\\#t hf au
 g-cc-pvdz iop(5/13=1,5/36=2,99/5=2) pseudo=read geom=check guess=(read
 ,tcheck) scf=(maxcycle=1)\\title\\0,1\H,0,-1.20945809,1.86172553,1.290
 03837\C,0,-0.45440788,1.35504139,0.6980942\C,0,0.48269239,0.47260913,1
 .24701336\C,0,-0.45440788,1.35504139,-0.6980942\H,0,2.36299592,1.39459
 74,0.\P,0,1.78720176,0.08011502,0.\C,0,-0.45440788,-1.47386842,0.69782
 32\H,0,0.66001744,0.39345611,2.31291466\C,0,-0.45440788,-1.47386842,-0
 .6978232\H,0,-1.20945809,1.86172553,-1.29003837\C,0,0.48269239,0.47260

 Normal termination of Gaussian 16 at Wed Apr  9 02:10:54 2025.
