 Gaussian 16, Revision C.01,

 ----------------------------------------------------------------------
 #t hf aug-cc-pvdz symm=none int=(grid=ultrafine) guess=(read,tcheck) s
 table=(opt,rrhf)
 ----------------------------------------------------------------------
 -----
 title
 -----
 Symbolic Z-matrix:
 Charge =  0 Multiplicity = 1

 SCF Done:  E(RHF) =  -1101.50043630     A.U. after   15 cycles
 Normal termination of Gaussian 16 at Wed Apr  9 02:13:19 2025.
 Gaussian 16:  ES64L-G16RevC.01  3-Jul-2019

 ----------------------------------------------------------------------
 #t hf aug-cc-pvdz iop(5/13=1,5/36=2,99/5=2) pseudo=read geom=check gue
 ss=(read,tcheck) scf=(maxcycle=1)
 ----------------------------------------------------------------------
 -----
 title
 -----
 Structure from the checkpoint file:  "BHROT27_21_mol1.chk"
 Charge =  0 Multiplicity = 1

                         Standard orientation:
 ---------------------------------------------------------------------
 Center     Atomic      Atomic             Coordinates (Angstroms)
 Number     Number       Type             X           Y           Z
 ---------------------------------------------------------------------
      1          6           0       -0.251265    1.560482    1.364124
      2          6           0       -0.156974    2.924471    1.018780
      3          6           0        0.156974    3.111837   -0.290948
      4         16           0        0.356216    1.628452   -1.103796
      5          6           0       -0.000624    0.722125    0.312545
      6          6           0        0.000624   -0.722125    0.312545
      7         16           0       -0.356216   -1.628452   -1.103796
      8          6           0       -0.156974   -3.111837   -0.290948
      9          6           0        0.156974   -2.924471    1.018780
     10          6           0        0.251265   -1.560482    1.364124
     11          1           0       -0.517943    1.200711    2.343447
     12          1           0       -0.325204    3.733132    1.709456
     13          1           0        0.282376    4.038401   -0.819168
     14          1           0       -0.282376   -4.038401   -0.819168
     15          1           0        0.325204   -3.733132    1.709456
     16          1           0        0.517943   -1.200711    2.343447
 ---------------------------------------------------------------------

 SCF Done:  E(RHF) =  -1101.92928875     A.U. after    2 cycles

 The electronic state is 1-A.
 Alpha  occ. eigenvalues --  -93.97986 -93.97980 -11.28125 -11.28058 -11.26973
 Alpha  occ. eigenvalues --  -11.26968 -11.24704 -11.24699 -11.24569 -11.24552
 Alpha  occ. eigenvalues --   -8.26286  -8.26282  -6.24054  -6.24053  -6.23959
 Alpha  occ. eigenvalues --   -6.23958  -6.23741  -6.23741  -1.21812  -1.19016
 Alpha  occ. eigenvalues --   -1.04618  -1.02245  -1.00714  -0.96141  -0.82633
 Alpha  occ. eigenvalues --   -0.79084  -0.76149  -0.73550  -0.72619  -0.66142
 Alpha  occ. eigenvalues --   -0.59123  -0.58548  -0.57596  -0.56788  -0.55753
 Alpha  occ. eigenvalues --   -0.52746  -0.52612  -0.49819  -0.47925  -0.38454
 Alpha  occ. eigenvalues --   -0.36251  -0.35761  -0.29603
 Alpha virt. eigenvalues --    0.03375   0.03458   0.03931   0.04469   0.05508
 Alpha virt. eigenvalues --    0.05568   0.07216   0.08120   0.09420   0.09811
 Alpha virt. eigenvalues --    0.11119   0.11143   0.11909   0.12432   0.13246

 Mulliken charges:
               1
     1  C    0.085243
     2  C    0.290961
     3  C   -0.825604
     4  S    0.611897
     5  C    0.405122
     6  C    0.405122
     7  S    0.611897
     8  C   -0.825604
     9  C    0.290961
    10  C    0.085243
    11  H   -0.248787
    12  H   -0.139829
    13  H   -0.179003
    14  H   -0.179003
    15  H   -0.139829
    16  H   -0.248787
 Sum of Mulliken charges =  -0.00000

 Dipole moment (field-independent basis, Debye):
    X=              0.0000    Y=             -0.0000    Z=              1.3329  Tot=              1.3329

 Test job not archived.
 1\1\GINC-SE029\SP\RHF\Aug-CC-pVDZ\C8H6S2\OHZDE\09-Apr-2025\0\\#t hf au
 g-cc-pvdz iop(5/13=1,5/36=2,99/5=2) pseudo=read geom=check guess=(read
 ,tcheck) scf=(maxcycle=1)\\title\\0,1\C,0,-1.5509383,-0.3046782,0.7974
 216\C,0,-2.91736,-0.2572608,0.4520777\C,0,-3.1153913,0.050072,-0.85765
 04\S,0,-1.6397192,0.3001116,-1.6704985\C,0,-0.7216777,-0.0254094,-0.25
 41573\C,0,0.7216777,0.0254094,-0.2541573\S,0,1.6397192,-0.3001116,-1.6
 704985\C,0,3.1153913,-0.050072,-0.8576504\C,0,2.91736,0.2572608,0.4520
 777\C,0,1.5509383,0.3046782,0.7974216\H,0,-1.182226,-0.5588506,1.77674

 Normal termination of Gaussian 16 at Wed Apr  9 02:13:25 2025.
