 Gaussian 16, Revision C.01,

 ----------------------------------------------------------------------
 #t hf aug-cc-pvdz symm=none int=(grid=ultrafine) guess=(read,tcheck) s
 table=(opt,rrhf)
 ----------------------------------------------------------------------
 -----
 title
 -----
 Symbolic Z-matrix:
 Charge =  0 Multiplicity = 1

 SCF Done:  E(RHF) =  -796.220607716     A.U. after   10 cycles
 Normal termination of Gaussian 16 at Wed Apr  9 02:12:28 2025.
 Gaussian 16:  ES64L-G16RevC.01  3-Jul-2019

 ----------------------------------------------------------------------
 #t hf aug-cc-pvdz iop(5/13=1,5/36=2,99/5=2) pseudo=read geom=check gue
 ss=(read,tcheck) scf=(maxcycle=1)
 ----------------------------------------------------------------------
 -----
 title
 -----
 Structure from the checkpoint file:  "BHROT27_9_mol2.chk"
 Charge =  0 Multiplicity = 1

                         Standard orientation:
 ---------------------------------------------------------------------
 Center     Atomic      Atomic             Coordinates (Angstroms)
 Number     Number       Type             X           Y           Z
 ---------------------------------------------------------------------
      1         16           0        0.000000    1.049308    0.000000
      2         16           0       -0.000000   -1.049308    0.000000
      3          1           0        1.334460    1.117167    0.000000
      4          1           0       -1.334460   -1.117167    0.000000
 ---------------------------------------------------------------------

 SCF Done:  E(RHF) =  -796.343797785     A.U. after    2 cycles

 The electronic state is 1-AG.
 Alpha  occ. eigenvalues --  -93.98612 -93.98610  -8.26670  -8.26647  -6.24494
 Alpha  occ. eigenvalues --   -6.24461  -6.24341  -6.24334  -6.24018  -6.24015
 Alpha  occ. eigenvalues --   -1.09927  -0.92768  -0.59646  -0.56731  -0.47052
 Alpha  occ. eigenvalues --   -0.46871  -0.34204
 Alpha virt. eigenvalues --    0.03876   0.03958   0.06416   0.10924   0.11629
 Alpha virt. eigenvalues --    0.11754   0.12873   0.14588   0.17867   0.18630
 Alpha virt. eigenvalues --    0.19638   0.19762   0.26231   0.26638   0.29476

 Mulliken charges:
               1
     1  S   -0.393127
     2  S   -0.393127
     3  H    0.393127
     4  H    0.393127
 Sum of Mulliken charges =  -0.00000

 Dipole moment (field-independent basis, Debye):
    X=              0.0000    Y=              0.0000    Z=              0.0000  Tot=              0.0000

 Test job not archived.
 1\1\GINC-SE051\SP\RHF\Aug-CC-pVDZ\H2S2\OHZDE\09-Apr-2025\0\\#t hf aug-
 cc-pvdz iop(5/13=1,5/36=2,99/5=2) pseudo=read geom=check guess=(read,t
 check) scf=(maxcycle=1)\\title\\0,1\S,0,-0.1980499,1.0304478,0.\S,0,0.
 1980499,-1.0304478,0.\H,0,1.0996175,1.3489585,0.\H,0,-1.0996175,-1.348
 9585,0.\\Version=ES64L-G16RevC.01\State=1-AG\HF=-796.3437978\RMSD=4.62
 6e-03\Dipole=0.,0.,0.\Quadrupole=2.0033743,1.1964519,-3.1998263,2.5892
 21,0.,0.\PG=C02H [SGH(H2S2)]\\@

 Normal termination of Gaussian 16 at Wed Apr  9 02:12:29 2025.
