 Gaussian 16, Revision C.01,

 ----------------------------------------------------------------------
 #t hf aug-cc-pvdz symm=none int=(grid=ultrafine) guess=(read,tcheck) s
 table=(opt,rrhf)
 ----------------------------------------------------------------------
 -----
 title
 -----
 Symbolic Z-matrix:
 Charge =  0 Multiplicity = 1

 SCF Done:  E(RHF) =  -1101.50182128     A.U. after   15 cycles
 Normal termination of Gaussian 16 at Wed Apr  9 02:12:13 2025.
 Gaussian 16:  ES64L-G16RevC.01  3-Jul-2019

 ----------------------------------------------------------------------
 #t hf aug-cc-pvdz iop(5/13=1,5/36=2,99/5=2) pseudo=read geom=check gue
 ss=(read,tcheck) scf=(maxcycle=1)
 ----------------------------------------------------------------------
 -----
 title
 -----
 Structure from the checkpoint file:  "BHROT27_20_mol1.chk"
 Charge =  0 Multiplicity = 1

                         Standard orientation:
 ---------------------------------------------------------------------
 Center     Atomic      Atomic             Coordinates (Angstroms)
 Number     Number       Type             X           Y           Z
 ---------------------------------------------------------------------
      1          6           0       -1.221774    1.433920    0.322619
      2          6           0       -1.023109    2.827726    0.261902
      3          6           0        0.259062    3.160167   -0.043415
      4         16           0        1.221774    1.776100   -0.281866
      5          6           0       -0.086853    0.716830    0.062498
      6          6           0        0.086853   -0.716830    0.062498
      7         16           0       -1.221774   -1.776100   -0.281866
      8          6           0       -0.259062   -3.160167   -0.043415
      9          6           0        1.023109   -2.827726    0.261902
     10          6           0        1.221774   -1.433920    0.322619
     11          1           0       -2.154946    0.964438    0.585437
     12          1           0       -1.794758    3.553436    0.452458
     13          1           0        0.687090    4.139050   -0.149655
     14          1           0       -0.687090   -4.139050   -0.149655
     15          1           0        1.794758   -3.553436    0.452458
     16          1           0        2.154946   -0.964438    0.585437
 ---------------------------------------------------------------------

 SCF Done:  E(RHF) =  -1101.93020362     A.U. after    2 cycles

 The electronic state is 1-A.
 Alpha  occ. eigenvalues --  -93.97989 -93.97988 -11.28130 -11.28062 -11.27004
 Alpha  occ. eigenvalues --  -11.27002 -11.24682 -11.24677 -11.24553 -11.24538
 Alpha  occ. eigenvalues --   -8.26288  -8.26288  -6.24057  -6.24057  -6.23962
 Alpha  occ. eigenvalues --   -6.23962  -6.23744  -6.23744  -1.21853  -1.19074
 Alpha  occ. eigenvalues --   -1.04678  -1.02263  -1.00730  -0.96243  -0.82655
 Alpha  occ. eigenvalues --   -0.79324  -0.75774  -0.73702  -0.72589  -0.66240
 Alpha  occ. eigenvalues --   -0.59001  -0.58585  -0.57259  -0.57060  -0.56324
 Alpha  occ. eigenvalues --   -0.52778  -0.52719  -0.49529  -0.47973  -0.38490
 Alpha  occ. eigenvalues --   -0.36242  -0.35845  -0.29643
 Alpha virt. eigenvalues --    0.03382   0.03601   0.03978   0.04423   0.05273
 Alpha virt. eigenvalues --    0.06023   0.06473   0.09055   0.09065   0.09978
 Alpha virt. eigenvalues --    0.10955   0.11157   0.12282   0.12285   0.13389

 Mulliken charges:
               1
     1  C    0.073767
     2  C    0.269644
     3  C   -0.781700
     4  S    0.573647
     5  C    0.440745
     6  C    0.440745
     7  S    0.573647
     8  C   -0.781700
     9  C    0.269644
    10  C    0.073767
    11  H   -0.243024
    12  H   -0.139408
    13  H   -0.193672
    14  H   -0.193672
    15  H   -0.139408
    16  H   -0.243024
 Sum of Mulliken charges =  -0.00000

 Dipole moment (field-independent basis, Debye):
    X=             -0.0000    Y=             -0.0000    Z=              0.4475  Tot=              0.4475

 Test job not archived.
 1\1\GINC-SE366\SP\RHF\Aug-CC-pVDZ\C8H6S2\OHZDE\09-Apr-2025\0\\#t hf au
 g-cc-pvdz iop(5/13=1,5/36=2,99/5=2) pseudo=read geom=check guess=(read
 ,tcheck) scf=(maxcycle=1)\\title\\0,1\C,0,-1.459533,-1.1910594,0.16003
 27\C,0,-2.8488073,-0.9628516,0.0993153\C,0,-3.1539559,0.3260872,-0.206
 0017\S,0,-1.7497644,1.2592017,-0.444453\C,0,-0.7185117,-0.0716168,-0.1
 000887\C,0,0.7185117,0.0716168,-0.1000887\S,0,1.7497644,-1.2592017,-0.
 444453\C,0,3.1539559,-0.3260872,-0.2060017\C,0,2.8488073,0.9628516,0.0
 993153\C,0,1.459533,1.1910594,0.1600327\H,0,-1.0099655,-2.1339875,0.42

 Normal termination of Gaussian 16 at Wed Apr  9 02:12:18 2025.
