 Gaussian 16, Revision C.01,

 ----------------------------------------------------------------------
 #t hf aug-cc-pvdz symm=none int=(grid=ultrafine) guess=(read,tcheck) s
 table=(opt,rrhf)
 ----------------------------------------------------------------------
 -----
 title
 -----
 Symbolic Z-matrix:
 Charge =  0 Multiplicity = 1

 SCF Done:  E(RHF) =  -624.742569277     A.U. after   14 cycles
 Normal termination of Gaussian 16 at Wed Apr  9 02:12:30 2025.
 Gaussian 16:  ES64L-G16RevC.01  3-Jul-2019

 ----------------------------------------------------------------------
 #t hf aug-cc-pvdz iop(5/13=1,5/36=2,99/5=2) pseudo=read geom=check gue
 ss=(read,tcheck) scf=(maxcycle=1)
 ----------------------------------------------------------------------
 -----
 title
 -----
 Structure from the checkpoint file:  "BHROT27_25_mol1.chk"
 Charge =  0 Multiplicity = 1

                         Standard orientation:
 ---------------------------------------------------------------------
 Center     Atomic      Atomic             Coordinates (Angstroms)
 Number     Number       Type             X           Y           Z
 ---------------------------------------------------------------------
      1          6           0        2.915523   -0.566727    0.007575
      2          6           0        1.736774    0.378405    0.041168
      3          7           0        0.494726   -0.342329   -0.088057
      4          6           0       -0.728436    0.215256   -0.029400
      5          7           0       -0.755325    1.565627   -0.041587
      6         16           0       -2.115884   -0.695384    0.023735
      7          1           0        0.063979    2.118987    0.117304
      8          1           0       -1.651237    1.990857    0.088089
      9          1           0        0.498856   -1.341526   -0.002478
     10          1           0        1.822867    1.100855   -0.771991
     11          1           0        1.749441    0.941605    0.979259
     12          1           0        2.935798   -1.131272   -0.920792
     13          1           0        3.841997   -0.006294    0.087631
     14          1           0        2.873480   -1.271764    0.834675
 ---------------------------------------------------------------------

 SCF Done:  E(RHF) =  -625.046005298     A.U. after    2 cycles

 The electronic state is 1-A.
 Alpha  occ. eigenvalues --  -93.87390 -15.54150 -15.53860 -11.37299 -11.29678
 Alpha  occ. eigenvalues --  -11.25396  -8.15774  -6.13671  -6.13293  -6.13232
 Alpha  occ. eigenvalues --   -1.31945  -1.21638  -1.07201  -0.99650  -0.88828
 Alpha  occ. eigenvalues --   -0.86849  -0.79025  -0.72260  -0.69327  -0.68315
 Alpha  occ. eigenvalues --   -0.60135  -0.58574  -0.55596  -0.53739  -0.51429
 Alpha  occ. eigenvalues --   -0.46257  -0.33044  -0.32762
 Alpha virt. eigenvalues --    0.02451   0.03322   0.03970   0.04041   0.05799
 Alpha virt. eigenvalues --    0.06408   0.07136   0.08080   0.10235   0.10759
 Alpha virt. eigenvalues --    0.11226   0.13138   0.13683   0.14172   0.14851

 Mulliken charges:
               1
     1  C   -0.582264
     2  C   -0.052276
     3  N    0.482964
     4  C   -1.578208
     5  N    0.622503
     6  S    0.155960
     7  H    0.013022
     8  H    0.204112
     9  H    0.256285
    10  H    0.005488
    11  H   -0.003979
    12  H    0.180026
    13  H    0.143247
    14  H    0.153121
 Sum of Mulliken charges =  -0.00000

 Dipole moment (field-independent basis, Debye):
    X=              5.4497    Y=              2.8970    Z=              0.5559  Tot=              6.1969

 Test job not archived.
 1\1\GINC-SE041\SP\RHF\Aug-CC-pVDZ\C3H8N2S1\OHZDE\09-Apr-2025\0\\#t hf
 aug-cc-pvdz iop(5/13=1,5/36=2,99/5=2) pseudo=read geom=check guess=(re
 ad,tcheck) scf=(maxcycle=1)\\title\\0,1\C,0,0.62527801,2.89809628,-0.0
 3936045\C,0,-0.34255388,1.7374537,-0.031501\N,0,0.36138843,0.47998434,
 0.01403975\C,0,-0.22542645,-0.72812871,0.09515085\N,0,-1.56562722,-0.7
 3828989,-0.0725709\S,0,0.6429302,-2.1195582,0.35396039\H,0,-2.11587316
 ,0.0976519,-0.03875318\H,0,-2.0221603,-1.61654192,0.07076903\H,0,1.343
 88429,0.47744786,0.21511755\H,0,-0.96428971,1.77250469,-0.92748736\H,0

 Normal termination of Gaussian 16 at Wed Apr  9 02:12:35 2025.
