 Gaussian 16, Revision C.01,

 ----------------------------------------------------------------------
 #t hf aug-cc-pvdz symm=none int=(grid=ultrafine) guess=(read,tcheck) s
 table=(opt,rrhf)
 ----------------------------------------------------------------------
 -----
 title
 -----
 Symbolic Z-matrix:
 Charge =  0 Multiplicity = 1

 SCF Done:  E(RHF) =  -624.712124326     A.U. after   14 cycles
 Normal termination of Gaussian 16 at Wed Apr  9 02:12:27 2025.
 Gaussian 16:  ES64L-G16RevC.01  3-Jul-2019

 ----------------------------------------------------------------------
 #t hf aug-cc-pvdz iop(5/13=1,5/36=2,99/5=2) pseudo=read geom=check gue
 ss=(read,tcheck) scf=(maxcycle=1)
 ----------------------------------------------------------------------
 -----
 title
 -----
 Structure from the checkpoint file:  "BHROT27_26_mol2.chk"
 Charge =  0 Multiplicity = 1

                         Standard orientation:
 ---------------------------------------------------------------------
 Center     Atomic      Atomic             Coordinates (Angstroms)
 Number     Number       Type             X           Y           Z
 ---------------------------------------------------------------------
      1         16           0       -2.022240   -0.763244   -0.100530
      2          7           0       -0.853673    1.570904    0.026509
      3          7           0        0.543363   -0.237499    0.494683
      4          6           0       -0.753670    0.234999    0.144069
      5          1           0       -0.050868    2.165235    0.102218
      6          1           0       -1.725568    1.968410   -0.266502
      7          1           0        0.778819    0.060531    1.432015
      8          6           0        1.599781    0.108630   -0.448776
      9          6           0        2.933398   -0.426524    0.020924
     10          1           0        1.331506   -0.342069   -1.402127
     11          1           0        1.690222    1.188777   -0.625788
     12          1           0        2.914583   -1.508857    0.101651
     13          1           0        3.718107   -0.141556   -0.673795
     14          1           0        3.194146   -0.015039    0.995160
 ---------------------------------------------------------------------

 SCF Done:  E(RHF) =  -625.015418536     A.U. after    2 cycles

 The electronic state is 1-A.
 Alpha  occ. eigenvalues --  -93.89333 -15.55002 -15.51243 -11.37710 -11.27971
 Alpha  occ. eigenvalues --  -11.23852  -8.17725  -6.15585  -6.15286  -6.15141
 Alpha  occ. eigenvalues --   -1.30474  -1.20413  -1.05035  -1.00787  -0.86876
 Alpha  occ. eigenvalues --   -0.84398  -0.78613  -0.73706  -0.68351  -0.63967
 Alpha  occ. eigenvalues --   -0.58148  -0.55920  -0.54849  -0.52728  -0.52176
 Alpha  occ. eigenvalues --   -0.44509  -0.35621  -0.33515
 Alpha virt. eigenvalues --    0.02336   0.03724   0.03985   0.04718   0.05550
 Alpha virt. eigenvalues --    0.06456   0.07196   0.07838   0.08958   0.09274
 Alpha virt. eigenvalues --    0.11415   0.12767   0.14194   0.14543   0.14861

 Mulliken charges:
               1
     1  S    0.255697
     2  N    0.641533
     3  N    0.691545
     4  C   -1.931490
     5  H   -0.008923
     6  H    0.107799
     7  H    0.282683
     8  C   -0.283081
     9  C   -0.328636
    10  H    0.074976
    11  H    0.050886
    12  H    0.193427
    13  H    0.130949
    14  H    0.122635
 Sum of Mulliken charges =  -0.00000

 Dipole moment (field-independent basis, Debye):
    X=              3.6399    Y=              4.1603    Z=              0.1853  Tot=              5.5310

 Test job not archived.
 1\1\GINC-SE341\SP\RHF\Aug-CC-pVDZ\C3H8N2S1\OHZDE\09-Apr-2025\0\\#t hf
 aug-cc-pvdz iop(5/13=1,5/36=2,99/5=2) pseudo=read geom=check guess=(re
 ad,tcheck) scf=(maxcycle=1)\\title\\0,1\S,0,0.66677564,2.05437369,0.14
 977685\N,0,-1.62081433,0.80292359,-0.02554571\N,0,0.24495718,-0.524249
 26,-0.4713313\C,0,-0.28033597,0.75225082,-0.1204862\H,0,-2.18417446,-0
 .02032756,-0.11685858\H,0,-2.05472923,1.65770957,0.2662196\H,0,-0.0281
 8719,-0.76360303,-1.41523483\C,0,-0.07866699,-1.59927786,0.45900259\C,
 0,0.51260491,-2.90920939,-0.01005744\H,0,0.34555462,-1.32170942,1.4217

 Normal termination of Gaussian 16 at Wed Apr  9 02:12:32 2025.
