 Gaussian 16, Revision C.01,

 ----------------------------------------------------------------------
 #t hf aug-cc-pvdz symm=none int=(grid=ultrafine) guess=(read,tcheck) s
 table=(opt,rrhf)
 ----------------------------------------------------------------------
 -----
 title
 -----
 Symbolic Z-matrix:
 Charge =  0 Multiplicity = 1

 SCF Done:  E(RHF) =  -624.723675783     A.U. after   14 cycles
 Normal termination of Gaussian 16 at Wed Apr  9 02:12:19 2025.
 Gaussian 16:  ES64L-G16RevC.01  3-Jul-2019

 ----------------------------------------------------------------------
 #t hf aug-cc-pvdz iop(5/13=1,5/36=2,99/5=2) pseudo=read geom=check gue
 ss=(read,tcheck) scf=(maxcycle=1)
 ----------------------------------------------------------------------
 -----
 title
 -----
 Structure from the checkpoint file:  "BHROT27_24_mol2.chk"
 Charge =  0 Multiplicity = 1

                         Standard orientation:
 ---------------------------------------------------------------------
 Center     Atomic      Atomic             Coordinates (Angstroms)
 Number     Number       Type             X           Y           Z
 ---------------------------------------------------------------------
      1         16           0        1.644480   -1.029565    0.012116
      2          7           0        1.312978    1.572509   -0.169684
      3          7           0       -0.581908    0.483155    0.457587
      4          6           0        0.795758    0.373109    0.095332
      5          1           0        0.718183    2.377383   -0.123381
      6          1           0        2.269417    1.649086   -0.458682
      7          1           0       -0.659848    0.147163    1.409703
      8          6           0       -1.462779   -0.339818   -0.376136
      9          6           0       -2.905172   -0.112312    0.007022
     10          1           0       -1.300736   -0.041892   -1.409803
     11          1           0       -1.197959   -1.395782   -0.296748
     12          1           0       -3.185716    0.926739   -0.143528
     13          1           0       -3.561212   -0.733759   -0.594973
     14          1           0       -3.078136   -0.371419    1.050933
 ---------------------------------------------------------------------

 SCF Done:  E(RHF) =  -625.027648526     A.U. after    2 cycles

 The electronic state is 1-A.
 Alpha  occ. eigenvalues --  -93.89363 -15.55176 -15.51420 -11.37744 -11.26634
 Alpha  occ. eigenvalues --  -11.23133  -8.17760  -6.15630  -6.15311  -6.15197
 Alpha  occ. eigenvalues --   -1.30537  -1.20889  -1.03989  -1.00506  -0.87226
 Alpha  occ. eigenvalues --   -0.84073  -0.78419  -0.71111  -0.68742  -0.63161
 Alpha  occ. eigenvalues --   -0.57131  -0.56145  -0.54390  -0.53507  -0.51468
 Alpha  occ. eigenvalues --   -0.44628  -0.35601  -0.33941
 Alpha virt. eigenvalues --    0.02860   0.04096   0.04489   0.04881   0.05681
 Alpha virt. eigenvalues --    0.06131   0.07514   0.07737   0.09068   0.10336
 Alpha virt. eigenvalues --    0.11631   0.12856   0.14132   0.14226   0.15522

 Mulliken charges:
               1
     1  S    0.162375
     2  N    0.665996
     3  N    0.471049
     4  C   -1.845277
     5  H    0.054357
     6  H    0.087571
     7  H    0.333751
     8  C   -0.190826
     9  C   -0.334284
    10  H    0.060737
    11  H    0.079348
    12  H    0.177105
    13  H    0.147845
    14  H    0.130253
 Sum of Mulliken charges =  -0.00000

 Dipole moment (field-independent basis, Debye):
    X=             -1.8576    Y=              2.9116    Z=             -0.1055  Tot=              3.4553

 Test job not archived.
 1\1\GINC-SE334\SP\RHF\Aug-CC-pVDZ\C3H8N2S1\OHZDE\09-Apr-2025\0\\#t hf
 aug-cc-pvdz iop(5/13=1,5/36=2,99/5=2) pseudo=read geom=check guess=(re
 ad,tcheck) scf=(maxcycle=1)\\title\\0,1\S,0,0.9877987,1.6908616,-0.050
 66349\N,0,-1.61020626,1.29841558,-0.15110636\N,0,-0.45937754,-0.564341
 ,0.46247752\C,0,-0.39187804,0.81146297,0.08312165\H,0,-2.39944662,0.68
 603674,-0.07469157\H,0,-1.71732706,2.24968277,-0.44737712\H,0,-0.09355
 347,-0.62431146,1.4048497\C,0,0.35853015,-1.43528096,-0.38652433\C,0,0
 .17576383,-2.87823113,0.01789791\H,0,0.0263868,-1.291253,-1.4124002\H,

 Normal termination of Gaussian 16 at Wed Apr  9 02:12:24 2025.
