 Gaussian 16, Revision C.01,

 ----------------------------------------------------------------------
 #t hf aug-cc-pvdz symm=none int=(grid=ultrafine) guess=(read,tcheck) s
 table=(opt,rrhf)
 ----------------------------------------------------------------------
 -----
 title
 -----
 Symbolic Z-matrix:
 Charge =  0 Multiplicity = 1

 SCF Done:  E(RHF) =  -1101.50015873     A.U. after   14 cycles
 Normal termination of Gaussian 16 at Wed Apr  9 02:12:44 2025.
 Gaussian 16:  ES64L-G16RevC.01  3-Jul-2019

 ----------------------------------------------------------------------
 #t hf aug-cc-pvdz iop(5/13=1,5/36=2,99/5=2) pseudo=read geom=check gue
 ss=(read,tcheck) scf=(maxcycle=1)
 ----------------------------------------------------------------------
 -----
 title
 -----
 Structure from the checkpoint file:  "BHROT27_20_mol2.chk"
 Charge =  0 Multiplicity = 1

                         Standard orientation:
 ---------------------------------------------------------------------
 Center     Atomic      Atomic             Coordinates (Angstroms)
 Number     Number       Type             X           Y           Z
 ---------------------------------------------------------------------
      1          6           0        0.771197    1.514712    1.113418
      2          6           0        0.652379    2.893014    0.828813
      3          6           0       -0.155148    3.135472   -0.237761
      4         16           0       -0.771197    1.694412   -0.899649
      5          6           0        0.055978    0.726545    0.257864
      6          6           0       -0.055978   -0.726545    0.257864
      7         16           0        0.771197   -1.694412   -0.899649
      8          6           0        0.155148   -3.135472   -0.237761
      9          6           0       -0.652379   -2.893014    0.828813
     10          6           0       -0.771197   -1.514712    1.113418
     11          1           0        1.372077    1.105332    1.907486
     12          1           0        1.150897    3.668029    1.385377
     13          1           0       -0.415822    4.082812   -0.672491
     14          1           0        0.415822   -4.082812   -0.672491
     15          1           0       -1.150897   -3.668029    1.385377
     16          1           0       -1.372077   -1.105332    1.907486
 ---------------------------------------------------------------------

 SCF Done:  E(RHF) =  -1101.92903232     A.U. after    2 cycles

 The electronic state is 1-A.
 Alpha  occ. eigenvalues --  -93.97892 -93.97888 -11.27857 -11.27784 -11.26985
 Alpha  occ. eigenvalues --  -11.26983 -11.24665 -11.24651 -11.24518 -11.24516
 Alpha  occ. eigenvalues --   -8.26160  -8.26159  -6.23925  -6.23924  -6.23830
 Alpha  occ. eigenvalues --   -6.23829  -6.23616  -6.23616  -1.21507  -1.18934
 Alpha  occ. eigenvalues --   -1.04234  -1.01479  -1.01085  -0.96185  -0.82214
 Alpha  occ. eigenvalues --   -0.77815  -0.77244  -0.73659  -0.72191  -0.66167
 Alpha  occ. eigenvalues --   -0.58791  -0.58032  -0.58011  -0.56905  -0.55188
 Alpha  occ. eigenvalues --   -0.52684  -0.52599  -0.48853  -0.48650  -0.36318
 Alpha  occ. eigenvalues --   -0.35346  -0.34970  -0.32501
 Alpha virt. eigenvalues --    0.03417   0.03528   0.04090   0.04280   0.05328
 Alpha virt. eigenvalues --    0.05674   0.07794   0.08275   0.08931   0.09714
 Alpha virt. eigenvalues --    0.10333   0.11199   0.11740   0.12118   0.13233

 Mulliken charges:
               1
     1  C   -0.069211
     2  C    0.441774
     3  C   -0.777982
     4  S    0.578190
     5  C    0.315379
     6  C    0.315379
     7  S    0.578190
     8  C   -0.777982
     9  C    0.441774
    10  C   -0.069211
    11  H   -0.209558
    12  H   -0.121795
    13  H   -0.156797
    14  H   -0.156797
    15  H   -0.121795
    16  H   -0.209558
 Sum of Mulliken charges =  -0.00000

 Dipole moment (field-independent basis, Debye):
    X=             -0.0000    Y=              0.0000    Z=              1.1019  Tot=              1.1019

 Test job not archived.
 1\1\GINC-SE292\SP\RHF\Aug-CC-pVDZ\C8H6S2\OHZDE\09-Apr-2025\0\\#t hf au
 g-cc-pvdz iop(5/13=1,5/36=2,99/5=2) pseudo=read geom=check guess=(read
 ,tcheck) scf=(maxcycle=1)\\title\\0,1\C,0,-1.4452769,-0.8945789,-0.653
 0359\C,0,-2.828686,-0.8908769,-0.3684307\C,0,-3.137507,-0.1063297,0.69
 81435\S,0,-1.7527144,0.6275104,1.3600308\C,0,-0.7193656,-0.116248,0.20
 25179\C,0,0.7193656,0.116248,0.2025179\S,0,1.7527144,-0.6275104,1.3600
 308\C,0,3.137507,0.1063297,0.6981435\C,0,2.828686,0.8908769,-0.3684307
 \C,0,1.4452769,0.8945789,-0.6530359\H,0,-0.9873115,-1.4593053,-1.44710

 Normal termination of Gaussian 16 at Wed Apr  9 02:12:49 2025.
