 Gaussian 16, Revision C.01,

 ----------------------------------------------------------------------
 #t hf aug-cc-pvdz symm=none int=(grid=ultrafine) guess=(read,tcheck) s
 table=(opt,rrhf)
 ----------------------------------------------------------------------
 -----
 title
 -----
 Symbolic Z-matrix:
 Charge =  0 Multiplicity = 1

 SCF Done:  E(RHF) =  -796.217364970     A.U. after   11 cycles
 Normal termination of Gaussian 16 at Wed Apr  9 02:10:56 2025.
 Gaussian 16:  ES64L-G16RevC.01  3-Jul-2019

 ----------------------------------------------------------------------
 #t hf aug-cc-pvdz iop(5/13=1,5/36=2,99/5=2) pseudo=read geom=check gue
 ss=(read,tcheck) scf=(maxcycle=1)
 ----------------------------------------------------------------------
 -----
 title
 -----
 Structure from the checkpoint file:  "BHROT27_10_mol2.chk"
 Charge =  0 Multiplicity = 1

                         Standard orientation:
 ---------------------------------------------------------------------
 Center     Atomic      Atomic             Coordinates (Angstroms)
 Number     Number       Type             X           Y           Z
 ---------------------------------------------------------------------
      1         16           0        0.000000    1.057229   -0.077941
      2         16           0       -0.000000   -1.057229   -0.077941
      3          1           0        0.000000    1.209318    1.247048
      4          1           0       -0.000000   -1.209318    1.247048
 ---------------------------------------------------------------------

 SCF Done:  E(RHF) =  -796.340175660     A.U. after    2 cycles

 The electronic state is 1-A1.
 Alpha  occ. eigenvalues --  -93.98668 -93.98659  -8.26717  -8.26696  -6.24550
 Alpha  occ. eigenvalues --   -6.24518  -6.24381  -6.24371  -6.24068  -6.24065
 Alpha  occ. eigenvalues --   -1.09559  -0.92859  -0.63190  -0.51188  -0.48976
 Alpha  occ. eigenvalues --   -0.46882  -0.34400
 Alpha virt. eigenvalues --    0.03297   0.03964   0.08766   0.10156   0.11066
 Alpha virt. eigenvalues --    0.11800   0.12241   0.14566   0.16378   0.18739
 Alpha virt. eigenvalues --    0.19137   0.21922   0.26021   0.27070   0.28515

 Mulliken charges:
               1
     1  S   -0.349416
     2  S   -0.349416
     3  H    0.349416
     4  H    0.349416
 Sum of Mulliken charges =  -0.00000

 Dipole moment (field-independent basis, Debye):
    X=             -0.0000    Y=              0.0000    Z=              1.8715  Tot=              1.8715

 Test job not archived.
 1\1\GINC-SE366\SP\RHF\Aug-CC-pVDZ\H2S2\OHZDE\09-Apr-2025\0\\#t hf aug-
 cc-pvdz iop(5/13=1,5/36=2,99/5=2) pseudo=read geom=check guess=(read,t
 check) scf=(maxcycle=1)\\title\\0,1\S,0,1.0572291,0.,-0.6622784\S,0,-1
 .0572291,0.,-0.6622784\H,0,1.2093176,0.,0.6627105\H,0,-1.2093176,0.,0.
 6627105\\Version=ES64L-G16RevC.01\State=1-A1\HF=-796.3401757\RMSD=5.09
 5e-03\Dipole=0.,0.,0.7362949\Quadrupole=0.5634923,-3.1701515,2.6066592
 ,0.,0.,0.\PG=C02V [SGV(H2S2)]\\@

 Normal termination of Gaussian 16 at Wed Apr  9 02:10:57 2025.
