 Gaussian 16, Revision C.01,

 ----------------------------------------------------------------------
 #t hf aug-cc-pvdz symm=none int=(grid=ultrafine) guess=(read,tcheck) s
 table=(opt,rrhf)
 ----------------------------------------------------------------------
 -----
 title
 -----
 Symbolic Z-matrix:
 Charge =  0 Multiplicity = 1

 SCF Done:  E(RHF) =  -796.229795187     A.U. after   12 cycles
 Normal termination of Gaussian 16 at Wed Apr  9 02:10:57 2025.
 Gaussian 16:  ES64L-G16RevC.01  3-Jul-2019

 ----------------------------------------------------------------------
 #t hf aug-cc-pvdz iop(5/13=1,5/36=2,99/5=2) pseudo=read geom=check gue
 ss=(read,tcheck) scf=(maxcycle=1)
 ----------------------------------------------------------------------
 -----
 title
 -----
 Structure from the checkpoint file:  "BHROT27_10_mol1.chk"
 Charge =  0 Multiplicity = 1

                         Standard orientation:
 ---------------------------------------------------------------------
 Center     Atomic      Atomic             Coordinates (Angstroms)
 Number     Number       Type             X           Y           Z
 ---------------------------------------------------------------------
      1         16           0       -0.000000    1.024340   -0.055941
      2         16           0       -0.000000   -1.024340   -0.055941
      3          1           0        0.923046    1.227150    0.895063
      4          1           0       -0.923046   -1.227150    0.895063
 ---------------------------------------------------------------------

 SCF Done:  E(RHF) =  -796.353203003     A.U. after    2 cycles

 The electronic state is 1-A.
 Alpha  occ. eigenvalues --  -93.98701 -93.98695  -8.26764  -8.26737  -6.24605
 Alpha  occ. eigenvalues --   -6.24559  -6.24392  -6.24383  -6.24138  -6.24137
 Alpha  occ. eigenvalues --   -1.10768  -0.92281  -0.61472  -0.56347  -0.49318
 Alpha  occ. eigenvalues --   -0.39540  -0.38891
 Alpha virt. eigenvalues --    0.03787   0.04363   0.07331   0.10717   0.11607
 Alpha virt. eigenvalues --    0.11991   0.13489   0.13887   0.16596   0.18027
 Alpha virt. eigenvalues --    0.19686   0.24259   0.25180   0.26376   0.30880

 Mulliken charges:
               1
     1  S   -0.404266
     2  S   -0.404266
     3  H    0.404266
     4  H    0.404266
 Sum of Mulliken charges =   0.00000

 Dipole moment (field-independent basis, Debye):
    X=              0.0000    Y=              0.0000    Z=              1.3946  Tot=              1.3946

 Test job not archived.
 1\1\GINC-SE159\SP\RHF\Aug-CC-pVDZ\H2S2\OHZDE\09-Apr-2025\0\\#t hf aug-
 cc-pvdz iop(5/13=1,5/36=2,99/5=2) pseudo=read geom=check guess=(read,t
 check) scf=(maxcycle=1)\\title\\0,1\S,0,-0.068731,1.0220312,-0.4834061
 \S,0,0.068731,-1.0220312,-0.4834061\H,0,0.8386269,1.286319,0.4675986\H
 ,0,-0.8386269,-1.286319,0.4675986\\Version=ES64L-G16RevC.01\State=1-A\
 HF=-796.353203\RMSD=4.671e-03\Dipole=0.,0.,0.5486834\Quadrupole=-0.549
 629,0.820104,-0.270475,1.6999079,0.,0.\PG=C02 [X(H2S2)]\\@

 Normal termination of Gaussian 16 at Wed Apr  9 02:11:00 2025.
