 Gaussian 16, Revision C.01,

 ----------------------------------------------------------------------
 #t hf aug-cc-pvdz symm=none int=(grid=ultrafine) guess=(read,tcheck) s
 table=(opt,rrhf)
 ----------------------------------------------------------------------
 -----
 title
 -----
 Symbolic Z-matrix:
 Charge =  0 Multiplicity = 1

 SCF Done:  E(RHF) =  -521.947422690     A.U. after   13 cycles
 Normal termination of Gaussian 16 at Wed Apr  9 02:15:38 2025.
 Gaussian 16:  ES64L-G16RevC.01  3-Jul-2019

 ----------------------------------------------------------------------
 #t hf aug-cc-pvdz iop(5/13=1,5/36=2,99/5=2) pseudo=read geom=check gue
 ss=(read,tcheck) scf=(maxcycle=1)
 ----------------------------------------------------------------------
 -----
 title
 -----
 Structure from the checkpoint file:  "BzDC215_160_mol1.chk"
 Charge =  0 Multiplicity = 1

                         Standard orientation:
 ---------------------------------------------------------------------
 Center     Atomic      Atomic             Coordinates (Angstroms)
 Number     Number       Type             X           Y           Z
 ---------------------------------------------------------------------
      1          6           0       -1.260907   -1.395765    0.020259
      2          6           0       -1.280080   -0.713965   -1.192612
      3          6           0       -1.294214    0.677372   -1.208484
      4          6           0       -1.289175    1.386910   -0.011487
      5          6           0       -1.270002    0.705111    1.201383
      6          6           0       -1.255868   -0.686227    1.217256
      7          1           0       -1.249937   -2.475639    0.032578
      8          1           0       -1.283991   -1.264667   -2.121650
      9          1           0       -1.309095    1.206545   -2.149842
     10          1           0       -1.300145    2.466784   -0.023806
     11          1           0       -1.266092    1.255812    2.130422
     12          1           0       -1.240987   -1.215400    2.158614
     13         14           0        2.974525    0.038250   -0.038800
     14          1           0        1.501276    0.023454   -0.023828
     15          1           0        3.470851   -1.167698   -0.724554
     16          1           0        3.451498    1.432154   -0.059637
     17          1           0        3.484749   -0.637459    1.167018
 ---------------------------------------------------------------------

 SCF Done:  E(RHF) =  -522.226506530     A.U. after    2 cycles

 The electronic state is 1-A.
 Alpha  occ. eigenvalues --  -69.51978 -11.24347 -11.24313 -11.24307 -11.24232
 Alpha  occ. eigenvalues --  -11.24206 -11.24198  -6.19188  -3.94623  -3.94563
 Alpha  occ. eigenvalues --   -3.94547  -1.15512  -1.01808  -1.01806  -0.83379
 Alpha  occ. eigenvalues --   -0.83378  -0.75040  -0.72515  -0.65166  -0.63874
 Alpha  occ. eigenvalues --   -0.60196  -0.60194  -0.52190  -0.51585  -0.50716
 Alpha  occ. eigenvalues --   -0.50715  -0.47502  -0.43415  -0.34721  -0.34712
 Alpha virt. eigenvalues --    0.03403   0.03610   0.03683   0.04252   0.05227
 Alpha virt. eigenvalues --    0.05271   0.06723   0.06931   0.07220   0.07861
 Alpha virt. eigenvalues --    0.09502   0.09901   0.11070   0.11214   0.12349

 Mulliken charges:
               1
     1  C    0.216400
     2  C    0.284143
     3  C    0.220588
     4  C    0.243473
     5  C    0.245472
     6  C    0.279679
     7  H   -0.248612
     8  H   -0.253366
     9  H   -0.244511
    10  H   -0.251897
    11  H   -0.248837
    12  H   -0.251793
    13  Si   0.549793
    14  H   -0.042493
    15  H   -0.125252
    16  H   -0.160716
    17  H   -0.212072
 Sum of Mulliken charges =  -0.00000

 Dipole moment (field-independent basis, Debye):
    X=             -0.2853    Y=              0.5076    Z=             -0.4741  Tot=              0.7509

 Test job not archived.
 1\1\GINC-SE341\SP\RHF\Aug-CC-pVDZ\C6H10Si1\OHZDE\09-Apr-2025\0\\#t hf
 aug-cc-pvdz iop(5/13=1,5/36=2,99/5=2) pseudo=read geom=check guess=(re
 ad,tcheck) scf=(maxcycle=1)\\title\\0,1\C,0,1.3915,0.,1.\C,0,0.69575,1
 .20507435,1.\C,0,-0.69575,1.20507435,1.\C,0,-1.3915,0.,1.\C,0,-0.69575
 ,-1.20507435,1.\C,0,0.69575,-1.20507435,1.\H,0,2.4715,0.,1.\H,0,1.2357
 5,2.14038179,1.\H,0,-1.23575,2.14038179,1.\H,0,-2.4715,0.,1.\H,0,-1.23
 575,-2.14038179,1.\H,0,1.23575,-2.14038179,1.\Si,0,0.,0.,5.25\H,0,0.,0
 .,3.7766\H,0,1.20302606,0.69456742,5.74113333\H,0,-1.38913484,0.,5.741

 Normal termination of Gaussian 16 at Wed Apr  9 02:15:44 2025.
