 Gaussian 16, Revision C.01,

 ----------------------------------------------------------------------
 #t hf aug-cc-pvdz symm=none int=(grid=ultrafine) guess=(read,tcheck) s
 table=(opt,rrhf)
 ----------------------------------------------------------------------
 -----
 title
 -----
 Symbolic Z-matrix:
 Charge =  0 Multiplicity = 1

 SCF Done:  E(RHF) =  -629.423880678     A.U. after   13 cycles
 Normal termination of Gaussian 16 at Wed Apr  9 02:13:38 2025.
 Gaussian 16:  ES64L-G16RevC.01  3-Jul-2019

 ----------------------------------------------------------------------
 #t hf aug-cc-pvdz iop(5/13=1,5/36=2,99/5=2) pseudo=read geom=check gue
 ss=(read,tcheck) scf=(maxcycle=1)
 ----------------------------------------------------------------------
 -----
 title
 -----
 Structure from the checkpoint file:  "BzDC215_113_mol1.chk"
 Charge =  0 Multiplicity = 1

                         Standard orientation:
 ---------------------------------------------------------------------
 Center     Atomic      Atomic             Coordinates (Angstroms)
 Number     Number       Type             X           Y           Z
 ---------------------------------------------------------------------
      1          6           0       -1.053246    1.406946    0.000000
      2          6           0       -1.053246    0.711196    1.205074
      3          6           0       -1.053246   -0.680304    1.205074
      4          6           0       -1.053246   -1.376054    0.000000
      5          6           0       -1.053246   -0.680304   -1.205074
      6          6           0       -1.053246    0.711196   -1.205074
      7          1           0       -1.053246    2.486946    0.000000
      8          1           0       -1.053246    1.251196    2.140382
      9          1           0       -1.053246   -1.220304    2.140382
     10          1           0       -1.053246   -2.456054    0.000000
     11          1           0       -1.053246   -1.220304   -2.140382
     12          1           0       -1.053246    1.251196   -2.140382
     13         16           0        2.546754    0.015446   -0.000000
     14          1           0        2.225000   -1.280818   -0.000000
     15          1           0        1.263279    0.384932   -0.000000
 ---------------------------------------------------------------------

 SCF Done:  E(RHF) =  -629.727990393     A.U. after    2 cycles

 The electronic state is 1-A'.
 Alpha  occ. eigenvalues --  -93.94265 -11.25141 -11.25124 -11.25095 -11.25017
 Alpha  occ. eigenvalues --  -11.25013 -11.24990  -8.22409  -6.20293  -6.20177
 Alpha  occ. eigenvalues --   -6.19929  -1.16467  -1.02682  -1.02617  -1.00339
 Alpha  occ. eigenvalues --   -0.84160  -0.84152  -0.73312  -0.65875  -0.64665
 Alpha  occ. eigenvalues --   -0.60998  -0.60942  -0.58602  -0.52839  -0.51472
 Alpha  occ. eigenvalues --   -0.51440  -0.48190  -0.37921  -0.35704  -0.35112
 Alpha virt. eigenvalues --    0.03298   0.03520   0.03613   0.05111   0.05152
 Alpha virt. eigenvalues --    0.05601   0.07752   0.07993   0.09404   0.09592
 Alpha virt. eigenvalues --    0.11782   0.12905   0.12981   0.13839   0.14447

 Mulliken charges:
               1
     1  C    0.174210
     2  C    0.206545
     3  C    0.301039
     4  C    0.130021
     5  C    0.301039
     6  C    0.206545
     7  H   -0.227670
     8  H   -0.227838
     9  H   -0.242448
    10  H   -0.248925
    11  H   -0.242448
    12  H   -0.227838
    13  S   -0.631072
    14  H    0.264466
    15  H    0.464374
 Sum of Mulliken charges =   0.00000

 Dipole moment (field-independent basis, Debye):
    X=             -1.6602    Y=             -0.5493    Z=             -0.0000  Tot=              1.7487

 Test job not archived.
 1\1\GINC-SE041\SP\RHF\Aug-CC-pVDZ\C6H8S1\OHZDE\09-Apr-2025\0\\#t hf au
 g-cc-pvdz iop(5/13=1,5/36=2,99/5=2) pseudo=read geom=check guess=(read
 ,tcheck) scf=(maxcycle=1)\\title\\0,1\C,0,1.3915,0.,1.\C,0,0.69575,1.2
 0507435,1.\C,0,-0.69575,1.20507435,1.\C,0,-1.3915,0.,1.\C,0,-0.69575,-
 1.20507435,1.\C,0,0.69575,-1.20507435,1.\H,0,2.4715,0.,1.\H,0,1.23575,
 2.14038179,1.\H,0,-1.23575,2.14038179,1.\H,0,-2.4715,0.,1.\H,0,-1.2357
 5,-2.14038179,1.\H,0,1.23575,-2.14038179,1.\S,0,0.,0.,4.6\H,0,-1.29626
 462,0.,4.27824638\H,0,0.36948551,0.,3.3165251\\Version=ES64L-G16RevC.0

 Normal termination of Gaussian 16 at Wed Apr  9 02:13:43 2025.
