 Gaussian 16, Revision C.01,

 ----------------------------------------------------------------------
 #t hf aug-cc-pvdz symm=none int=(grid=ultrafine) guess=(read,tcheck) s
 table=(opt,rrhf)
 ----------------------------------------------------------------------
 -----
 title
 -----
 Symbolic Z-matrix:
 Charge =  0 Multiplicity = 1

 SCF Done:  E(RHF) =  -573.168731500     A.U. after   14 cycles
 Normal termination of Gaussian 16 at Wed Apr  9 02:14:38 2025.
 Gaussian 16:  ES64L-G16RevC.01  3-Jul-2019

 ----------------------------------------------------------------------
 #t hf aug-cc-pvdz iop(5/13=1,5/36=2,99/5=2) pseudo=read geom=check gue
 ss=(read,tcheck) scf=(maxcycle=1)
 ----------------------------------------------------------------------
 -----
 title
 -----
 Structure from the checkpoint file:  "BzDC215_133_mol1.chk"
 Charge =  0 Multiplicity = 1

                         Standard orientation:
 ---------------------------------------------------------------------
 Center     Atomic      Atomic             Coordinates (Angstroms)
 Number     Number       Type             X           Y           Z
 ---------------------------------------------------------------------
      1          6           0        1.097823    0.019217   -1.368230
      2          6           0        1.071595   -1.196570   -0.691884
      3          6           0        1.001176   -1.218346    0.697663
      4          6           0        0.956985   -0.024334    1.410863
      5          6           0        0.983213    1.191454    0.734516
      6          6           0        1.053631    1.213230   -0.655030
      7          1           0        1.152478    0.036118   -2.446714
      8          1           0        1.105894   -2.123292   -1.245428
      9          1           0        0.980820   -2.161968    1.222603
     10          1           0        0.902330   -0.041235    2.489346
     11          1           0        0.948914    2.118176    1.288060
     12          1           0        1.073987    2.156852   -1.179970
     13         15           0       -2.468014   -0.025900   -0.156189
     14          1           0       -1.058811   -0.016490   -0.084626
     15          1           0       -2.975018   -0.640940    1.008172
     16          1           0       -2.096919    1.153370    0.524011
 ---------------------------------------------------------------------

 SCF Done:  E(RHF) =  -573.458117316     A.U. after    2 cycles

 The electronic state is 1-A.
 Alpha  occ. eigenvalues --  -84.25207 -11.24875 -11.24826 -11.24795 -11.24756
 Alpha  occ. eigenvalues --  -11.24708 -11.24657  -6.72486  -4.25074  -4.24475
 Alpha  occ. eigenvalues --   -4.24173  -1.16209  -1.02391  -1.02376  -0.86023
 Alpha  occ. eigenvalues --   -0.83892  -0.83889  -0.73046  -0.65621  -0.64376
 Alpha  occ. eigenvalues --   -0.60718  -0.60701  -0.55343  -0.51196  -0.51187
 Alpha  occ. eigenvalues --   -0.50039  -0.43241  -0.36047  -0.35263  -0.33939
 Alpha virt. eigenvalues --    0.03343   0.03621   0.03700   0.05105   0.05165
 Alpha virt. eigenvalues --    0.05169   0.07782   0.08487   0.08801   0.09364
 Alpha virt. eigenvalues --    0.09732   0.10507   0.11892   0.12978   0.14018

 Mulliken charges:
               1
     1  C    0.179970
     2  C    0.311606
     3  C    0.203615
     4  C    0.370490
     5  C    0.078272
     6  C    0.337023
     7  H   -0.239556
     8  H   -0.241417
     9  H   -0.246212
    10  H   -0.248893
    11  H   -0.264342
    12  H   -0.243840
    13  P   -0.785509
    14  H    0.199924
    15  H    0.417682
    16  H    0.171186
 Sum of Mulliken charges =  -0.00000

 Dipole moment (field-independent basis, Debye):
    X=              0.8493    Y=             -0.3455    Z=              0.4225  Tot=              1.0095

 Test job not archived.
 1\1\GINC-SE036\SP\RHF\Aug-CC-pVDZ\C6H9P1\OHZDE\09-Apr-2025\0\\#t hf au
 g-cc-pvdz iop(5/13=1,5/36=2,99/5=2) pseudo=read geom=check guess=(read
 ,tcheck) scf=(maxcycle=1)\\title\\0,1\C,0,1.3915,0.,1.\C,0,0.69575,1.2
 0507435,1.\C,0,-0.69575,1.20507435,1.\C,0,-1.3915,0.,1.\C,0,-0.69575,-
 1.20507435,1.\C,0,0.69575,-1.20507435,1.\H,0,2.4715,0.,1.\H,0,1.23575,
 2.14038179,1.\H,0,-1.23575,2.14038179,1.\H,0,-2.4715,0.,1.\H,0,-1.2357
 5,-2.14038179,1.\H,0,1.23575,-2.14038179,1.\P,0,0.,0.,4.5\H,0,0.,0.,3.
 08895\H,0,-1.19800816,0.59336739,4.95139084\H,0,-0.64201064,-1.1867347

 Normal termination of Gaussian 16 at Wed Apr  9 02:14:45 2025.
