 Gaussian 16, Revision C.01,

 ----------------------------------------------------------------------
 #t hf aug-cc-pvdz symm=none int=(grid=ultrafine) guess=(read,tcheck) s
 table=(opt,rrhf)
 ----------------------------------------------------------------------
 -----
 title
 -----
 Symbolic Z-matrix:
 Charge =  0 Multiplicity = 1

 SCF Done:  E(RHF) =  -629.426996180     A.U. after   13 cycles
 Normal termination of Gaussian 16 at Wed Apr  9 02:14:00 2025.
 Gaussian 16:  ES64L-G16RevC.01  3-Jul-2019

 ----------------------------------------------------------------------
 #t hf aug-cc-pvdz iop(5/13=1,5/36=2,99/5=2) pseudo=read geom=check gue
 ss=(read,tcheck) scf=(maxcycle=1)
 ----------------------------------------------------------------------
 -----
 title
 -----
 Structure from the checkpoint file:  "BzDC215_119_mol1.chk"
 Charge =  0 Multiplicity = 1

                         Standard orientation:
 ---------------------------------------------------------------------
 Center     Atomic      Atomic             Coordinates (Angstroms)
 Number     Number       Type             X           Y           Z
 ---------------------------------------------------------------------
      1          6           0       -1.143246    1.406946    0.000000
      2          6           0       -1.143246    0.711196    1.205074
      3          6           0       -1.143246   -0.680304    1.205074
      4          6           0       -1.143246   -1.376054   -0.000000
      5          6           0       -1.143246   -0.680304   -1.205074
      6          6           0       -1.143246    0.711196   -1.205074
      7          1           0       -1.143246    2.486946    0.000000
      8          1           0       -1.143246    1.251196    2.140382
      9          1           0       -1.143246   -1.220304    2.140382
     10          1           0       -1.143246   -2.456054   -0.000000
     11          1           0       -1.143246   -1.220304   -2.140382
     12          1           0       -1.143246    1.251196   -2.140382
     13         16           0        2.756754    0.015446    0.000000
     14          1           0        2.435000   -1.280818   -0.000000
     15          1           0        1.473279    0.384932    0.000000
 ---------------------------------------------------------------------

 SCF Done:  E(RHF) =  -629.731004135     A.U. after    2 cycles

 The electronic state is 1-A'.
 Alpha  occ. eigenvalues --  -93.94772 -11.25019 -11.25000 -11.24978 -11.24899
 Alpha  occ. eigenvalues --  -11.24892 -11.24874  -8.22899  -6.20781  -6.20666
 Alpha  occ. eigenvalues --   -6.20414  -1.16268  -1.02527  -1.02484  -1.00695
 Alpha  occ. eigenvalues --   -0.84038  -0.84031  -0.73176  -0.65770  -0.64546
 Alpha  occ. eigenvalues --   -0.60866  -0.60825  -0.58575  -0.52498  -0.51358
 Alpha  occ. eigenvalues --   -0.51332  -0.49056  -0.37968  -0.35523  -0.35257
 Alpha virt. eigenvalues --    0.03300   0.03533   0.03630   0.05111   0.05160
 Alpha virt. eigenvalues --    0.05480   0.07753   0.07945   0.09584   0.09720
 Alpha virt. eigenvalues --    0.11942   0.12883   0.12890   0.13926   0.14402

 Mulliken charges:
               1
     1  C    0.206439
     2  C    0.216522
     3  C    0.294241
     4  C    0.140143
     5  C    0.294241
     6  C    0.216522
     7  H   -0.227541
     8  H   -0.230115
     9  H   -0.239516
    10  H   -0.251031
    11  H   -0.239516
    12  H   -0.230115
    13  S   -0.579575
    14  H    0.259500
    15  H    0.369802
 Sum of Mulliken charges =  -0.00000

 Dipole moment (field-independent basis, Debye):
    X=             -1.5327    Y=             -0.5591    Z=             -0.0000  Tot=              1.6315

 Test job not archived.
 1\1\GINC-SE051\SP\RHF\Aug-CC-pVDZ\C6H8S1\OHZDE\09-Apr-2025\0\\#t hf au
 g-cc-pvdz iop(5/13=1,5/36=2,99/5=2) pseudo=read geom=check guess=(read
 ,tcheck) scf=(maxcycle=1)\\title\\0,1\C,0,1.3915,0.,1.\C,0,0.69575,1.2
 0507435,1.\C,0,-0.69575,1.20507435,1.\C,0,-1.3915,0.,1.\C,0,-0.69575,-
 1.20507435,1.\C,0,0.69575,-1.20507435,1.\H,0,2.4715,0.,1.\H,0,1.23575,
 2.14038179,1.\H,0,-1.23575,2.14038179,1.\H,0,-2.4715,0.,1.\H,0,-1.2357
 5,-2.14038179,1.\H,0,1.23575,-2.14038179,1.\S,0,0.,0.,4.9\H,0,-1.29626
 462,0.,4.57824638\H,0,0.36948551,0.,3.6165251\\Version=ES64L-G16RevC.0

 Normal termination of Gaussian 16 at Wed Apr  9 02:14:05 2025.
