 Gaussian 16, Revision C.01,

 ----------------------------------------------------------------------
 #t hf aug-cc-pvdz symm=none int=(grid=ultrafine) guess=(read,tcheck) s
 table=(opt,rrhf)
 ----------------------------------------------------------------------
 -----
 title
 -----
 Symbolic Z-matrix:
 Charge =  0 Multiplicity = 1

 SCF Done:  E(RHF) =  -521.948606609     A.U. after   11 cycles
 Normal termination of Gaussian 16 at Wed Apr  9 02:15:31 2025.
 Gaussian 16:  ES64L-G16RevC.01  3-Jul-2019

 ----------------------------------------------------------------------
 #t hf aug-cc-pvdz iop(5/13=1,5/36=2,99/5=2) pseudo=read geom=check gue
 ss=(read,tcheck) scf=(maxcycle=1)
 ----------------------------------------------------------------------
 -----
 title
 -----
 Structure from the checkpoint file:  "BzDC215_168_mol1.chk"
 Charge =  0 Multiplicity = 1

                         Standard orientation:
 ---------------------------------------------------------------------
 Center     Atomic      Atomic             Coordinates (Angstroms)
 Number     Number       Type             X           Y           Z
 ---------------------------------------------------------------------
      1          6           0       -1.791729   -1.393663    0.015569
      2          6           0       -1.803043   -0.709540   -1.196092
      3          6           0       -1.811351    0.681871   -1.209417
      4          6           0       -1.808345    1.389160   -0.011083
      5          6           0       -1.797031    0.705037    1.200577
      6          6           0       -1.788723   -0.686374    1.213903
      7          1           0       -1.785281   -2.473594    0.025911
      8          1           0       -1.805377   -1.258496   -2.126168
      9          1           0       -1.820133    1.212847   -2.149836
     10          1           0       -1.814793    2.469091   -0.021425
     11          1           0       -1.794697    1.253993    2.130654
     12          1           0       -1.779941   -1.217349    2.154322
     13         14           0        4.199750    0.033228   -0.033750
     14          1           0        2.726402    0.024515   -0.024911
     15          1           0        4.693922   -1.173494   -0.719698
     16          1           0        4.682572    1.425178   -0.049999
     17          1           0        4.702161   -0.646828    1.172905
 ---------------------------------------------------------------------

 SCF Done:  E(RHF) =  -522.228576087     A.U. after    2 cycles

 The electronic state is 1-A.
 Alpha  occ. eigenvalues --  -69.52690 -11.24236 -11.24204 -11.24202 -11.24119
 Alpha  occ. eigenvalues --  -11.24100 -11.24096  -6.19895  -3.95326  -3.95277
 Alpha  occ. eigenvalues --   -3.95247  -1.15396  -1.01711  -1.01710  -0.83282
 Alpha  occ. eigenvalues --   -0.83282  -0.75580  -0.72408  -0.65068  -0.63778
 Alpha  occ. eigenvalues --   -0.60103  -0.60102  -0.52271  -0.51155  -0.50622
 Alpha  occ. eigenvalues --   -0.50622  -0.49081  -0.43940  -0.34583  -0.34582
 Alpha virt. eigenvalues --    0.03370   0.03646   0.03676   0.04183   0.05249
 Alpha virt. eigenvalues --    0.05290   0.06252   0.06304   0.06760   0.07876
 Alpha virt. eigenvalues --    0.09354   0.09784   0.10560   0.10628   0.11374

 Mulliken charges:
               1
     1  C    0.227163
     2  C    0.227142
     3  C    0.230652
     4  C    0.223400
     5  C    0.229830
     6  C    0.226938
     7  H   -0.226104
     8  H   -0.225251
     9  H   -0.227252
    10  H   -0.226162
    11  H   -0.225690
    12  H   -0.224979
    13  Si   0.693752
    14  H   -0.176102
    15  H   -0.135381
    16  H   -0.171668
    17  H   -0.220289
 Sum of Mulliken charges =  -0.00000

 Dipole moment (field-independent basis, Debye):
    X=             -0.0582    Y=              0.5296    Z=             -0.4921  Tot=              0.7253

 Test job not archived.
 1\1\GINC-SE080\SP\RHF\Aug-CC-pVDZ\C6H10Si1\OHZDE\09-Apr-2025\0\\#t hf
 aug-cc-pvdz iop(5/13=1,5/36=2,99/5=2) pseudo=read geom=check guess=(re
 ad,tcheck) scf=(maxcycle=1)\\title\\0,1\C,0,1.3915,0.,1.\C,0,0.69575,1
 .20507435,1.\C,0,-0.69575,1.20507435,1.\C,0,-1.3915,0.,1.\C,0,-0.69575
 ,-1.20507435,1.\C,0,0.69575,-1.20507435,1.\H,0,2.4715,0.,1.\H,0,1.2357
 5,2.14038179,1.\H,0,-1.23575,2.14038179,1.\H,0,-2.4715,0.,1.\H,0,-1.23
 575,-2.14038179,1.\H,0,1.23575,-2.14038179,1.\Si,0,0.,0.,7.\H,0,0.,0.,
 5.5266\H,0,1.20302606,0.69456742,7.49113333\H,0,-1.38913484,0.,7.49113

 Normal termination of Gaussian 16 at Wed Apr  9 02:15:37 2025.
