 Gaussian 16, Revision C.01,

 ----------------------------------------------------------------------
 #t hf aug-cc-pvdz symm=none int=(grid=ultrafine) guess=(read,tcheck) s
 table=(opt,rrhf)
 ----------------------------------------------------------------------
 -----
 title
 -----
 Symbolic Z-matrix:
 Charge =  0 Multiplicity = 1

 SCF Done:  E(RHF) =  -629.425850795     A.U. after   13 cycles
 Normal termination of Gaussian 16 at Wed Apr  9 02:13:37 2025.
 Gaussian 16:  ES64L-G16RevC.01  3-Jul-2019

 ----------------------------------------------------------------------
 #t hf aug-cc-pvdz iop(5/13=1,5/36=2,99/5=2) pseudo=read geom=check gue
 ss=(read,tcheck) scf=(maxcycle=1)
 ----------------------------------------------------------------------
 -----
 title
 -----
 Structure from the checkpoint file:  "BzDC215_116_mol1.chk"
 Charge =  0 Multiplicity = 1

                         Standard orientation:
 ---------------------------------------------------------------------
 Center     Atomic      Atomic             Coordinates (Angstroms)
 Number     Number       Type             X           Y           Z
 ---------------------------------------------------------------------
      1          6           0       -1.098246    1.406946    0.000000
      2          6           0       -1.098246    0.711196    1.205074
      3          6           0       -1.098246   -0.680304    1.205074
      4          6           0       -1.098246   -1.376054   -0.000000
      5          6           0       -1.098246   -0.680304   -1.205074
      6          6           0       -1.098246    0.711196   -1.205074
      7          1           0       -1.098246    2.486946    0.000000
      8          1           0       -1.098246    1.251196    2.140382
      9          1           0       -1.098246   -1.220304    2.140382
     10          1           0       -1.098246   -2.456054   -0.000000
     11          1           0       -1.098246   -1.220304   -2.140382
     12          1           0       -1.098246    1.251196   -2.140382
     13         16           0        2.651754    0.015446    0.000000
     14          1           0        2.330000   -1.280818   -0.000000
     15          1           0        1.368279    0.384932    0.000000
 ---------------------------------------------------------------------

 SCF Done:  E(RHF) =  -629.729864352     A.U. after    2 cycles

 The electronic state is 1-A'.
 Alpha  occ. eigenvalues --  -93.94544 -11.25077 -11.25060 -11.25034 -11.24955
 Alpha  occ. eigenvalues --  -11.24950 -11.24929  -8.22678  -6.20561  -6.20446
 Alpha  occ. eigenvalues --   -6.20196  -1.16356  -1.02598  -1.02546  -1.00530
 Alpha  occ. eigenvalues --   -0.84095  -0.84088  -0.73238  -0.65819  -0.64601
 Alpha  occ. eigenvalues --   -0.60926  -0.60879  -0.58558  -0.52670  -0.51411
 Alpha  occ. eigenvalues --   -0.51382  -0.48671  -0.37922  -0.35608  -0.35215
 Alpha virt. eigenvalues --    0.03300   0.03528   0.03623   0.05112   0.05156
 Alpha virt. eigenvalues --    0.05539   0.07753   0.07968   0.09501   0.09660
 Alpha virt. eigenvalues --    0.11882   0.12878   0.12937   0.13880   0.14429

 Mulliken charges:
               1
     1  C    0.192712
     2  C    0.211003
     3  C    0.299417
     4  C    0.132543
     5  C    0.299417
     6  C    0.211003
     7  H   -0.227709
     8  H   -0.229058
     9  H   -0.241318
    10  H   -0.249823
    11  H   -0.241318
    12  H   -0.229058
    13  S   -0.602489
    14  H    0.261177
    15  H    0.413501
 Sum of Mulliken charges =  -0.00000

 Dipole moment (field-independent basis, Debye):
    X=             -1.5923    Y=             -0.5548    Z=             -0.0000  Tot=              1.6861

 Test job not archived.
 1\1\GINC-SE080\SP\RHF\Aug-CC-pVDZ\C6H8S1\OHZDE\09-Apr-2025\0\\#t hf au
 g-cc-pvdz iop(5/13=1,5/36=2,99/5=2) pseudo=read geom=check guess=(read
 ,tcheck) scf=(maxcycle=1)\\title\\0,1\C,0,1.3915,0.,1.\C,0,0.69575,1.2
 0507435,1.\C,0,-0.69575,1.20507435,1.\C,0,-1.3915,0.,1.\C,0,-0.69575,-
 1.20507435,1.\C,0,0.69575,-1.20507435,1.\H,0,2.4715,0.,1.\H,0,1.23575,
 2.14038179,1.\H,0,-1.23575,2.14038179,1.\H,0,-2.4715,0.,1.\H,0,-1.2357
 5,-2.14038179,1.\H,0,1.23575,-2.14038179,1.\S,0,0.,0.,4.75\H,0,-1.2962
 6462,0.,4.42824638\H,0,0.36948551,0.,3.4665251\\Version=ES64L-G16RevC.

 Normal termination of Gaussian 16 at Wed Apr  9 02:13:41 2025.
