 Gaussian 16, Revision C.01,

 ----------------------------------------------------------------------
 #t hf aug-cc-pvdz symm=none int=(grid=ultrafine) guess=(read,tcheck) s
 table=(opt,rrhf)
 ----------------------------------------------------------------------
 -----
 title
 -----
 Symbolic Z-matrix:
 Charge =  0 Multiplicity = 1

 SCF Done:  E(RHF) =  -330.764201306     A.U. after   11 cycles
 Normal termination of Gaussian 16 at Wed Apr  9 02:15:53 2025.
 Gaussian 16:  ES64L-G16RevC.01  3-Jul-2019

 ----------------------------------------------------------------------
 #t hf aug-cc-pvdz iop(5/13=1,5/36=2,99/5=2) pseudo=read geom=check gue
 ss=(read,tcheck) scf=(maxcycle=1)
 ----------------------------------------------------------------------
 -----
 title
 -----
 Structure from the checkpoint file:  "BzDC215_3_mol1.chk"
 Charge =  0 Multiplicity = 1

                         Standard orientation:
 ---------------------------------------------------------------------
 Center     Atomic      Atomic             Coordinates (Angstroms)
 Number     Number       Type             X           Y           Z
 ---------------------------------------------------------------------
      1          6           0        0.000000    1.391500   -0.559289
      2          6           0       -1.205074    0.695750   -0.559289
      3          6           0       -1.205074   -0.695750   -0.559289
      4          6           0       -0.000000   -1.391500   -0.559289
      5          6           0        1.205074   -0.695750   -0.559289
      6          6           0        1.205074    0.695750   -0.559289
      7          1           0        0.000000    2.471500   -0.559289
      8          1           0       -2.140382    1.235750   -0.559289
      9          1           0       -2.140382   -1.235750   -0.559289
     10          1           0       -0.000000   -2.471500   -0.559289
     11          1           0        2.140382   -1.235750   -0.559289
     12          1           0        2.140382    1.235750   -0.559289
     13          9           0        0.000000    0.000000    2.440711
     14          1           0        0.000000    0.000000    1.523753
 ---------------------------------------------------------------------

 SCF Done:  E(RHF) =  -331.100197258     A.U. after    2 cycles

 The electronic state is 1-A1.
 Alpha  occ. eigenvalues --  -26.43288 -11.25857 -11.25833 -11.25833 -11.25740
 Alpha  occ. eigenvalues --  -11.25725 -11.25725  -1.54777  -1.17327  -1.03450
 Alpha  occ. eigenvalues --   -1.03450  -0.84869  -0.84869  -0.74191  -0.72089
 Alpha  occ. eigenvalues --   -0.66470  -0.65374  -0.61673  -0.61673  -0.59447
 Alpha  occ. eigenvalues --   -0.59447  -0.53008  -0.52114  -0.52114  -0.36461
 Alpha  occ. eigenvalues --   -0.36461
 Alpha virt. eigenvalues --    0.03357   0.03488   0.03488   0.05159   0.05159
 Alpha virt. eigenvalues --    0.07630   0.08558   0.09183   0.09183   0.11535
 Alpha virt. eigenvalues --    0.12911   0.12911   0.14377   0.14651   0.14651

 Mulliken charges:
               1
     1  C    0.215378
     2  C    0.215378
     3  C    0.215378
     4  C    0.215378
     5  C    0.215378
     6  C    0.215378
     7  H   -0.235115
     8  H   -0.235115
     9  H   -0.235115
    10  H   -0.235115
    11  H   -0.235115
    12  H   -0.235115
    13  F   -0.628069
    14  H    0.746486
 Sum of Mulliken charges =  -0.00000

 Dipole moment (field-independent basis, Debye):
    X=              0.0000    Y=              0.0000    Z=             -2.4261  Tot=              2.4261

 Test job not archived.
 1\1\GINC-SE127\SP\RHF\Aug-CC-pVDZ\C6H7F1\OHZDE\09-Apr-2025\0\\#t hf au
 g-cc-pvdz iop(5/13=1,5/36=2,99/5=2) pseudo=read geom=check guess=(read
 ,tcheck) scf=(maxcycle=1)\\title\\0,1\C,0,1.3915,0.,1.\C,0,0.69575,1.2
 0507435,1.\C,0,-0.69575,1.20507435,1.\C,0,-1.3915,0.,1.\C,0,-0.69575,-
 1.20507435,1.\C,0,0.69575,-1.20507435,1.\H,0,2.4715,0.,1.\H,0,1.23575,
 2.14038179,1.\H,0,-1.23575,2.14038179,1.\H,0,-2.4715,0.,1.\H,0,-1.2357
 5,-2.14038179,1.\H,0,1.23575,-2.14038179,1.\F,0,0.,0.,4.\H,0,0.,0.,3.0
 83042\\Version=ES64L-G16RevC.01\State=1-A1\HF=-331.1001973\RMSD=5.105e

 Normal termination of Gaussian 16 at Wed Apr  9 02:15:57 2025.
