 Gaussian 16, Revision C.01,

 ----------------------------------------------------------------------
 #t hf aug-cc-pvdz symm=none int=(grid=ultrafine) guess=(read,tcheck) s
 table=(opt,rrhf)
 ----------------------------------------------------------------------
 -----
 title
 -----
 Symbolic Z-matrix:
 Charge =  0 Multiplicity = 1

 SCF Done:  E(RHF) =  -573.171813069     A.U. after   14 cycles
 Normal termination of Gaussian 16 at Wed Apr  9 02:14:37 2025.
 Gaussian 16:  ES64L-G16RevC.01  3-Jul-2019

 ----------------------------------------------------------------------
 #t hf aug-cc-pvdz iop(5/13=1,5/36=2,99/5=2) pseudo=read geom=check gue
 ss=(read,tcheck) scf=(maxcycle=1)
 ----------------------------------------------------------------------
 -----
 title
 -----
 Structure from the checkpoint file:  "BzDC215_134_mol1.chk"
 Charge =  0 Multiplicity = 1

                         Standard orientation:
 ---------------------------------------------------------------------
 Center     Atomic      Atomic             Coordinates (Angstroms)
 Number     Number       Type             X           Y           Z
 ---------------------------------------------------------------------
      1          6           0        1.123656    0.018947   -1.370111
      2          6           0        1.099249   -1.196705   -0.693452
      3          6           0        1.033022   -1.218198    0.696305
      4          6           0        0.991201   -0.024039    1.409403
      5          6           0        1.015607    1.191612    0.732744
      6          6           0        1.081834    1.213106   -0.657013
      7          1           0        1.175058    0.035629   -2.448758
      8          1           0        1.131709   -2.123540   -1.246917
      9          1           0        1.014079   -2.161715    1.221487
     10          1           0        0.939799   -0.040721    2.488050
     11          1           0        0.983148    2.118448    1.286208
     12          1           0        1.100777    2.156623   -1.182196
     13         15           0       -2.538398   -0.025936   -0.152071
     14          1           0       -1.128984   -0.016768   -0.084765
     15          1           0       -3.041996   -0.640657    1.013934
     16          1           0       -2.165037    1.153399    0.526776
 ---------------------------------------------------------------------

 SCF Done:  E(RHF) =  -573.460983506     A.U. after    2 cycles

 The electronic state is 1-A.
 Alpha  occ. eigenvalues --  -84.25420 -11.24822 -11.24776 -11.24749 -11.24705
 Alpha  occ. eigenvalues --  -11.24661 -11.24621  -6.72689  -4.25269  -4.24669
 Alpha  occ. eigenvalues --   -4.24365  -1.16102  -1.02326  -1.02312  -0.86130
 Alpha  occ. eigenvalues --   -0.83837  -0.83834  -0.72979  -0.65575  -0.64324
 Alpha  occ. eigenvalues --   -0.60660  -0.60645  -0.54983  -0.51146  -0.51138
 Alpha  occ. eigenvalues --   -0.50303  -0.43457  -0.35931  -0.35229  -0.34165
 Alpha virt. eigenvalues --    0.03349   0.03628   0.03706   0.05077   0.05165
 Alpha virt. eigenvalues --    0.05176   0.07788   0.08468   0.08826   0.09404
 Alpha virt. eigenvalues --    0.09795   0.10469   0.11947   0.12845   0.14037

 Mulliken charges:
               1
     1  C    0.179021
     2  C    0.304883
     3  C    0.201158
     4  C    0.371328
     5  C    0.082204
     6  C    0.338367
     7  H   -0.239242
     8  H   -0.239374
     9  H   -0.244984
    10  H   -0.246874
    11  H   -0.265247
    12  H   -0.243383
    13  P   -0.746004
    14  H    0.169672
    15  H    0.416222
    16  H    0.162253
 Sum of Mulliken charges =   0.00000

 Dipole moment (field-independent basis, Debye):
    X=              0.7884    Y=             -0.3398    Z=              0.4175  Tot=              0.9546

 Test job not archived.
 1\1\GINC-SE108\SP\RHF\Aug-CC-pVDZ\C6H9P1\OHZDE\09-Apr-2025\0\\#t hf au
 g-cc-pvdz iop(5/13=1,5/36=2,99/5=2) pseudo=read geom=check guess=(read
 ,tcheck) scf=(maxcycle=1)\\title\\0,1\C,0,1.3915,0.,1.\C,0,0.69575,1.2
 0507435,1.\C,0,-0.69575,1.20507435,1.\C,0,-1.3915,0.,1.\C,0,-0.69575,-
 1.20507435,1.\C,0,0.69575,-1.20507435,1.\H,0,2.4715,0.,1.\H,0,1.23575,
 2.14038179,1.\H,0,-1.23575,2.14038179,1.\H,0,-2.4715,0.,1.\H,0,-1.2357
 5,-2.14038179,1.\H,0,1.23575,-2.14038179,1.\P,0,0.,0.,4.6\H,0,0.,0.,3.
 18895\H,0,-1.19800816,0.59336739,5.05139084\H,0,-0.64201064,-1.1867347

 Normal termination of Gaussian 16 at Wed Apr  9 02:14:43 2025.
