 Gaussian 16, Revision C.01,

 ----------------------------------------------------------------------
 #t hf aug-cc-pvdz symm=none int=(grid=ultrafine) guess=(read,tcheck) s
 table=(opt,rrhf)
 ----------------------------------------------------------------------
 -----
 title
 -----
 Symbolic Z-matrix:
 Charge =  0 Multiplicity = 1

 SCF Done:  E(RHF) =  -521.944404106     A.U. after   13 cycles
 Normal termination of Gaussian 16 at Wed Apr  9 02:15:40 2025.
 Gaussian 16:  ES64L-G16RevC.01  3-Jul-2019

 ----------------------------------------------------------------------
 #t hf aug-cc-pvdz iop(5/13=1,5/36=2,99/5=2) pseudo=read geom=check gue
 ss=(read,tcheck) scf=(maxcycle=1)
 ----------------------------------------------------------------------
 -----
 title
 -----
 Structure from the checkpoint file:  "BzDC215_155_mol1.chk"
 Charge =  0 Multiplicity = 1

                         Standard orientation:
 ---------------------------------------------------------------------
 Center     Atomic      Atomic             Coordinates (Angstroms)
 Number     Number       Type             X           Y           Z
 ---------------------------------------------------------------------
      1          6           0       -1.153471   -1.396689    0.022302
      2          6           0       -1.175902   -0.715907   -1.191084
      3          6           0       -1.192468    0.675391   -1.208056
      4          6           0       -1.186603    1.385907   -0.011642
      5          6           0       -1.164172    0.705125    1.201743
      6          6           0       -1.147605   -0.686173    1.218716
      7          1           0       -1.140613   -2.476532    0.035475
      8          1           0       -1.180454   -1.267367   -2.119669
      9          1           0       -1.209878    1.203774   -2.149814
     10          1           0       -1.199461    2.465750   -0.024815
     11          1           0       -1.159619    1.256585    2.130329
     12          1           0       -1.130195   -1.214556    2.160474
     13         14           0        2.729418    0.040474   -0.041025
     14          1           0        1.256224    0.023147   -0.023512
     15          1           0        3.226650   -1.165170   -0.726655
     16          1           0        3.203945    1.435183   -0.063806
     17          1           0        3.242876   -0.633375    1.164461
 ---------------------------------------------------------------------

 SCF Done:  E(RHF) =  -522.223052256     A.U. after    2 cycles

 The electronic state is 1-A.
 Alpha  occ. eigenvalues --  -69.51604 -11.24427 -11.24395 -11.24388 -11.24313
 Alpha  occ. eigenvalues --  -11.24286 -11.24279  -6.18825  -3.94261  -3.94194
 Alpha  occ. eigenvalues --   -3.94185  -1.15629  -1.01893  -1.01890  -0.83456
 Alpha  occ. eigenvalues --   -0.83456  -0.74830  -0.72595  -0.65239  -0.63948
 Alpha  occ. eigenvalues --   -0.60273  -0.60270  -0.53020  -0.51396  -0.50788
 Alpha  occ. eigenvalues --   -0.50786  -0.46360  -0.43178  -0.34848  -0.34830
 Alpha virt. eigenvalues --    0.03400   0.03597   0.03678   0.04286   0.05222
 Alpha virt. eigenvalues --    0.05261   0.06809   0.07068   0.07316   0.07849
 Alpha virt. eigenvalues --    0.09483   0.09834   0.11244   0.11459   0.11792

 Mulliken charges:
               1
     1  C    0.215501
     2  C    0.279099
     3  C    0.221309
     4  C    0.237988
     5  C    0.249468
     6  C    0.276329
     7  H   -0.254123
     8  H   -0.258475
     9  H   -0.250102
    10  H   -0.258140
    11  H   -0.256261
    12  H   -0.258070
    13  Si   0.509367
    14  H    0.043550
    15  H   -0.125818
    16  H   -0.159236
    17  H   -0.212386
 Sum of Mulliken charges =   0.00000

 Dipole moment (field-independent basis, Debye):
    X=             -0.4139    Y=              0.4997    Z=             -0.4673  Tot=              0.7996

 Test job not archived.
 1\1\GINC-SE108\SP\RHF\Aug-CC-pVDZ\C6H10Si1\OHZDE\09-Apr-2025\0\\#t hf
 aug-cc-pvdz iop(5/13=1,5/36=2,99/5=2) pseudo=read geom=check guess=(re
 ad,tcheck) scf=(maxcycle=1)\\title\\0,1\C,0,1.3915,0.,1.\C,0,0.69575,1
 .20507435,1.\C,0,-0.69575,1.20507435,1.\C,0,-1.3915,0.,1.\C,0,-0.69575
 ,-1.20507435,1.\C,0,0.69575,-1.20507435,1.\H,0,2.4715,0.,1.\H,0,1.2357
 5,2.14038179,1.\H,0,-1.23575,2.14038179,1.\H,0,-2.4715,0.,1.\H,0,-1.23
 575,-2.14038179,1.\H,0,1.23575,-2.14038179,1.\Si,0,0.,0.,4.9\H,0,0.,0.
 ,3.4266\H,0,1.20302606,0.69456742,5.39113333\H,0,-1.38913484,0.,5.3911

 Normal termination of Gaussian 16 at Wed Apr  9 02:15:47 2025.
