 Gaussian 16, Revision C.01,

 ----------------------------------------------------------------------
 #t hf aug-cc-pvdz symm=none int=(grid=ultrafine) guess=(read,tcheck) s
 table=(opt,rrhf)
 ----------------------------------------------------------------------
 -----
 title
 -----
 Symbolic Z-matrix:
 Charge =  0 Multiplicity = 1

 SCF Done:  E(RHF) =  -629.421901830     A.U. after   13 cycles
 Normal termination of Gaussian 16 at Wed Apr  9 02:13:29 2025.
 Gaussian 16:  ES64L-G16RevC.01  3-Jul-2019

 ----------------------------------------------------------------------
 #t hf aug-cc-pvdz iop(5/13=1,5/36=2,99/5=2) pseudo=read geom=check gue
 ss=(read,tcheck) scf=(maxcycle=1)
 ----------------------------------------------------------------------
 -----
 title
 -----
 Structure from the checkpoint file:  "BzDC215_112_mol1.chk"
 Charge =  0 Multiplicity = 1

                         Standard orientation:
 ---------------------------------------------------------------------
 Center     Atomic      Atomic             Coordinates (Angstroms)
 Number     Number       Type             X           Y           Z
 ---------------------------------------------------------------------
      1          6           0       -1.023246    1.406946    0.000000
      2          6           0       -1.023246    0.711196    1.205074
      3          6           0       -1.023246   -0.680304    1.205074
      4          6           0       -1.023246   -1.376054   -0.000000
      5          6           0       -1.023246   -0.680304   -1.205074
      6          6           0       -1.023246    0.711196   -1.205074
      7          1           0       -1.023246    2.486946    0.000000
      8          1           0       -1.023246    1.251196    2.140382
      9          1           0       -1.023246   -1.220304    2.140382
     10          1           0       -1.023246   -2.456054   -0.000000
     11          1           0       -1.023246   -1.220304   -2.140382
     12          1           0       -1.023246    1.251196   -2.140382
     13         16           0        2.476754    0.015446    0.000000
     14          1           0        2.155000   -1.280818   -0.000000
     15          1           0        1.193279    0.384932    0.000000
 ---------------------------------------------------------------------

 SCF Done:  E(RHF) =  -629.726142514     A.U. after    2 cycles

 The electronic state is 1-A'.
 Alpha  occ. eigenvalues --  -93.94043 -11.25188 -11.25170 -11.25139 -11.25062
 Alpha  occ. eigenvalues --  -11.25059 -11.25034  -8.22197  -6.20081  -6.19965
 Alpha  occ. eigenvalues --   -6.19718  -1.16559  -1.02748  -1.02672  -1.00195
 Alpha  occ. eigenvalues --   -0.84210  -0.84201  -0.73371  -0.65917  -0.64712
 Alpha  occ. eigenvalues --   -0.61056  -0.60991  -0.58681  -0.52940  -0.51517
 Alpha  occ. eigenvalues --   -0.51483  -0.47806  -0.37960  -0.35772  -0.34997
 Alpha virt. eigenvalues --    0.03296   0.03514   0.03606   0.05110   0.05148
 Alpha virt. eigenvalues --    0.05644   0.07751   0.08012   0.09330   0.09539
 Alpha virt. eigenvalues --    0.11698   0.12942   0.13003   0.13817   0.14451

 Mulliken charges:
               1
     1  C    0.159164
     2  C    0.204494
     3  C    0.300353
     4  C    0.130485
     5  C    0.300353
     6  C    0.204494
     7  H   -0.227528
     8  H   -0.226865
     9  H   -0.242594
    10  H   -0.248742
    11  H   -0.242594
    12  H   -0.226865
    13  S   -0.653235
    14  H    0.267714
    15  H    0.501366
 Sum of Mulliken charges =  -0.00000

 Dipole moment (field-independent basis, Debye):
    X=             -1.7110    Y=             -0.5448    Z=              0.0000  Tot=              1.7956

 Test job not archived.
 1\1\GINC-SE341\SP\RHF\Aug-CC-pVDZ\C6H8S1\OHZDE\09-Apr-2025\0\\#t hf au
 g-cc-pvdz iop(5/13=1,5/36=2,99/5=2) pseudo=read geom=check guess=(read
 ,tcheck) scf=(maxcycle=1)\\title\\0,1\C,0,1.3915,0.,1.\C,0,0.69575,1.2
 0507435,1.\C,0,-0.69575,1.20507435,1.\C,0,-1.3915,0.,1.\C,0,-0.69575,-
 1.20507435,1.\C,0,0.69575,-1.20507435,1.\H,0,2.4715,0.,1.\H,0,1.23575,
 2.14038179,1.\H,0,-1.23575,2.14038179,1.\H,0,-2.4715,0.,1.\H,0,-1.2357
 5,-2.14038179,1.\H,0,1.23575,-2.14038179,1.\S,0,0.,0.,4.5\H,0,-1.29626
 462,0.,4.17824638\H,0,0.36948551,0.,3.2165251\\Version=ES64L-G16RevC.0

 Normal termination of Gaussian 16 at Wed Apr  9 02:13:33 2025.
