 Gaussian 16, Revision C.01,

 ----------------------------------------------------------------------
 #t hf aug-cc-pvdz symm=none int=(grid=ultrafine) guess=(read,tcheck) s
 table=(opt,rrhf)
 ----------------------------------------------------------------------
 -----
 title
 -----
 Symbolic Z-matrix:
 Charge =  0 Multiplicity = 1

 SCF Done:  E(RHF) =  -629.427734161     A.U. after   13 cycles
 Normal termination of Gaussian 16 at Wed Apr  9 02:14:00 2025.
 Gaussian 16:  ES64L-G16RevC.01  3-Jul-2019

 ----------------------------------------------------------------------
 #t hf aug-cc-pvdz iop(5/13=1,5/36=2,99/5=2) pseudo=read geom=check gue
 ss=(read,tcheck) scf=(maxcycle=1)
 ----------------------------------------------------------------------
 -----
 title
 -----
 Structure from the checkpoint file:  "BzDC215_121_mol1.chk"
 Charge =  0 Multiplicity = 1

                         Standard orientation:
 ---------------------------------------------------------------------
 Center     Atomic      Atomic             Coordinates (Angstroms)
 Number     Number       Type             X           Y           Z
 ---------------------------------------------------------------------
      1          6           0       -1.203246    1.406946    0.000000
      2          6           0       -1.203246    0.711196    1.205074
      3          6           0       -1.203246   -0.680304    1.205074
      4          6           0       -1.203246   -1.376054    0.000000
      5          6           0       -1.203246   -0.680304   -1.205074
      6          6           0       -1.203246    0.711196   -1.205074
      7          1           0       -1.203246    2.486946    0.000000
      8          1           0       -1.203246    1.251196    2.140382
      9          1           0       -1.203246   -1.220304    2.140382
     10          1           0       -1.203246   -2.456054    0.000000
     11          1           0       -1.203246   -1.220304   -2.140382
     12          1           0       -1.203246    1.251196   -2.140382
     13         16           0        2.896754    0.015446    0.000000
     14          1           0        2.575000   -1.280818    0.000000
     15          1           0        1.613279    0.384932    0.000000
 ---------------------------------------------------------------------

 SCF Done:  E(RHF) =  -629.731816988     A.U. after    2 cycles

 The electronic state is 1-A'.
 Alpha  occ. eigenvalues --  -93.95013 -11.24950 -11.24929 -11.24911 -11.24830
 Alpha  occ. eigenvalues --  -11.24822 -11.24806  -8.23135  -6.21016  -6.20901
 Alpha  occ. eigenvalues --   -6.20648  -1.16176  -1.02448  -1.02414  -1.00883
 Alpha  occ. eigenvalues --   -0.83972  -0.83967  -0.73107  -0.65713  -0.64480
 Alpha  occ. eigenvalues --   -0.60797  -0.60763  -0.58651  -0.52290  -0.51296
 Alpha  occ. eigenvalues --   -0.51274  -0.49454  -0.38066  -0.35423  -0.35259
 Alpha virt. eigenvalues --    0.03297   0.03538   0.03637   0.05105   0.05163
 Alpha virt. eigenvalues --    0.05406   0.07752   0.07917   0.09679   0.09789
 Alpha virt. eigenvalues --    0.11960   0.12797   0.12958   0.13979   0.14364

 Mulliken charges:
               1
     1  C    0.218162
     2  C    0.224496
     3  C    0.283360
     4  C    0.156649
     5  C    0.283360
     6  C    0.224496
     7  H   -0.227407
     8  H   -0.231535
     9  H   -0.236894
    10  H   -0.251907
    11  H   -0.236894
    12  H   -0.231535
    13  S   -0.556318
    14  H    0.259153
    15  H    0.322814
 Sum of Mulliken charges =   0.00000

 Dipole moment (field-independent basis, Debye):
    X=             -1.4641    Y=             -0.5634    Z=             -0.0000  Tot=              1.5688

 Test job not archived.
 1\1\GINC-SE127\SP\RHF\Aug-CC-pVDZ\C6H8S1\OHZDE\09-Apr-2025\0\\#t hf au
 g-cc-pvdz iop(5/13=1,5/36=2,99/5=2) pseudo=read geom=check guess=(read
 ,tcheck) scf=(maxcycle=1)\\title\\0,1\C,0,1.3915,0.,1.\C,0,0.69575,1.2
 0507435,1.\C,0,-0.69575,1.20507435,1.\C,0,-1.3915,0.,1.\C,0,-0.69575,-
 1.20507435,1.\C,0,0.69575,-1.20507435,1.\H,0,2.4715,0.,1.\H,0,1.23575,
 2.14038179,1.\H,0,-1.23575,2.14038179,1.\H,0,-2.4715,0.,1.\H,0,-1.2357
 5,-2.14038179,1.\H,0,1.23575,-2.14038179,1.\S,0,0.,0.,5.1\H,0,-1.29626
 462,0.,4.77824638\H,0,0.36948551,0.,3.8165251\\Version=ES64L-G16RevC.0

 Normal termination of Gaussian 16 at Wed Apr  9 02:14:05 2025.
