 Gaussian 16, Revision C.01,

 ----------------------------------------------------------------------
 #t hf aug-cc-pvdz symm=none int=(grid=ultrafine) guess=(read,tcheck) s
 table=(opt,rrhf)
 ----------------------------------------------------------------------
 -----
 title
 -----
 Symbolic Z-matrix:
 Charge =  0 Multiplicity = 1

 SCF Done:  E(RHF) =  -521.945630938     A.U. after   13 cycles
 Normal termination of Gaussian 16 at Wed Apr  9 02:15:41 2025.
 Gaussian 16:  ES64L-G16RevC.01  3-Jul-2019

 ----------------------------------------------------------------------
 #t hf aug-cc-pvdz iop(5/13=1,5/36=2,99/5=2) pseudo=read geom=check gue
 ss=(read,tcheck) scf=(maxcycle=1)
 ----------------------------------------------------------------------
 -----
 title
 -----
 Structure from the checkpoint file:  "BzDC215_156_mol1.chk"
 Charge =  0 Multiplicity = 1

                         Standard orientation:
 ---------------------------------------------------------------------
 Center     Atomic      Atomic             Coordinates (Angstroms)
 Number     Number       Type             X           Y           Z
 ---------------------------------------------------------------------
      1          6           0       -1.184254   -1.396390    0.021642
      2          6           0       -1.205640   -0.715279   -1.191578
      3          6           0       -1.221424    0.676032   -1.208195
      4          6           0       -1.215823    1.386232   -0.011593
      5          6           0       -1.194438    0.705121    1.201627
      6          6           0       -1.178653   -0.686190    1.218244
      7          1           0       -1.172003   -2.476244    0.034539
      8          1           0       -1.209987   -1.266494   -2.120310
      9          1           0       -1.238022    1.204671   -2.149825
     10          1           0       -1.228074    2.466086   -0.024491
     11          1           0       -1.190091    1.256336    2.130359
     12          1           0       -1.162055   -1.214829    2.159874
     13         14           0        2.799453    0.039754   -0.040305
     14          1           0        1.326240    0.023240   -0.023608
     15          1           0        3.296394   -1.165987   -0.725977
     16          1           0        3.274767    1.434205   -0.062460
     17          1           0        3.311873   -0.634695    1.165287
 ---------------------------------------------------------------------

 SCF Done:  E(RHF) =  -522.224389667     A.U. after    2 cycles

 The electronic state is 1-A.
 Alpha  occ. eigenvalues --  -69.51729 -11.24400 -11.24367 -11.24360 -11.24285
 Alpha  occ. eigenvalues --  -11.24259 -11.24251  -6.18946  -3.94382  -3.94317
 Alpha  occ. eigenvalues --   -3.94306  -1.15584  -1.01862  -1.01860  -0.83429
 Alpha  occ. eigenvalues --   -0.83428  -0.74895  -0.72566  -0.65213  -0.63921
 Alpha  occ. eigenvalues --   -0.60245  -0.60243  -0.52725  -0.51466  -0.50762
 Alpha  occ. eigenvalues --   -0.50760  -0.46747  -0.43255  -0.34803  -0.34788
 Alpha virt. eigenvalues --    0.03402   0.03602   0.03681   0.04274   0.05224
 Alpha virt. eigenvalues --    0.05265   0.06785   0.07030   0.07287   0.07853
 Alpha virt. eigenvalues --    0.09492   0.09859   0.11192   0.11384   0.11946

 Mulliken charges:
               1
     1  C    0.215737
     2  C    0.281879
     3  C    0.219805
     4  C    0.240191
     5  C    0.248310
     6  C    0.278347
     7  H   -0.252675
     8  H   -0.257104
     9  H   -0.248276
    10  H   -0.256365
    11  H   -0.254190
    12  H   -0.256248
    13  Si   0.517900
    14  H    0.018260
    15  H   -0.124944
    16  H   -0.159159
    17  H   -0.211468
 Sum of Mulliken charges =  -0.00000

 Dipole moment (field-independent basis, Debye):
    X=             -0.3712    Y=              0.5022    Z=             -0.4694  Tot=              0.7812

 Test job not archived.
 1\1\GINC-SE159\SP\RHF\Aug-CC-pVDZ\C6H10Si1\OHZDE\09-Apr-2025\0\\#t hf
 aug-cc-pvdz iop(5/13=1,5/36=2,99/5=2) pseudo=read geom=check guess=(re
 ad,tcheck) scf=(maxcycle=1)\\title\\0,1\C,0,1.3915,0.,1.\C,0,0.69575,1
 .20507435,1.\C,0,-0.69575,1.20507435,1.\C,0,-1.3915,0.,1.\C,0,-0.69575
 ,-1.20507435,1.\C,0,0.69575,-1.20507435,1.\H,0,2.4715,0.,1.\H,0,1.2357
 5,2.14038179,1.\H,0,-1.23575,2.14038179,1.\H,0,-2.4715,0.,1.\H,0,-1.23
 575,-2.14038179,1.\H,0,1.23575,-2.14038179,1.\Si,0,0.,0.,5.\H,0,0.,0.,
 3.5266\H,0,1.20302606,0.69456742,5.49113333\H,0,-1.38913484,0.,5.49113

 Normal termination of Gaussian 16 at Wed Apr  9 02:15:51 2025.
