 Gaussian 16, Revision C.01,

 ----------------------------------------------------------------------
 #t hf aug-cc-pvdz symm=none int=(grid=ultrafine) guess=(read,tcheck) s
 table=(opt,rrhf)
 ----------------------------------------------------------------------
 -----
 title
 -----
 Symbolic Z-matrix:
 Charge =  0 Multiplicity = 1

 SCF Done:  E(RHF) =  -573.177118562     A.U. after   13 cycles
 Normal termination of Gaussian 16 at Wed Apr  9 02:14:36 2025.
 Gaussian 16:  ES64L-G16RevC.01  3-Jul-2019

 ----------------------------------------------------------------------
 #t hf aug-cc-pvdz iop(5/13=1,5/36=2,99/5=2) pseudo=read geom=check gue
 ss=(read,tcheck) scf=(maxcycle=1)
 ----------------------------------------------------------------------
 -----
 title
 -----
 Structure from the checkpoint file:  "BzDC215_137_mol1.chk"
 Charge =  0 Multiplicity = 1

                         Standard orientation:
 ---------------------------------------------------------------------
 Center     Atomic      Atomic             Coordinates (Angstroms)
 Number     Number       Type             X           Y           Z
 ---------------------------------------------------------------------
      1          6           0        1.203833    0.019045   -1.374398
      2          6           0        1.183661   -1.196636   -0.697652
      3          6           0        1.127291   -1.218182    0.692539
      4          6           0        1.091095   -0.024047    1.405983
      5          6           0        1.111267    1.191634    0.729237
      6          6           0        1.167636    1.213180   -0.660954
      7          1           0        1.247584    0.035767   -2.453382
      8          1           0        1.211754   -2.123453   -1.251386
      9          1           0        1.111635   -2.161722    1.217789
     10          1           0        1.047344   -0.040769    2.484967
     11          1           0        1.083173    2.118451    1.282971
     12          1           0        1.183293    2.156719   -1.186204
     13         15           0       -2.749249   -0.026001   -0.142575
     14          1           0       -1.339388   -0.017499   -0.085276
     15          1           0       -3.244845   -0.640556    1.026942
     16          1           0       -2.370524    1.153118    0.533671
 ---------------------------------------------------------------------

 SCF Done:  E(RHF) =  -573.465993184     A.U. after    2 cycles

 The electronic state is 1-A.
 Alpha  occ. eigenvalues --  -84.25912 -11.24695 -11.24657 -11.24641 -11.24581
 Alpha  occ. eigenvalues --  -11.24547 -11.24526  -6.73164  -4.25720  -4.25113
 Alpha  occ. eigenvalues --   -4.24810  -1.15891  -1.02178  -1.02169  -0.86418
 Alpha  occ. eigenvalues --   -0.83711  -0.83709  -0.72838  -0.65467  -0.64207
 Alpha  occ. eigenvalues --   -0.60530  -0.60520  -0.54198  -0.51032  -0.51025
 Alpha  occ. eigenvalues --   -0.50913  -0.43987  -0.35713  -0.35110  -0.34634
 Alpha virt. eigenvalues --    0.03361   0.03643   0.03721   0.04993   0.05176
 Alpha virt. eigenvalues --    0.05194   0.07802   0.08396   0.08904   0.09486
 Alpha virt. eigenvalues --    0.09945   0.10372   0.12099   0.12506   0.14075

 Mulliken charges:
               1
     1  C    0.182254
     2  C    0.281909
     3  C    0.197548
     4  C    0.365075
     5  C    0.105152
     6  C    0.337593
     7  H   -0.236874
     8  H   -0.233136
     9  H   -0.241113
    10  H   -0.241289
    11  H   -0.268110
    12  H   -0.240107
    13  P   -0.653091
    14  H    0.089324
    15  H    0.411563
    16  H    0.143303
 Sum of Mulliken charges =   0.00000

 Dipole moment (field-independent basis, Debye):
    X=              0.6388    Y=             -0.3228    Z=              0.4069  Tot=              0.8233

 Test job not archived.
 1\1\GINC-SE195\SP\RHF\Aug-CC-pVDZ\C6H9P1\OHZDE\09-Apr-2025\0\\#t hf au
 g-cc-pvdz iop(5/13=1,5/36=2,99/5=2) pseudo=read geom=check guess=(read
 ,tcheck) scf=(maxcycle=1)\\title\\0,1\C,0,1.3915,0.,1.\C,0,0.69575,1.2
 0507435,1.\C,0,-0.69575,1.20507435,1.\C,0,-1.3915,0.,1.\C,0,-0.69575,-
 1.20507435,1.\C,0,0.69575,-1.20507435,1.\H,0,2.4715,0.,1.\H,0,1.23575,
 2.14038179,1.\H,0,-1.23575,2.14038179,1.\H,0,-2.4715,0.,1.\H,0,-1.2357
 5,-2.14038179,1.\H,0,1.23575,-2.14038179,1.\P,0,0.,0.,4.9\H,0,0.,0.,3.
 48895\H,0,-1.19800816,0.59336739,5.35139084\H,0,-0.64201064,-1.1867347

 Normal termination of Gaussian 16 at Wed Apr  9 02:14:43 2025.
