 Gaussian 16, Revision C.01,

 ----------------------------------------------------------------------
 #t hf aug-cc-pvdz symm=none int=(grid=ultrafine) guess=(read,tcheck) s
 table=(opt,rrhf)
 ----------------------------------------------------------------------
 -----
 title
 -----
 Symbolic Z-matrix:
 Charge =  0 Multiplicity = 1

 SCF Done:  E(RHF) =  -573.174127960     A.U. after   14 cycles
 Normal termination of Gaussian 16 at Wed Apr  9 02:14:37 2025.
 Gaussian 16:  ES64L-G16RevC.01  3-Jul-2019

 ----------------------------------------------------------------------
 #t hf aug-cc-pvdz iop(5/13=1,5/36=2,99/5=2) pseudo=read geom=check gue
 ss=(read,tcheck) scf=(maxcycle=1)
 ----------------------------------------------------------------------
 -----
 title
 -----
 Structure from the checkpoint file:  "BzDC215_135_mol1.chk"
 Charge =  0 Multiplicity = 1

                         Standard orientation:
 ---------------------------------------------------------------------
 Center     Atomic      Atomic             Coordinates (Angstroms)
 Number     Number       Type             X           Y           Z
 ---------------------------------------------------------------------
      1          6           0        1.149990    0.018841   -1.371736
      2          6           0        1.127174   -1.196754   -0.694920
      3          6           0        1.064629   -1.218127    0.695010
      4          6           0        1.024900   -0.023906    1.408122
      5          6           0        1.047716    1.191689    0.731306
      6          6           0        1.110261    1.213062   -0.658624
      7          1           0        1.198534    0.035430   -2.450517
      8          1           0        1.158010   -2.123638   -1.248395
      9          1           0        1.046921   -2.161600    1.220315
     10          1           0        0.976357   -0.040495    2.486903
     11          1           0        1.016881    2.118573    1.284781
     12          1           0        1.127969    2.156535   -1.183929
     13         15           0       -2.608724   -0.025964   -0.148490
     14          1           0       -1.199135   -0.017028   -0.084923
     15          1           0       -3.109332   -0.640509    1.018895
     16          1           0       -2.233366    1.153361    0.529272
 ---------------------------------------------------------------------

 SCF Done:  E(RHF) =  -573.463147016     A.U. after    2 cycles

 The electronic state is 1-A.
 Alpha  occ. eigenvalues --  -84.25606 -11.24775 -11.24732 -11.24709 -11.24659
 Alpha  occ. eigenvalues --  -11.24619 -11.24587  -6.72868  -4.25439  -4.24839
 Alpha  occ. eigenvalues --   -4.24533  -1.16017  -1.02269  -1.02257  -0.86232
 Alpha  occ. eigenvalues --   -0.83789  -0.83787  -0.72924  -0.65534  -0.64280
 Alpha  occ. eigenvalues --   -0.60610  -0.60597  -0.54671  -0.51103  -0.51095
 Alpha  occ. eigenvalues --   -0.50538  -0.43653  -0.35837  -0.35190  -0.34354
 Alpha virt. eigenvalues --    0.03354   0.03634   0.03712   0.05048   0.05168
 Alpha virt. eigenvalues --    0.05182   0.07793   0.08446   0.08851   0.09437
 Alpha virt. eigenvalues --    0.09850   0.10434   0.12002   0.12719   0.14053

 Mulliken charges:
               1
     1  C    0.179087
     2  C    0.297434
     3  C    0.199244
     4  C    0.370800
     5  C    0.088066
     6  C    0.339074
     7  H   -0.238624
     8  H   -0.237178
     9  H   -0.243651
    10  H   -0.244847
    11  H   -0.266268
    12  H   -0.242529
    13  P   -0.709600
    14  H    0.139478
    15  H    0.414872
    16  H    0.154641
 Sum of Mulliken charges =  -0.00000

 Dipole moment (field-independent basis, Debye):
    X=              0.7333    Y=             -0.3340    Z=              0.4134  Tot=              0.9056

 Test job not archived.
 1\1\GINC-SE143\SP\RHF\Aug-CC-pVDZ\C6H9P1\OHZDE\09-Apr-2025\0\\#t hf au
 g-cc-pvdz iop(5/13=1,5/36=2,99/5=2) pseudo=read geom=check guess=(read
 ,tcheck) scf=(maxcycle=1)\\title\\0,1\C,0,1.3915,0.,1.\C,0,0.69575,1.2
 0507435,1.\C,0,-0.69575,1.20507435,1.\C,0,-1.3915,0.,1.\C,0,-0.69575,-
 1.20507435,1.\C,0,0.69575,-1.20507435,1.\H,0,2.4715,0.,1.\H,0,1.23575,
 2.14038179,1.\H,0,-1.23575,2.14038179,1.\H,0,-2.4715,0.,1.\H,0,-1.2357
 5,-2.14038179,1.\H,0,1.23575,-2.14038179,1.\P,0,0.,0.,4.7\H,0,0.,0.,3.
 28895\H,0,-1.19800816,0.59336739,5.15139084\H,0,-0.64201064,-1.1867347

 Normal termination of Gaussian 16 at Wed Apr  9 02:14:44 2025.
