 Gaussian 16, Revision C.01,

 ----------------------------------------------------------------------
 #t hf aug-cc-pvdz symm=none int=(grid=ultrafine) guess=(read,tcheck) s
 table=(opt,rrhf)
 ----------------------------------------------------------------------
 -----
 title
 -----
 Symbolic Z-matrix:
 Charge =  0 Multiplicity = 1

 SCF Done:  E(RHF) =  -573.178037969     A.U. after   13 cycles
 Normal termination of Gaussian 16 at Wed Apr  9 02:14:33 2025.
 Gaussian 16:  ES64L-G16RevC.01  3-Jul-2019

 ----------------------------------------------------------------------
 #t hf aug-cc-pvdz iop(5/13=1,5/36=2,99/5=2) pseudo=read geom=check gue
 ss=(read,tcheck) scf=(maxcycle=1)
 ----------------------------------------------------------------------
 -----
 title
 -----
 Structure from the checkpoint file:  "BzDC215_138_mol1.chk"
 Charge =  0 Multiplicity = 1

                         Standard orientation:
 ---------------------------------------------------------------------
 Center     Atomic      Atomic             Coordinates (Angstroms)
 Number     Number       Type             X           Y           Z
 ---------------------------------------------------------------------
      1          6           0        1.231220    0.019321   -1.375499
      2          6           0        1.212157   -1.196487   -0.698950
      3          6           0        1.158406   -1.218292    0.691341
      4          6           0        1.123716   -0.024289    1.405081
      5          6           0        1.142779    1.191519    0.728532
      6          6           0        1.196531    1.213324   -0.661759
      7          1           0        1.272939    0.036245   -2.454561
      8          1           0        1.239081   -2.123201   -1.252913
      9          1           0        1.143610   -2.161930    1.216439
     10          1           0        1.081997   -0.041213    2.484143
     11          1           0        1.115855    2.118234    1.282495
     12          1           0        1.211326    2.156963   -1.186857
     13         15           0       -2.819462   -0.026011   -0.140109
     14          1           0       -1.409495   -0.017712   -0.085466
     15          1           0       -3.312937   -0.640724    1.030222
     16          1           0       -2.439302    1.152926    0.535649
 ---------------------------------------------------------------------

 SCF Done:  E(RHF) =  -573.466897464     A.U. after    2 cycles

 The electronic state is 1-A.
 Alpha  occ. eigenvalues --  -84.26036 -11.24662 -11.24625 -11.24611 -11.24547
 Alpha  occ. eigenvalues --  -11.24516 -11.24499  -6.73287  -4.25835  -4.25224
 Alpha  occ. eigenvalues --   -4.24923  -1.15845  -1.02142  -1.02133  -0.86501
 Alpha  occ. eigenvalues --   -0.83680  -0.83678  -0.72805  -0.65439  -0.64177
 Alpha  occ. eigenvalues --   -0.60498  -0.60489  -0.54033  -0.51053  -0.51003
 Alpha  occ. eigenvalues --   -0.50997  -0.44126  -0.35683  -0.35072  -0.34727
 Alpha virt. eigenvalues --    0.03363   0.03646   0.03724   0.04967   0.05179
 Alpha virt. eigenvalues --    0.05198   0.07805   0.08369   0.08933   0.09501
 Alpha virt. eigenvalues --    0.09985   0.10346   0.12112   0.12449   0.14078

 Mulliken charges:
               1
     1  C    0.185030
     2  C    0.274611
     3  C    0.197698
     4  C    0.360073
     5  C    0.115433
     6  C    0.335466
     7  H   -0.235956
     8  H   -0.231613
     9  H   -0.240074
    10  H   -0.239948
    11  H   -0.268501
    12  H   -0.238799
    13  P   -0.634191
    14  H    0.072160
    15  H    0.409298
    16  H    0.139314
 Sum of Mulliken charges =  -0.00000

 Dipole moment (field-independent basis, Debye):
    X=              0.5983    Y=             -0.3177    Z=              0.4044  Tot=              0.7889

 Test job not archived.
 1\1\GINC-SE341\SP\RHF\Aug-CC-pVDZ\C6H9P1\OHZDE\09-Apr-2025\0\\#t hf au
 g-cc-pvdz iop(5/13=1,5/36=2,99/5=2) pseudo=read geom=check guess=(read
 ,tcheck) scf=(maxcycle=1)\\title\\0,1\C,0,1.3915,0.,1.\C,0,0.69575,1.2
 0507435,1.\C,0,-0.69575,1.20507435,1.\C,0,-1.3915,0.,1.\C,0,-0.69575,-
 1.20507435,1.\C,0,0.69575,-1.20507435,1.\H,0,2.4715,0.,1.\H,0,1.23575,
 2.14038179,1.\H,0,-1.23575,2.14038179,1.\H,0,-2.4715,0.,1.\H,0,-1.2357
 5,-2.14038179,1.\H,0,1.23575,-2.14038179,1.\P,0,0.,0.,5.\H,0,0.,0.,3.5
 8895\H,0,-1.19800816,0.59336739,5.45139084\H,0,-0.64201064,-1.18673478

 Normal termination of Gaussian 16 at Wed Apr  9 02:14:39 2025.
