 Gaussian 16, Revision C.01,

 ----------------------------------------------------------------------
 #t hf aug-cc-pvdz symm=none int=(grid=ultrafine) guess=(read,tcheck) s
 table=(opt,rrhf)
 ----------------------------------------------------------------------
 -----
 title
 -----
 Symbolic Z-matrix:
 Charge =  0 Multiplicity = 1

 SCF Done:  E(RHF) =  -521.940545315     A.U. after   13 cycles
 Normal termination of Gaussian 16 at Wed Apr  9 02:15:08 2025.
 Gaussian 16:  ES64L-G16RevC.01  3-Jul-2019

 ----------------------------------------------------------------------
 #t hf aug-cc-pvdz iop(5/13=1,5/36=2,99/5=2) pseudo=read geom=check gue
 ss=(read,tcheck) scf=(maxcycle=1)
 ----------------------------------------------------------------------
 -----
 title
 -----
 Structure from the checkpoint file:  "BzDC215_153_mol1.chk"
 Charge =  0 Multiplicity = 1

                         Standard orientation:
 ---------------------------------------------------------------------
 Center     Atomic      Atomic             Coordinates (Angstroms)
 Number     Number       Type             X           Y           Z
 ---------------------------------------------------------------------
      1          6           0       -1.091623   -1.397398    0.023868
      2          6           0       -1.116514   -0.717399   -1.189909
      3          6           0       -1.134922    0.673865   -1.207721
      4          6           0       -1.128440    1.385130   -0.011756
      5          6           0       -1.103549    0.705131    1.202020
      6          6           0       -1.085140   -0.686133    1.219833
      7          1           0       -1.077335   -2.477215    0.037692
      8          1           0       -1.121545   -1.269442   -2.118146
      9          1           0       -1.154241    1.201640   -2.149783
     10          1           0       -1.142727    2.464947   -0.025581
     11          1           0       -1.098518    1.257173    2.130258
     12          1           0       -1.065822   -1.213908    2.161894
     13         14           0        2.589331    0.042189   -0.042734
     14          1           0        1.116185    0.022946   -0.023305
     15          1           0        3.087254   -1.163229   -0.728261
     16          1           0        3.062003    1.437503   -0.066993
     17          1           0        3.105229   -0.630239    1.162503
 ---------------------------------------------------------------------

 SCF Done:  E(RHF) =  -522.219094313     A.U. after    2 cycles

 The electronic state is 1-A.
 Alpha  occ. eigenvalues --  -69.51294 -11.24497 -11.24465 -11.24459 -11.24382
 Alpha  occ. eigenvalues --  -11.24356 -11.24349  -6.18528  -3.93964  -3.93892
 Alpha  occ. eigenvalues --   -3.93889  -1.15758  -1.01975  -1.01972  -0.83531
 Alpha  occ. eigenvalues --   -0.83531  -0.74692  -0.72671  -0.65306  -0.64018
 Alpha  occ. eigenvalues --   -0.60349  -0.60346  -0.53751  -0.51221  -0.50856
 Alpha  occ. eigenvalues --   -0.50855  -0.45417  -0.42994  -0.34971  -0.34941
 Alpha virt. eigenvalues --    0.03392   0.03586   0.03671   0.04315   0.05218
 Alpha virt. eigenvalues --    0.05253   0.06853   0.07138   0.07378   0.07838
 Alpha virt. eigenvalues --    0.09454   0.09770   0.11344   0.11525   0.11622

 Mulliken charges:
               1
     1  C    0.213065
     2  C    0.271658
     3  C    0.226122
     4  C    0.233487
     5  C    0.249847
     6  C    0.270654
     7  H   -0.256238
     8  H   -0.260821
     9  H   -0.253640
    10  H   -0.261414
    11  H   -0.259485
    12  H   -0.261367
    13  Si   0.502068
    14  H    0.092137
    15  H   -0.129172
    16  H   -0.160628
    17  H   -0.216273
 Sum of Mulliken charges =  -0.00000

 Dipole moment (field-independent basis, Debye):
    X=             -0.5182    Y=              0.4940    Z=             -0.4623  Tot=              0.8522

 Test job not archived.
 1\1\GINC-SE292\SP\RHF\Aug-CC-pVDZ\C6H10Si1\OHZDE\09-Apr-2025\0\\#t hf
 aug-cc-pvdz iop(5/13=1,5/36=2,99/5=2) pseudo=read geom=check guess=(re
 ad,tcheck) scf=(maxcycle=1)\\title\\0,1\C,0,1.3915,0.,1.\C,0,0.69575,1
 .20507435,1.\C,0,-0.69575,1.20507435,1.\C,0,-1.3915,0.,1.\C,0,-0.69575
 ,-1.20507435,1.\C,0,0.69575,-1.20507435,1.\H,0,2.4715,0.,1.\H,0,1.2357
 5,2.14038179,1.\H,0,-1.23575,2.14038179,1.\H,0,-2.4715,0.,1.\H,0,-1.23
 575,-2.14038179,1.\H,0,1.23575,-2.14038179,1.\Si,0,0.,0.,4.7\H,0,0.,0.
 ,3.2266\H,0,1.20302606,0.69456742,5.19113333\H,0,-1.38913484,0.,5.1911

 Normal termination of Gaussian 16 at Wed Apr  9 02:15:15 2025.
