 Gaussian 16, Revision C.01,

 ----------------------------------------------------------------------
 #t hf aug-cc-pvdz symm=none int=(grid=ultrafine) guess=(read,tcheck) s
 table=(opt,rrhf)
 ----------------------------------------------------------------------
 -----
 title
 -----
 Symbolic Z-matrix:
 Charge =  0 Multiplicity = 1

 SCF Done:  E(RHF) =  -690.823052526     A.U. after   11 cycles

 1\1\GINC-SE364\Stability\RHF\Aug-CC-pVDZ\C6H7Cl1\OHZDE\09-Apr-2025\0\\
 #t hf aug-cc-pvdz symm=none int=(grid=ultrafine) guess=(read,tcheck) s
 table=(opt,rrhf)\\title\\0,1\C,0,1.3915,0.,1.\C,0,0.69575,1.20507435,1
 .\C,0,-0.69575,1.20507435,1.\C,0,-1.3915,0.,1.\C,0,-0.69575,-1.2050743
 5,1.\C,0,0.69575,-1.20507435,1.\H,0,2.4715,0.,1.\H,0,1.23575,2.1403817
 9,1.\H,0,-1.23575,2.14038179,1.\H,0,-2.4715,0.,1.\H,0,-1.23575,-2.1403
 8179,1.\H,0,1.23575,-2.14038179,1.\Cl,0,0.,0.,6.\H,0,0.,0.,4.7253\\Ver
 sion=ES64L-G16RevC.01\HF=-690.8230525\RMSD=8.904e-09\Dipole=0.,0.,-0.6

 Normal termination of Gaussian 16 at Wed Apr  9 02:12:51 2025.
 Gaussian 16:  ES64L-G16RevC.01  3-Jul-2019

 ----------------------------------------------------------------------
 #t hf aug-cc-pvdz iop(5/13=1,5/36=2,99/5=2) pseudo=read geom=check gue
 ss=(read,tcheck) scf=(maxcycle=1)
 ----------------------------------------------------------------------
 -----
 title
 -----
 Structure from the checkpoint file:  "BzDC215_104_mol1.chk"
 Charge =  0 Multiplicity = 1

                         Standard orientation:
 ---------------------------------------------------------------------
 Center     Atomic      Atomic             Coordinates (Angstroms)
 Number     Number       Type             X           Y           Z
 ---------------------------------------------------------------------
      1          6           0        0.000000    1.391500   -1.478755
      2          6           0       -1.205074    0.695750   -1.478755
      3          6           0       -1.205074   -0.695750   -1.478755
      4          6           0       -0.000000   -1.391500   -1.478755
      5          6           0        1.205074   -0.695750   -1.478755
      6          6           0        1.205074    0.695750   -1.478755
      7          1           0        0.000000    2.471500   -1.478755
      8          1           0       -2.140382    1.235750   -1.478755
      9          1           0       -2.140382   -1.235750   -1.478755
     10          1           0       -0.000000   -2.471500   -1.478755
     11          1           0        2.140382   -1.235750   -1.478755
     12          1           0        2.140382    1.235750   -1.478755
     13         17           0        0.000000    0.000000    3.521245
     14          1           0        0.000000    0.000000    2.246545
 ---------------------------------------------------------------------

 SCF Done:  E(RHF) =  -691.142980629     A.U. after    2 cycles

 The electronic state is 1-A1.
 Alpha  occ. eigenvalues -- -105.57611 -11.24953 -11.24923 -11.24923 -11.24835
 Alpha  occ. eigenvalues --  -11.24818 -11.24818 -10.62389  -7.79384  -7.78975
 Alpha  occ. eigenvalues --   -7.78975  -1.16159  -1.06819  -1.02441  -1.02441
 Alpha  occ. eigenvalues --   -0.83985  -0.83985  -0.73107  -0.65731  -0.64494
 Alpha  occ. eigenvalues --   -0.62578  -0.60796  -0.60796  -0.51956  -0.51303
 Alpha  occ. eigenvalues --   -0.51303  -0.47902  -0.47902  -0.35362  -0.35362
 Alpha virt. eigenvalues --    0.03363   0.03562   0.03562   0.05109   0.05109
 Alpha virt. eigenvalues --    0.05750   0.07735   0.09789   0.09789   0.12217
 Alpha virt. eigenvalues --    0.12694   0.12694   0.13447   0.14214   0.14214

 Mulliken charges:
               1
     1  C    0.228141
     2  C    0.228141
     3  C    0.228141
     4  C    0.228141
     5  C    0.228141
     6  C    0.228141
     7  H   -0.227400
     8  H   -0.227400
     9  H   -0.227400
    10  H   -0.227400
    11  H   -0.227400
    12  H   -0.227400
    13  Cl  -0.154128
    14  H    0.149683
 Sum of Mulliken charges =  -0.00000

 Dipole moment (field-independent basis, Debye):
    X=             -0.0000    Y=              0.0000    Z=             -1.5488  Tot=              1.5488

 Test job not archived.
 1\1\GINC-SE364\SP\RHF\Aug-CC-pVDZ\C6H7Cl1\OHZDE\09-Apr-2025\0\\#t hf a
 ug-cc-pvdz iop(5/13=1,5/36=2,99/5=2) pseudo=read geom=check guess=(rea
 d,tcheck) scf=(maxcycle=1)\\title\\0,1\C,0,1.3915,0.,1.\C,0,0.69575,1.
 20507435,1.\C,0,-0.69575,1.20507435,1.\C,0,-1.3915,0.,1.\C,0,-0.69575,
 -1.20507435,1.\C,0,0.69575,-1.20507435,1.\H,0,2.4715,0.,1.\H,0,1.23575
 ,2.14038179,1.\H,0,-1.23575,2.14038179,1.\H,0,-2.4715,0.,1.\H,0,-1.235
 75,-2.14038179,1.\H,0,1.23575,-2.14038179,1.\Cl,0,0.,0.,6.\H,0,0.,0.,4
 .7253\\Version=ES64L-G16RevC.01\State=1-A1\HF=-691.1429806\RMSD=4.912e

 Normal termination of Gaussian 16 at Wed Apr  9 02:12:54 2025.
