 Gaussian 16, Revision C.01,

 ----------------------------------------------------------------------
 #t hf aug-cc-pvdz symm=none int=(grid=ultrafine) guess=(read,tcheck) s
 table=(opt,rrhf)
 ----------------------------------------------------------------------
 -----
 title
 -----
 Symbolic Z-matrix:
 Charge =  0 Multiplicity = 1

 SCF Done:  E(RHF) =  -521.937636306     A.U. after   13 cycles
 Normal termination of Gaussian 16 at Wed Apr  9 02:15:11 2025.
 Gaussian 16:  ES64L-G16RevC.01  3-Jul-2019

 ----------------------------------------------------------------------
 #t hf aug-cc-pvdz iop(5/13=1,5/36=2,99/5=2) pseudo=read geom=check gue
 ss=(read,tcheck) scf=(maxcycle=1)
 ----------------------------------------------------------------------
 -----
 title
 -----
 Structure from the checkpoint file:  "BzDC215_152_mol1.chk"
 Charge =  0 Multiplicity = 1

                         Standard orientation:
 ---------------------------------------------------------------------
 Center     Atomic      Atomic             Coordinates (Angstroms)
 Number     Number       Type             X           Y           Z
 ---------------------------------------------------------------------
      1          6           0       -1.060522   -1.397823    0.024804
      2          6           0       -1.086873   -0.718295   -1.189205
      3          6           0       -1.106378    0.672948   -1.207519
      4          6           0       -1.099532    1.384662   -0.011823
      5          6           0       -1.073181    0.705134    1.202187
      6          6           0       -1.053676   -0.686109    1.220500
      7          1           0       -1.045383   -2.477624    0.039018
      8          1           0       -1.092186   -1.270685   -2.117233
      9          1           0       -1.126830    1.200358   -2.149761
     10          1           0       -1.114670    2.464463   -0.026037
     11          1           0       -1.067868    1.257524    2.130215
     12          1           0       -1.033224   -1.213519    2.162743
     13         14           0        2.519278    0.043220   -0.043760
     14          1           0        1.046162    0.022838   -0.023193
     15          1           0        3.017613   -1.162065   -0.729221
     16          1           0        2.990845    1.438892   -0.068898
     17          1           0        3.036622   -0.628360    1.161331
 ---------------------------------------------------------------------

 SCF Done:  E(RHF) =  -522.216237349     A.U. after    2 cycles

 The electronic state is 1-A.
 Alpha  occ. eigenvalues --  -69.51104 -11.24542 -11.24510 -11.24504 -11.24426
 Alpha  occ. eigenvalues --  -11.24401 -11.24393  -6.18347  -3.93782  -3.93709
 Alpha  occ. eigenvalues --   -3.93706  -1.15849  -1.02029  -1.02027  -0.83580
 Alpha  occ. eigenvalues --   -0.83579  -0.74624  -0.72720  -0.65349  -0.64065
 Alpha  occ. eigenvalues --   -0.60399  -0.60397  -0.54184  -0.51118  -0.50901
 Alpha  occ. eigenvalues --   -0.50900  -0.44853  -0.42881  -0.35052  -0.35012
 Alpha virt. eigenvalues --    0.03387   0.03579   0.03665   0.04334   0.05215
 Alpha virt. eigenvalues --    0.05248   0.06874   0.07170   0.07412   0.07832
 Alpha virt. eigenvalues --    0.09432   0.09728   0.11346   0.11467   0.11707

 Mulliken charges:
               1
     1  C    0.210532
     2  C    0.267580
     3  C    0.228954
     4  C    0.231523
     5  C    0.248751
     6  C    0.267369
     7  H   -0.256824
     8  H   -0.261732
     9  H   -0.255110
    10  H   -0.262820
    11  H   -0.260412
    12  H   -0.262669
    13  Si   0.503429
    14  H    0.113222
    15  H   -0.131273
    16  H   -0.161677
    17  H   -0.218840
 Sum of Mulliken charges =  -0.00000

 Dipole moment (field-independent basis, Debye):
    X=             -0.5813    Y=              0.4907    Z=             -0.4594  Tot=              0.8887

 Test job not archived.
 1\1\GINC-SE127\SP\RHF\Aug-CC-pVDZ\C6H10Si1\OHZDE\09-Apr-2025\0\\#t hf
 aug-cc-pvdz iop(5/13=1,5/36=2,99/5=2) pseudo=read geom=check guess=(re
 ad,tcheck) scf=(maxcycle=1)\\title\\0,1\C,0,1.3915,0.,1.\C,0,0.69575,1
 .20507435,1.\C,0,-0.69575,1.20507435,1.\C,0,-1.3915,0.,1.\C,0,-0.69575
 ,-1.20507435,1.\C,0,0.69575,-1.20507435,1.\H,0,2.4715,0.,1.\H,0,1.2357
 5,2.14038179,1.\H,0,-1.23575,2.14038179,1.\H,0,-2.4715,0.,1.\H,0,-1.23
 575,-2.14038179,1.\H,0,1.23575,-2.14038179,1.\Si,0,0.,0.,4.6\H,0,0.,0.
 ,3.1266\H,0,1.20302606,0.69456742,5.09113333\H,0,-1.38913484,0.,5.0911

 Normal termination of Gaussian 16 at Wed Apr  9 02:15:18 2025.
