 Gaussian 16, Revision C.01,

 ----------------------------------------------------------------------
 #t hf aug-cc-pvdz symm=none int=(grid=ultrafine) guess=(read,tcheck) s
 table=(opt,rrhf)
 ----------------------------------------------------------------------
 -----
 title
 -----
 Symbolic Z-matrix:
 Charge =  0 Multiplicity = 1

 SCF Done:  E(RHF) =  -573.164664370     A.U. after   14 cycles
 Normal termination of Gaussian 16 at Wed Apr  9 02:14:08 2025.
 Gaussian 16:  ES64L-G16RevC.01  3-Jul-2019

 ----------------------------------------------------------------------
 #t hf aug-cc-pvdz iop(5/13=1,5/36=2,99/5=2) pseudo=read geom=check gue
 ss=(read,tcheck) scf=(maxcycle=1)
 ----------------------------------------------------------------------
 -----
 title
 -----
 Structure from the checkpoint file:  "BzDC215_132_mol1.chk"
 Charge =  0 Multiplicity = 1

                         Standard orientation:
 ---------------------------------------------------------------------
 Center     Atomic      Atomic             Coordinates (Angstroms)
 Number     Number       Type             X           Y           Z
 ---------------------------------------------------------------------
      1          6           0        1.072604    0.019675   -1.366032
      2          6           0        1.044271   -1.196339   -0.690176
      3          6           0        0.969036   -1.218581    0.699110
      4          6           0        0.922134   -0.024811    1.412541
      5          6           0        0.950466    1.191203    0.736686
      6          6           0        1.025702    1.213445   -0.652601
      7          1           0        1.130998    0.036938   -2.444314
      8          1           0        1.080674   -2.122873   -1.243899
      9          1           0        0.947046   -2.162379    1.223669
     10          1           0        0.863740   -0.042074    2.490823
     11          1           0        0.914064    2.117737    1.290408
     12          1           0        1.047692    2.157243   -1.177160
     13         15           0       -2.397557   -0.025856   -0.160967
     14          1           0       -0.988613   -0.016191   -0.084512
     15          1           0       -2.908476   -0.641375    1.001427
     16          1           0       -2.029058    1.153265    0.520900
 ---------------------------------------------------------------------

 SCF Done:  E(RHF) =  -573.454331247     A.U. after    2 cycles

 The electronic state is 1-A.
 Alpha  occ. eigenvalues --  -84.24964 -11.24935 -11.24882 -11.24847 -11.24814
 Alpha  occ. eigenvalues --  -11.24762 -11.24696  -6.72256  -4.24852  -4.24252
 Alpha  occ. eigenvalues --   -4.23956  -1.16342  -1.02468  -1.02450  -0.85914
 Alpha  occ. eigenvalues --   -0.83956  -0.83952  -0.73128  -0.65674  -0.64434
 Alpha  occ. eigenvalues --   -0.60786  -0.60767  -0.55748  -0.51254  -0.51244
 Alpha  occ. eigenvalues --   -0.49751  -0.43007  -0.36185  -0.35286  -0.33674
 Alpha virt. eigenvalues --    0.03335   0.03612   0.03692   0.05122   0.05160
 Alpha virt. eigenvalues --    0.05178   0.07775   0.08504   0.08775   0.09320
 Alpha virt. eigenvalues --    0.09661   0.10547   0.11838   0.13115   0.13997

 Mulliken charges:
               1
     1  C    0.181719
     2  C    0.317292
     3  C    0.206249
     4  C    0.368624
     5  C    0.075804
     6  C    0.335605
     7  H   -0.239457
     8  H   -0.243077
     9  H   -0.247195
    10  H   -0.250736
    11  H   -0.263521
    12  H   -0.243814
    13  P   -0.825077
    14  H    0.226803
    15  H    0.419500
    16  H    0.181281
 Sum of Mulliken charges =  -0.00000

 Dipole moment (field-independent basis, Debye):
    X=              0.9162    Y=             -0.3511    Z=              0.4286  Tot=              1.0707

 Test job not archived.
 1\1\GINC-SE253\SP\RHF\Aug-CC-pVDZ\C6H9P1\OHZDE\09-Apr-2025\0\\#t hf au
 g-cc-pvdz iop(5/13=1,5/36=2,99/5=2) pseudo=read geom=check guess=(read
 ,tcheck) scf=(maxcycle=1)\\title\\0,1\C,0,1.3915,0.,1.\C,0,0.69575,1.2
 0507435,1.\C,0,-0.69575,1.20507435,1.\C,0,-1.3915,0.,1.\C,0,-0.69575,-
 1.20507435,1.\C,0,0.69575,-1.20507435,1.\H,0,2.4715,0.,1.\H,0,1.23575,
 2.14038179,1.\H,0,-1.23575,2.14038179,1.\H,0,-2.4715,0.,1.\H,0,-1.2357
 5,-2.14038179,1.\H,0,1.23575,-2.14038179,1.\P,0,0.,0.,4.4\H,0,0.,0.,2.
 98895\H,0,-1.19800816,0.59336739,4.85139084\H,0,-0.64201064,-1.1867347

 Normal termination of Gaussian 16 at Wed Apr  9 02:14:15 2025.
