 Gaussian 16, Revision C.01,

 ----------------------------------------------------------------------
 #t hf aug-cc-pvdz symm=none int=(grid=ultrafine) guess=(read,tcheck) s
 table=(opt,rrhf)
 ----------------------------------------------------------------------
 -----
 title
 -----
 Symbolic Z-matrix:
 Charge =  0 Multiplicity = 1

 SCF Done:  E(RHF) =  -690.824325076     A.U. after   11 cycles

 1\1\GINC-SE143\Stability\RHF\Aug-CC-pVDZ\C6H7Cl1\OHZDE\09-Apr-2025\0\\
 #t hf aug-cc-pvdz symm=none int=(grid=ultrafine) guess=(read,tcheck) s
 table=(opt,rrhf)\\title\\0,1\C,0,1.3915,0.,1.\C,0,0.69575,1.20507435,1
 .\C,0,-0.69575,1.20507435,1.\C,0,-1.3915,0.,1.\C,0,-0.69575,-1.2050743
 5,1.\C,0,0.69575,-1.20507435,1.\H,0,2.4715,0.,1.\H,0,1.23575,2.1403817
 9,1.\H,0,-1.23575,2.14038179,1.\H,0,-2.4715,0.,1.\H,0,-1.23575,-2.1403
 8179,1.\H,0,1.23575,-2.14038179,1.\Cl,0,0.,0.,5.\H,0,0.,0.,3.7253\\Ver
 sion=ES64L-G16RevC.01\HF=-690.8243251\RMSD=8.930e-09\Dipole=0.,0.,-0.7

 Normal termination of Gaussian 16 at Wed Apr  9 02:12:53 2025.
 Gaussian 16:  ES64L-G16RevC.01  3-Jul-2019

 ----------------------------------------------------------------------
 #t hf aug-cc-pvdz iop(5/13=1,5/36=2,99/5=2) pseudo=read geom=check gue
 ss=(read,tcheck) scf=(maxcycle=1)
 ----------------------------------------------------------------------
 -----
 title
 -----
 Structure from the checkpoint file:  "BzDC215_100_mol1.chk"
 Charge =  0 Multiplicity = 1

                         Standard orientation:
 ---------------------------------------------------------------------
 Center     Atomic      Atomic             Coordinates (Angstroms)
 Number     Number       Type             X           Y           Z
 ---------------------------------------------------------------------
      1          6           0        0.000000    1.391500   -1.178755
      2          6           0       -1.205074    0.695750   -1.178755
      3          6           0       -1.205074   -0.695750   -1.178755
      4          6           0       -0.000000   -1.391500   -1.178755
      5          6           0        1.205074   -0.695750   -1.178755
      6          6           0        1.205074    0.695750   -1.178755
      7          1           0        0.000000    2.471500   -1.178755
      8          1           0       -2.140382    1.235750   -1.178755
      9          1           0       -2.140382   -1.235750   -1.178755
     10          1           0       -0.000000   -2.471500   -1.178755
     11          1           0        2.140382   -1.235750   -1.178755
     12          1           0        2.140382    1.235750   -1.178755
     13         17           0        0.000000    0.000000    2.821245
     14          1           0        0.000000    0.000000    1.546545
 ---------------------------------------------------------------------

 SCF Done:  E(RHF) =  -691.143964495     A.U. after    2 cycles

 The electronic state is 1-A1.
 Alpha  occ. eigenvalues -- -105.56815 -11.25306 -11.25277 -11.25277 -11.25188
 Alpha  occ. eigenvalues --  -11.25172 -11.25172 -10.61600  -7.78596  -7.78196
 Alpha  occ. eigenvalues --   -7.78196  -1.16572  -1.06095  -1.02810  -1.02810
 Alpha  occ. eigenvalues --   -0.84311  -0.84311  -0.73441  -0.66014  -0.64831
 Alpha  occ. eigenvalues --   -0.61983  -0.61119  -0.61119  -0.52307  -0.51608
 Alpha  occ. eigenvalues --   -0.51608  -0.47216  -0.47216  -0.35786  -0.35786
 Alpha virt. eigenvalues --    0.03407   0.03570   0.03570   0.05110   0.05110
 Alpha virt. eigenvalues --    0.06582   0.07745   0.09507   0.09507   0.12378
 Alpha virt. eigenvalues --    0.13038   0.13038   0.14239   0.14402   0.14402

 Mulliken charges:
               1
     1  C    0.214980
     2  C    0.214980
     3  C    0.214980
     4  C    0.214980
     5  C    0.214980
     6  C    0.214980
     7  H   -0.224628
     8  H   -0.224628
     9  H   -0.224628
    10  H   -0.224628
    11  H   -0.224628
    12  H   -0.224628
    13  Cl  -0.162892
    14  H    0.220777
 Sum of Mulliken charges =  -0.00000

 Dipole moment (field-independent basis, Debye):
    X=             -0.0000    Y=              0.0000    Z=             -1.7943  Tot=              1.7943

 Test job not archived.
 1\1\GINC-SE143\SP\RHF\Aug-CC-pVDZ\C6H7Cl1\OHZDE\09-Apr-2025\0\\#t hf a
 ug-cc-pvdz iop(5/13=1,5/36=2,99/5=2) pseudo=read geom=check guess=(rea
 d,tcheck) scf=(maxcycle=1)\\title\\0,1\C,0,1.3915,0.,1.\C,0,0.69575,1.
 20507435,1.\C,0,-0.69575,1.20507435,1.\C,0,-1.3915,0.,1.\C,0,-0.69575,
 -1.20507435,1.\C,0,0.69575,-1.20507435,1.\H,0,2.4715,0.,1.\H,0,1.23575
 ,2.14038179,1.\H,0,-1.23575,2.14038179,1.\H,0,-2.4715,0.,1.\H,0,-1.235
 75,-2.14038179,1.\H,0,1.23575,-2.14038179,1.\Cl,0,0.,0.,5.\H,0,0.,0.,3
 .7253\\Version=ES64L-G16RevC.01\State=1-A1\HF=-691.1439645\RMSD=4.923e

 Normal termination of Gaussian 16 at Wed Apr  9 02:12:57 2025.
