 Gaussian 16, Revision C.01,

 ----------------------------------------------------------------------
 #t hf aug-cc-pvdz symm=none int=(grid=ultrafine) guess=(read,tcheck) s
 table=(opt,rrhf)
 ----------------------------------------------------------------------
 -----
 title
 -----
 Symbolic Z-matrix:
 Charge =  0 Multiplicity = 1

 SCF Done:  E(RHF) =  -690.817403102     A.U. after   11 cycles

 1\1\GINC-SE108\Stability\RHF\Aug-CC-pVDZ\C6H7Cl1\OHZDE\09-Apr-2025\0\\
 #t hf aug-cc-pvdz symm=none int=(grid=ultrafine) guess=(read,tcheck) s
 table=(opt,rrhf)\\title\\0,1\C,0,1.3915,0.,1.\C,0,0.69575,1.20507435,1
 .\C,0,-0.69575,1.20507435,1.\C,0,-1.3915,0.,1.\C,0,-0.69575,-1.2050743
 5,1.\C,0,0.69575,-1.20507435,1.\H,0,2.4715,0.,1.\H,0,1.23575,2.1403817
 9,1.\H,0,-1.23575,2.14038179,1.\H,0,-2.4715,0.,1.\H,0,-1.23575,-2.1403
 8179,1.\H,0,1.23575,-2.14038179,1.\Cl,0,0.,0.,4.3\H,0,0.,0.,3.0253\\Ve
 rsion=ES64L-G16RevC.01\HF=-690.8174031\RMSD=6.954e-09\Dipole=0.,0.,-0.

 Normal termination of Gaussian 16 at Wed Apr  9 02:16:25 2025.
 Gaussian 16:  ES64L-G16RevC.01  3-Jul-2019

 ----------------------------------------------------------------------
 #t hf aug-cc-pvdz iop(5/13=1,5/36=2,99/5=2) pseudo=read geom=check gue
 ss=(read,tcheck) scf=(maxcycle=1)
 ----------------------------------------------------------------------
 -----
 title
 -----
 Structure from the checkpoint file:  "BzDC215_91_mol1.chk"
 Charge =  0 Multiplicity = 1

                         Standard orientation:
 ---------------------------------------------------------------------
 Center     Atomic      Atomic             Coordinates (Angstroms)
 Number     Number       Type             X           Y           Z
 ---------------------------------------------------------------------
      1          6           0        0.000000    1.391500   -0.968755
      2          6           0       -1.205074    0.695750   -0.968755
      3          6           0       -1.205074   -0.695750   -0.968755
      4          6           0       -0.000000   -1.391500   -0.968755
      5          6           0        1.205074   -0.695750   -0.968755
      6          6           0        1.205074    0.695750   -0.968755
      7          1           0        0.000000    2.471500   -0.968755
      8          1           0       -2.140382    1.235750   -0.968755
      9          1           0       -2.140382   -1.235750   -0.968755
     10          1           0       -0.000000   -2.471500   -0.968755
     11          1           0        2.140382   -1.235750   -0.968755
     12          1           0        2.140382    1.235750   -0.968755
     13         17           0        0.000000    0.000000    2.331245
     14          1           0        0.000000    0.000000    1.056545
 ---------------------------------------------------------------------

 SCF Done:  E(RHF) =  -691.137604953     A.U. after    2 cycles

 The electronic state is 1-A1.
 Alpha  occ. eigenvalues -- -105.55391 -11.25628 -11.25600 -11.25600 -11.25509
 Alpha  occ. eigenvalues --  -11.25493 -11.25493 -10.60239  -7.77233  -7.76847
 Alpha  occ. eigenvalues --   -7.76847  -1.17196  -1.05052  -1.03214  -1.03214
 Alpha  occ. eigenvalues --   -0.84631  -0.84631  -0.73846  -0.66264  -0.65144
 Alpha  occ. eigenvalues --   -0.62093  -0.61464  -0.61464  -0.51897  -0.51897
 Alpha  occ. eigenvalues --   -0.51681  -0.46354  -0.46354  -0.36148  -0.36148
 Alpha virt. eigenvalues --    0.03410   0.03557   0.03557   0.05103   0.05103
 Alpha virt. eigenvalues --    0.07156   0.07748   0.09233   0.09233   0.11502
 Alpha virt. eigenvalues --    0.13115   0.13115   0.14542   0.14691   0.14849

 Mulliken charges:
               1
     1  C    0.199381
     2  C    0.199381
     3  C    0.199381
     4  C    0.199381
     5  C    0.199381
     6  C    0.199381
     7  H   -0.230962
     8  H   -0.230962
     9  H   -0.230962
    10  H   -0.230962
    11  H   -0.230962
    12  H   -0.230962
    13  Cl  -0.209674
    14  H    0.399163
 Sum of Mulliken charges =  -0.00000

 Dipole moment (field-independent basis, Debye):
    X=              0.0000    Y=              0.0000    Z=             -2.0625  Tot=              2.0625

 Test job not archived.
 1\1\GINC-SE108\SP\RHF\Aug-CC-pVDZ\C6H7Cl1\OHZDE\09-Apr-2025\0\\#t hf a
 ug-cc-pvdz iop(5/13=1,5/36=2,99/5=2) pseudo=read geom=check guess=(rea
 d,tcheck) scf=(maxcycle=1)\\title\\0,1\C,0,1.3915,0.,1.\C,0,0.69575,1.
 20507435,1.\C,0,-0.69575,1.20507435,1.\C,0,-1.3915,0.,1.\C,0,-0.69575,
 -1.20507435,1.\C,0,0.69575,-1.20507435,1.\H,0,2.4715,0.,1.\H,0,1.23575
 ,2.14038179,1.\H,0,-1.23575,2.14038179,1.\H,0,-2.4715,0.,1.\H,0,-1.235
 75,-2.14038179,1.\H,0,1.23575,-2.14038179,1.\Cl,0,0.,0.,4.3\H,0,0.,0.,
 3.0253\\Version=ES64L-G16RevC.01\State=1-A1\HF=-691.137605\RMSD=4.943e

 Normal termination of Gaussian 16 at Wed Apr  9 02:16:29 2025.
