 Gaussian 16, Revision C.01,

 ----------------------------------------------------------------------
 #t hf aug-cc-pvdz symm=none int=(grid=ultrafine) guess=(read,tcheck) s
 table=(opt,rrhf)
 ----------------------------------------------------------------------
 -----
 title
 -----
 Symbolic Z-matrix:
 Charge =  0 Multiplicity = 1

 SCF Done:  E(RHF) =  -291.220158913     A.U. after    9 cycles
 Normal termination of Gaussian 16 at Wed Apr  9 02:14:28 2025.
 Gaussian 16:  ES64L-G16RevC.01  3-Jul-2019

 ----------------------------------------------------------------------
 #t hf aug-cc-pvdz iop(5/13=1,5/36=2,99/5=2) pseudo=read geom=check gue
 ss=(read,tcheck) scf=(maxcycle=1)
 ----------------------------------------------------------------------
 -----
 title
 -----
 Structure from the checkpoint file:  "BzDC215_152_mol3.chk"
 Charge =  0 Multiplicity = 1

                         Standard orientation:
 ---------------------------------------------------------------------
 Center     Atomic      Atomic             Coordinates (Angstroms)
 Number     Number       Type             X           Y           Z
 ---------------------------------------------------------------------
      1         14           0        0.028050    0.000000   -0.028444
      2          1           0        0.388653    1.383627    0.327153
      3          1           0       -1.241790    0.000000   -0.775715
      4          1           0        1.254335   -0.798837   -0.198708
      5          1           0       -0.793892   -0.584790    1.045493
 ---------------------------------------------------------------------

 SCF Done:  E(RHF) =  -291.257920595     A.U. after    2 cycles

 The electronic state is 1-A.
 Alpha  occ. eigenvalues --  -69.53103  -6.20310  -3.95739  -3.95694  -3.95660
 Alpha  occ. eigenvalues --   -0.75973  -0.52637  -0.49592  -0.44300
 Alpha virt. eigenvalues --    0.03742   0.05414   0.05693   0.05836   0.08924
 Alpha virt. eigenvalues --    0.09252   0.09334   0.15136   0.15724   0.18554
 Alpha virt. eigenvalues --    0.19357   0.20257   0.20712   0.31018   0.34541

 Mulliken charges:
               1
     1  Si   0.750196
     2  H   -0.226357
     3  H   -0.135453
     4  H   -0.171066
     5  H   -0.217319
 Sum of Mulliken charges =   0.00000

 Dipole moment (field-independent basis, Debye):
    X=              0.5424    Y=             -0.0324    Z=             -0.5140  Tot=              0.7479

 Test job not archived.
 1\1\GINC-SE334\SP\RHF\Aug-CC-pVDZ\H4Si1\OHZDE\09-Apr-2025\0\\#t hf aug
 -cc-pvdz iop(5/13=1,5/36=2,99/5=2) pseudo=read geom=check guess=(read,
 tcheck) scf=(maxcycle=1)\\title\\0,1\Si,0,0.,0.,5.2\H,0,0.,0.,3.7266\H
 ,0,1.20302606,0.69456742,5.69113333\H,0,-1.38913484,0.,5.69113333\H,0,
 0.69456742,-1.20302606,5.69113333\\Version=ES64L-G16RevC.01\State=1-A\
 HF=-291.2579206\RMSD=4.726e-03\Dipole=-0.2174687,0.1980564,0.0085481\Q
 uadrupole=0.2212378,-0.2887816,0.0675438,-0.0419303,-0.0873626,0.10082
 98\PG=C01 [X(H4Si1)]\\@

 Normal termination of Gaussian 16 at Wed Apr  9 02:14:30 2025.
