 Gaussian 16, Revision C.01,

 ----------------------------------------------------------------------
 #t hf aug-cc-pvdz symm=none int=(grid=ultrafine) guess=(read,tcheck) s
 table=(opt,rrhf)
 ----------------------------------------------------------------------
 -----
 title
 -----
 Symbolic Z-matrix:
 Charge =  0 Multiplicity = 1

 SCF Done:  E(RHF) =  -573.179837561     A.U. after   13 cycles
 Normal termination of Gaussian 16 at Wed Apr  9 02:14:32 2025.
 Gaussian 16:  ES64L-G16RevC.01  3-Jul-2019

 ----------------------------------------------------------------------
 #t hf aug-cc-pvdz iop(5/13=1,5/36=2,99/5=2) pseudo=read geom=check gue
 ss=(read,tcheck) scf=(maxcycle=1)
 ----------------------------------------------------------------------
 -----
 title
 -----
 Structure from the checkpoint file:  "BzDC215_147_mol1.chk"
 Charge =  0 Multiplicity = 1

                         Standard orientation:
 ---------------------------------------------------------------------
 Center     Atomic      Atomic             Coordinates (Angstroms)
 Number     Number       Type             X           Y           Z
 ---------------------------------------------------------------------
      1          6           0        1.587023    0.028086   -1.382864
      2          6           0        1.575808   -1.191848   -0.713604
      3          6           0        1.541221   -1.222163    0.677136
      4          6           0        1.517848   -0.032545    1.398616
      5          6           0        1.529063    1.187389    0.729357
      6          6           0        1.563650    1.217705   -0.661383
      7          1           0        1.613867    0.051615   -2.462273
      8          1           0        1.593949   -2.115159   -1.273575
      9          1           0        1.532517   -2.169003    1.196575
     10          1           0        1.491004   -0.056074    2.478026
     11          1           0        1.510922    2.110701    1.289327
     12          1           0        1.572354    2.164545   -1.180823
     13         15           0       -3.695875   -0.025872   -0.123163
     14          1           0       -2.285279   -0.019517   -0.087943
     15          1           0       -4.173906   -0.647225    1.050068
     16          1           0       -3.304982    1.148442    0.554518
 ---------------------------------------------------------------------

 SCF Done:  E(RHF) =  -573.469275032     A.U. after    2 cycles

 The electronic state is 1-A.
 Alpha  occ. eigenvalues --  -84.26832 -11.24433 -11.24402 -11.24400 -11.24316
 Alpha  occ. eigenvalues --  -11.24297 -11.24295  -6.74078  -4.26587  -4.25945
 Alpha  occ. eigenvalues --   -4.25656  -1.15600  -1.01912  -1.01909  -0.87138
 Alpha  occ. eigenvalues --   -0.83475  -0.83475  -0.72598  -0.65252  -0.63974
 Alpha  occ. eigenvalues --   -0.60295  -0.60292  -0.53882  -0.51353  -0.50811
 Alpha  occ. eigenvalues --   -0.50809  -0.45015  -0.36049  -0.34800  -0.34791
 Alpha virt. eigenvalues --    0.03347   0.03657   0.03733   0.04671   0.05204
 Alpha virt. eigenvalues --    0.05230   0.07825   0.07949   0.09207   0.09457
 Alpha virt. eigenvalues --    0.10180   0.10255   0.11116   0.12350   0.13428

 Mulliken charges:
               1
     1  C    0.220769
     2  C    0.243260
     3  C    0.214025
     4  C    0.281169
     5  C    0.186590
     6  C    0.291428
     7  H   -0.231812
     8  H   -0.232072
     9  H   -0.232783
    10  H   -0.235697
    11  H   -0.237866
    12  H   -0.234496
    13  P   -0.606289
    14  H    0.071342
    15  H    0.383040
    16  H    0.119392
 Sum of Mulliken charges =  -0.00000

 Dipole moment (field-independent basis, Debye):
    X=              0.3115    Y=             -0.2801    Z=              0.3918  Tot=              0.5736

 Test job not archived.
 1\1\GINC-SE080\SP\RHF\Aug-CC-pVDZ\C6H9P1\OHZDE\09-Apr-2025\0\\#t hf au
 g-cc-pvdz iop(5/13=1,5/36=2,99/5=2) pseudo=read geom=check guess=(read
 ,tcheck) scf=(maxcycle=1)\\title\\0,1\C,0,1.3915,0.,1.\C,0,0.69575,1.2
 0507435,1.\C,0,-0.69575,1.20507435,1.\C,0,-1.3915,0.,1.\C,0,-0.69575,-
 1.20507435,1.\C,0,0.69575,-1.20507435,1.\H,0,2.4715,0.,1.\H,0,1.23575,
 2.14038179,1.\H,0,-1.23575,2.14038179,1.\H,0,-2.4715,0.,1.\H,0,-1.2357
 5,-2.14038179,1.\H,0,1.23575,-2.14038179,1.\P,0,0.,0.,6.25\H,0,0.,0.,4
 .83895\H,0,-1.19800816,0.59336739,6.70139084\H,0,-0.64201064,-1.186734

 Normal termination of Gaussian 16 at Wed Apr  9 02:14:38 2025.
