 Gaussian 16, Revision C.01,

 ----------------------------------------------------------------------
 #t hf aug-cc-pvdz symm=none int=(grid=ultrafine) guess=(read,tcheck) s
 table=(opt,rrhf)
 ----------------------------------------------------------------------
 -----
 title
 -----
 Symbolic Z-matrix:
 Charge =  0 Multiplicity = 1

 SCF Done:  E(RHF) =  -521.948162323     A.U. after   13 cycles
 Normal termination of Gaussian 16 at Wed Apr  9 02:15:32 2025.
 Gaussian 16:  ES64L-G16RevC.01  3-Jul-2019

 ----------------------------------------------------------------------
 #t hf aug-cc-pvdz iop(5/13=1,5/36=2,99/5=2) pseudo=read geom=check gue
 ss=(read,tcheck) scf=(maxcycle=1)
 ----------------------------------------------------------------------
 -----
 title
 -----
 Structure from the checkpoint file:  "BzDC215_163_mol1.chk"
 Charge =  0 Multiplicity = 1

                         Standard orientation:
 ---------------------------------------------------------------------
 Center     Atomic      Atomic             Coordinates (Angstroms)
 Number     Number       Type             X           Y           Z
 ---------------------------------------------------------------------
      1          6           0       -1.337229   -1.395271    0.019164
      2          6           0       -1.354626   -0.712928   -1.193428
      3          6           0       -1.367439    0.678429   -1.208709
      4          6           0       -1.362854    1.387443   -0.011400
      5          6           0       -1.345458    0.705100    1.201192
      6          6           0       -1.332645   -0.686257    1.216473
      7          1           0       -1.327285   -2.475160    0.031024
      8          1           0       -1.358184   -1.263223   -2.122709
      9          1           0       -1.380941    1.208023   -2.149851
     10          1           0       -1.372799    2.467332   -0.023260
     11          1           0       -1.341900    1.255394    2.130473
     12          1           0       -1.319143   -1.215852    2.157615
     13         14           0        3.149580    0.037065   -0.037613
     14          1           0        1.676304    0.023648   -0.024027
     15          1           0        3.645415   -1.169051   -0.723426
     16          1           0        3.627881    1.430530   -0.057397
     17          1           0        3.658039   -0.639645    1.168388
 ---------------------------------------------------------------------

 SCF Done:  E(RHF) =  -522.227534135     A.U. after    2 cycles

 The electronic state is 1-A.
 Alpha  occ. eigenvalues --  -69.52160 -11.24311 -11.24277 -11.24272 -11.24196
 Alpha  occ. eigenvalues --  -11.24170 -11.24163  -6.19368  -3.94802  -3.94744
 Alpha  occ. eigenvalues --   -3.94725  -1.15473  -1.01775  -1.01774  -0.83348
 Alpha  occ. eigenvalues --   -0.83348  -0.75160  -0.72484  -0.65136  -0.63844
 Alpha  occ. eigenvalues --   -0.60167  -0.60165  -0.51977  -0.51550  -0.50687
 Alpha  occ. eigenvalues --   -0.50686  -0.48021  -0.43539  -0.34672  -0.34665
 Alpha virt. eigenvalues --    0.03400   0.03616   0.03682   0.04234   0.05230
 Alpha virt. eigenvalues --    0.05275   0.06655   0.06830   0.07155   0.07865
 Alpha virt. eigenvalues --    0.09497   0.09922   0.10960   0.11070   0.12705

 Mulliken charges:
               1
     1  C    0.219869
     2  C    0.279543
     3  C    0.227446
     4  C    0.242375
     5  C    0.245305
     6  C    0.275624
     7  H   -0.244965
     8  H   -0.249497
     9  H   -0.242549
    10  H   -0.247796
    11  H   -0.244525
    12  H   -0.247927
    13  Si   0.588123
    14  H   -0.094634
    15  H   -0.127816
    16  H   -0.163606
    17  H   -0.214970
 Sum of Mulliken charges =  -0.00000

 Dipole moment (field-independent basis, Debye):
    X=             -0.2221    Y=              0.5122    Z=             -0.4779  Tot=              0.7349

 Test job not archived.
 1\1\GINC-SE366\SP\RHF\Aug-CC-pVDZ\C6H10Si1\OHZDE\09-Apr-2025\0\\#t hf
 aug-cc-pvdz iop(5/13=1,5/36=2,99/5=2) pseudo=read geom=check guess=(re
 ad,tcheck) scf=(maxcycle=1)\\title\\0,1\C,0,1.3915,0.,1.\C,0,0.69575,1
 .20507435,1.\C,0,-0.69575,1.20507435,1.\C,0,-1.3915,0.,1.\C,0,-0.69575
 ,-1.20507435,1.\C,0,0.69575,-1.20507435,1.\H,0,2.4715,0.,1.\H,0,1.2357
 5,2.14038179,1.\H,0,-1.23575,2.14038179,1.\H,0,-2.4715,0.,1.\H,0,-1.23
 575,-2.14038179,1.\H,0,1.23575,-2.14038179,1.\Si,0,0.,0.,5.5\H,0,0.,0.
 ,4.0266\H,0,1.20302606,0.69456742,5.99113333\H,0,-1.38913484,0.,5.9911

 Normal termination of Gaussian 16 at Wed Apr  9 02:15:37 2025.
