 Gaussian 16, Revision C.01,

 ----------------------------------------------------------------------
 #t hf aug-cc-pvdz symm=none int=(grid=ultrafine) guess=(read,tcheck) s
 table=(opt,rrhf)
 ----------------------------------------------------------------------
 -----
 title
 -----
 Symbolic Z-matrix:
 Charge =  0 Multiplicity = 1

 SCF Done:  E(RHF) =  -573.178691742     A.U. after   13 cycles
 Normal termination of Gaussian 16 at Wed Apr  9 02:14:33 2025.
 Gaussian 16:  ES64L-G16RevC.01  3-Jul-2019

 ----------------------------------------------------------------------
 #t hf aug-cc-pvdz iop(5/13=1,5/36=2,99/5=2) pseudo=read geom=check gue
 ss=(read,tcheck) scf=(maxcycle=1)
 ----------------------------------------------------------------------
 -----
 title
 -----
 Structure from the checkpoint file:  "BzDC215_140_mol1.chk"
 Charge =  0 Multiplicity = 1

                         Standard orientation:
 ---------------------------------------------------------------------
 Center     Atomic      Atomic             Coordinates (Angstroms)
 Number     Number       Type             X           Y           Z
 ---------------------------------------------------------------------
      1          6           0        1.258856    0.019696   -1.376479
      2          6           0        1.240791   -1.196286   -0.700215
      3          6           0        1.189405   -1.218448    0.690159
      4          6           0        1.156084   -0.024627    1.404269
      5          6           0        1.174150    1.191355    0.728006
      6          6           0        1.225536    1.213517   -0.662369
      7          1           0        1.298739    0.036896   -2.455605
      8          1           0        1.266652   -2.122860   -1.254466
      9          1           0        1.175383   -2.162222    1.215035
     10          1           0        1.116202   -0.041827    2.483396
     11          1           0        1.148289    2.117928    1.282256
     12          1           0        1.239558    2.157290   -1.187245
     13         15           0       -2.889651   -0.026017   -0.137903
     14          1           0       -1.479592   -0.017912   -0.085661
     15          1           0       -3.381210   -0.640972    1.033106
     16          1           0       -2.508190    1.152695    0.537513
 ---------------------------------------------------------------------

 SCF Done:  E(RHF) =  -573.467560244     A.U. after    2 cycles

 The electronic state is 1-A.
 Alpha  occ. eigenvalues --  -84.26146 -11.24631 -11.24596 -11.24585 -11.24517
 Alpha  occ. eigenvalues --  -11.24488 -11.24473  -6.73394  -4.25937  -4.25321
 Alpha  occ. eigenvalues --   -4.25021  -1.15807  -1.02110  -1.02102  -0.86578
 Alpha  occ. eigenvalues --   -0.83652  -0.83650  -0.72777  -0.65415  -0.64150
 Alpha  occ. eigenvalues --   -0.60470  -0.60462  -0.53909  -0.51162  -0.50978
 Alpha  occ. eigenvalues --   -0.50972  -0.44250  -0.35675  -0.35037  -0.34792
 Alpha virt. eigenvalues --    0.03365   0.03648   0.03727   0.04942   0.05183
 Alpha virt. eigenvalues --    0.05203   0.07809   0.08340   0.08965   0.09512
 Alpha virt. eigenvalues --    0.10021   0.10323   0.12073   0.12451   0.14069

 Mulliken charges:
               1
     1  C    0.188300
     2  C    0.268070
     3  C    0.198368
     4  C    0.354018
     5  C    0.126053
     6  C    0.332704
     7  H   -0.235135
     8  H   -0.230557
     9  H   -0.239254
    10  H   -0.238975
    11  H   -0.268285
    12  H   -0.237600
    13  P   -0.621084
    14  H    0.060603
    15  H    0.406585
    16  H    0.136188
 Sum of Mulliken charges =   0.00000

 Dipole moment (field-independent basis, Debye):
    X=              0.5617    Y=             -0.3128    Z=              0.4023  Tot=              0.7584

 Test job not archived.
 1\1\GINC-SE345\SP\RHF\Aug-CC-pVDZ\C6H9P1\OHZDE\09-Apr-2025\0\\#t hf au
 g-cc-pvdz iop(5/13=1,5/36=2,99/5=2) pseudo=read geom=check guess=(read
 ,tcheck) scf=(maxcycle=1)\\title\\0,1\C,0,1.3915,0.,1.\C,0,0.69575,1.2
 0507435,1.\C,0,-0.69575,1.20507435,1.\C,0,-1.3915,0.,1.\C,0,-0.69575,-
 1.20507435,1.\C,0,0.69575,-1.20507435,1.\H,0,2.4715,0.,1.\H,0,1.23575,
 2.14038179,1.\H,0,-1.23575,2.14038179,1.\H,0,-2.4715,0.,1.\H,0,-1.2357
 5,-2.14038179,1.\H,0,1.23575,-2.14038179,1.\P,0,0.,0.,5.1\H,0,0.,0.,3.
 68895\H,0,-1.19800816,0.59336739,5.55139084\H,0,-0.64201064,-1.1867347

 Normal termination of Gaussian 16 at Wed Apr  9 02:14:39 2025.
