 Gaussian 16, Revision C.01,

 ----------------------------------------------------------------------
 #t hf aug-cc-pvdz symm=none int=(grid=ultrafine) guess=(read,tcheck) s
 table=(opt,rrhf)
 ----------------------------------------------------------------------
 -----
 title
 -----
 Symbolic Z-matrix:
 Charge =  0 Multiplicity = 1

 SCF Done:  E(RHF) =  -330.762382282     A.U. after   11 cycles
 Normal termination of Gaussian 16 at Wed Apr  9 02:15:53 2025.
 Gaussian 16:  ES64L-G16RevC.01  3-Jul-2019

 ----------------------------------------------------------------------
 #t hf aug-cc-pvdz iop(5/13=1,5/36=2,99/5=2) pseudo=read geom=check gue
 ss=(read,tcheck) scf=(maxcycle=1)
 ----------------------------------------------------------------------
 -----
 title
 -----
 Structure from the checkpoint file:  "BzDC215_2_mol1.chk"
 Charge =  0 Multiplicity = 1

                         Standard orientation:
 ---------------------------------------------------------------------
 Center     Atomic      Atomic             Coordinates (Angstroms)
 Number     Number       Type             X           Y           Z
 ---------------------------------------------------------------------
      1          6           0        0.000000    1.391500   -0.540059
      2          6           0       -1.205074    0.695750   -0.540059
      3          6           0       -1.205074   -0.695750   -0.540059
      4          6           0       -0.000000   -1.391500   -0.540059
      5          6           0        1.205074   -0.695750   -0.540059
      6          6           0        1.205074    0.695750   -0.540059
      7          1           0        0.000000    2.471500   -0.540059
      8          1           0       -2.140382    1.235750   -0.540059
      9          1           0       -2.140382   -1.235750   -0.540059
     10          1           0       -0.000000   -2.471500   -0.540059
     11          1           0        2.140382   -1.235750   -0.540059
     12          1           0        2.140382    1.235750   -0.540059
     13          9           0        0.000000    0.000000    2.359941
     14          1           0        0.000000    0.000000    1.442984
 ---------------------------------------------------------------------

 SCF Done:  E(RHF) =  -331.098347811     A.U. after    2 cycles

 The electronic state is 1-A1.
 Alpha  occ. eigenvalues --  -26.42962 -11.25882 -11.25858 -11.25858 -11.25764
 Alpha  occ. eigenvalues --  -11.25749 -11.25749  -1.54547  -1.17424  -1.03498
 Alpha  occ. eigenvalues --   -1.03498  -0.84902  -0.84902  -0.74313  -0.71923
 Alpha  occ. eigenvalues --   -0.66489  -0.65402  -0.61716  -0.61716  -0.59219
 Alpha  occ. eigenvalues --   -0.59219  -0.52966  -0.52141  -0.52141  -0.36499
 Alpha  occ. eigenvalues --   -0.36499
 Alpha virt. eigenvalues --    0.03364   0.03490   0.03490   0.05168   0.05168
 Alpha virt. eigenvalues --    0.07631   0.08641   0.09176   0.09176   0.11420
 Alpha virt. eigenvalues --    0.12877   0.12877   0.14379   0.14674   0.14674

 Mulliken charges:
               1
     1  C    0.214227
     2  C    0.214227
     3  C    0.214227
     4  C    0.214227
     5  C    0.214227
     6  C    0.214227
     7  H   -0.237691
     8  H   -0.237691
     9  H   -0.237691
    10  H   -0.237691
    11  H   -0.237691
    12  H   -0.237691
    13  F   -0.652172
    14  H    0.792954
 Sum of Mulliken charges =  -0.00000

 Dipole moment (field-independent basis, Debye):
    X=             -0.0000    Y=              0.0000    Z=             -2.4240  Tot=              2.4240

 Test job not archived.
 1\1\GINC-SE024\SP\RHF\Aug-CC-pVDZ\C6H7F1\OHZDE\09-Apr-2025\0\\#t hf au
 g-cc-pvdz iop(5/13=1,5/36=2,99/5=2) pseudo=read geom=check guess=(read
 ,tcheck) scf=(maxcycle=1)\\title\\0,1\C,0,1.3915,0.,1.\C,0,0.69575,1.2
 0507435,1.\C,0,-0.69575,1.20507435,1.\C,0,-1.3915,0.,1.\C,0,-0.69575,-
 1.20507435,1.\C,0,0.69575,-1.20507435,1.\H,0,2.4715,0.,1.\H,0,1.23575,
 2.14038179,1.\H,0,-1.23575,2.14038179,1.\H,0,-2.4715,0.,1.\H,0,-1.2357
 5,-2.14038179,1.\H,0,1.23575,-2.14038179,1.\F,0,0.,0.,3.9\H,0,0.,0.,2.
 983042\\Version=ES64L-G16RevC.01\State=1-A1\HF=-331.0983478\RMSD=5.122

 Normal termination of Gaussian 16 at Wed Apr  9 02:15:56 2025.
