 Gaussian 16, Revision C.01,

 ----------------------------------------------------------------------
 #t hf aug-cc-pvdz symm=none int=(grid=ultrafine) guess=(read,tcheck) s
 table=(opt,rrhf)
 ----------------------------------------------------------------------
 -----
 title
 -----
 Symbolic Z-matrix:
 Charge =  0 Multiplicity = 1

 SCF Done:  E(RHF) =  -690.809548436     A.U. after   11 cycles

 1\1\GINC-SE402\Stability\RHF\Aug-CC-pVDZ\C6H7Cl1\OHZDE\09-Apr-2025\0\\
 #t hf aug-cc-pvdz symm=none int=(grid=ultrafine) guess=(read,tcheck) s
 table=(opt,rrhf)\\title\\0,1\C,0,1.3915,0.,1.\C,0,0.69575,1.20507435,1
 .\C,0,-0.69575,1.20507435,1.\C,0,-1.3915,0.,1.\C,0,-0.69575,-1.2050743
 5,1.\C,0,0.69575,-1.20507435,1.\H,0,2.4715,0.,1.\H,0,1.23575,2.1403817
 9,1.\H,0,-1.23575,2.14038179,1.\H,0,-2.4715,0.,1.\H,0,-1.23575,-2.1403
 8179,1.\H,0,1.23575,-2.14038179,1.\Cl,0,0.,0.,4.1\H,0,0.,0.,2.8253\\Ve
 rsion=ES64L-G16RevC.01\HF=-690.8095484\RMSD=6.392e-09\Dipole=0.,0.,-0.

 Normal termination of Gaussian 16 at Wed Apr  9 02:15:55 2025.
 Gaussian 16:  ES64L-G16RevC.01  3-Jul-2019

 ----------------------------------------------------------------------
 #t hf aug-cc-pvdz iop(5/13=1,5/36=2,99/5=2) pseudo=read geom=check gue
 ss=(read,tcheck) scf=(maxcycle=1)
 ----------------------------------------------------------------------
 -----
 title
 -----
 Structure from the checkpoint file:  "BzDC215_89_mol1.chk"
 Charge =  0 Multiplicity = 1

                         Standard orientation:
 ---------------------------------------------------------------------
 Center     Atomic      Atomic             Coordinates (Angstroms)
 Number     Number       Type             X           Y           Z
 ---------------------------------------------------------------------
      1          6           0        0.000000    1.391500   -0.908755
      2          6           0       -1.205074    0.695750   -0.908755
      3          6           0       -1.205074   -0.695750   -0.908755
      4          6           0       -0.000000   -1.391500   -0.908755
      5          6           0        1.205074   -0.695750   -0.908755
      6          6           0        1.205074    0.695750   -0.908755
      7          1           0        0.000000    2.471500   -0.908755
      8          1           0       -2.140382    1.235750   -0.908755
      9          1           0       -2.140382   -1.235750   -0.908755
     10          1           0       -0.000000   -2.471500   -0.908755
     11          1           0        2.140382   -1.235750   -0.908755
     12          1           0        2.140382    1.235750   -0.908755
     13         17           0        0.000000    0.000000    2.191245
     14          1           0        0.000000    0.000000    0.916545
 ---------------------------------------------------------------------

 SCF Done:  E(RHF) =  -691.130271484     A.U. after    2 cycles

 The electronic state is 1-A1.
 Alpha  occ. eigenvalues -- -105.54688 -11.25723 -11.25691 -11.25691 -11.25600
 Alpha  occ. eigenvalues --  -11.25584 -11.25584 -10.59581  -7.76573  -7.76193
 Alpha  occ. eigenvalues --   -7.76193  -1.17560  -1.04619  -1.03374  -1.03374
 Alpha  occ. eigenvalues --   -0.84744  -0.84744  -0.74061  -0.66345  -0.65248
 Alpha  occ. eigenvalues --   -0.62460  -0.61602  -0.61602  -0.51997  -0.51997
 Alpha  occ. eigenvalues --   -0.50942  -0.46094  -0.46094  -0.36185  -0.36185
 Alpha virt. eigenvalues --    0.03403   0.03549   0.03549   0.05098   0.05098
 Alpha virt. eigenvalues --    0.07326   0.07746   0.09135   0.09135   0.11205
 Alpha virt. eigenvalues --    0.13122   0.13122   0.14536   0.14700   0.14849

 Mulliken charges:
               1
     1  C    0.192715
     2  C    0.192715
     3  C    0.192715
     4  C    0.192715
     5  C    0.192715
     6  C    0.192715
     7  H   -0.231713
     8  H   -0.231713
     9  H   -0.231713
    10  H   -0.231713
    11  H   -0.231713
    12  H   -0.231713
    13  Cl  -0.236102
    14  H    0.470088
 Sum of Mulliken charges =   0.00000

 Dipole moment (field-independent basis, Debye):
    X=             -0.0000    Y=             -0.0000    Z=             -2.1469  Tot=              2.1469

 Test job not archived.
 1\1\GINC-SE402\SP\RHF\Aug-CC-pVDZ\C6H7Cl1\OHZDE\09-Apr-2025\0\\#t hf a
 ug-cc-pvdz iop(5/13=1,5/36=2,99/5=2) pseudo=read geom=check guess=(rea
 d,tcheck) scf=(maxcycle=1)\\title\\0,1\C,0,1.3915,0.,1.\C,0,0.69575,1.
 20507435,1.\C,0,-0.69575,1.20507435,1.\C,0,-1.3915,0.,1.\C,0,-0.69575,
 -1.20507435,1.\C,0,0.69575,-1.20507435,1.\H,0,2.4715,0.,1.\H,0,1.23575
 ,2.14038179,1.\H,0,-1.23575,2.14038179,1.\H,0,-2.4715,0.,1.\H,0,-1.235
 75,-2.14038179,1.\H,0,1.23575,-2.14038179,1.\Cl,0,0.,0.,4.1\H,0,0.,0.,
 2.8253\\Version=ES64L-G16RevC.01\State=1-A1\HF=-691.1302715\RMSD=4.947

 Normal termination of Gaussian 16 at Wed Apr  9 02:15:58 2025.
