 Gaussian 16, Revision C.01,

 ----------------------------------------------------------------------
 #t hf aug-cc-pvdz symm=none int=(grid=ultrafine) guess=(read,tcheck) s
 table=(opt,rrhf)
 ----------------------------------------------------------------------
 -----
 title
 -----
 Symbolic Z-matrix:
 Charge =  0 Multiplicity = 1

 SCF Done:  E(RHF) =  -330.759789904     A.U. after   11 cycles
 Normal termination of Gaussian 16 at Wed Apr  9 02:15:27 2025.
 Gaussian 16:  ES64L-G16RevC.01  3-Jul-2019

 ----------------------------------------------------------------------
 #t hf aug-cc-pvdz iop(5/13=1,5/36=2,99/5=2) pseudo=read geom=check gue
 ss=(read,tcheck) scf=(maxcycle=1)
 ----------------------------------------------------------------------
 -----
 title
 -----
 Structure from the checkpoint file:  "BzDC215_1_mol1.chk"
 Charge =  0 Multiplicity = 1

                         Standard orientation:
 ---------------------------------------------------------------------
 Center     Atomic      Atomic             Coordinates (Angstroms)
 Number     Number       Type             X           Y           Z
 ---------------------------------------------------------------------
      1          6           0        0.000000    1.391500   -0.520828
      2          6           0       -1.205074    0.695750   -0.520828
      3          6           0       -1.205074   -0.695750   -0.520828
      4          6           0       -0.000000   -1.391500   -0.520828
      5          6           0        1.205074   -0.695750   -0.520828
      6          6           0        1.205074    0.695750   -0.520828
      7          1           0        0.000000    2.471500   -0.520828
      8          1           0       -2.140382    1.235750   -0.520828
      9          1           0       -2.140382   -1.235750   -0.520828
     10          1           0       -0.000000   -2.471500   -0.520828
     11          1           0        2.140382   -1.235750   -0.520828
     12          1           0        2.140382    1.235750   -0.520828
     13          9           0        0.000000    0.000000    2.279172
     14          1           0        0.000000    0.000000    1.362214
 ---------------------------------------------------------------------

 SCF Done:  E(RHF) =  -331.095729886     A.U. after    2 cycles

 The electronic state is 1-A1.
 Alpha  occ. eigenvalues --  -26.42600 -11.25901 -11.25874 -11.25874 -11.25779
 Alpha  occ. eigenvalues --  -11.25765 -11.25765  -1.54310  -1.17531  -1.03545
 Alpha  occ. eigenvalues --   -1.03545  -0.84931  -0.84931  -0.74466  -0.71746
 Alpha  occ. eigenvalues --   -0.66502  -0.65424  -0.61761  -0.61761  -0.58981
 Alpha  occ. eigenvalues --   -0.58981  -0.52877  -0.52164  -0.52164  -0.36526
 Alpha  occ. eigenvalues --   -0.36526
 Alpha virt. eigenvalues --    0.03370   0.03491   0.03491   0.05178   0.05178
 Alpha virt. eigenvalues --    0.07632   0.08716   0.09172   0.09172   0.11308
 Alpha virt. eigenvalues --    0.12839   0.12839   0.14382   0.14674   0.14690

 Mulliken charges:
               1
     1  C    0.212312
     2  C    0.212312
     3  C    0.212312
     4  C    0.212312
     5  C    0.212312
     6  C    0.212312
     7  H   -0.240060
     8  H   -0.240060
     9  H   -0.240060
    10  H   -0.240060
    11  H   -0.240060
    12  H   -0.240060
    13  F   -0.678737
    14  H    0.845223
 Sum of Mulliken charges =   0.00000

 Dipole moment (field-independent basis, Debye):
    X=             -0.0000    Y=              0.0000    Z=             -2.4136  Tot=              2.4136

 Test job not archived.
 1\1\GINC-SE253\SP\RHF\Aug-CC-pVDZ\C6H7F1\OHZDE\09-Apr-2025\0\\#t hf au
 g-cc-pvdz iop(5/13=1,5/36=2,99/5=2) pseudo=read geom=check guess=(read
 ,tcheck) scf=(maxcycle=1)\\title\\0,1\C,0,1.3915,0.,1.\C,0,0.69575,1.2
 0507435,1.\C,0,-0.69575,1.20507435,1.\C,0,-1.3915,0.,1.\C,0,-0.69575,-
 1.20507435,1.\C,0,0.69575,-1.20507435,1.\H,0,2.4715,0.,1.\H,0,1.23575,
 2.14038179,1.\H,0,-1.23575,2.14038179,1.\H,0,-2.4715,0.,1.\H,0,-1.2357
 5,-2.14038179,1.\H,0,1.23575,-2.14038179,1.\F,0,0.,0.,3.8\H,0,0.,0.,2.
 883042\\Version=ES64L-G16RevC.01\State=1-A1\HF=-331.0957299\RMSD=5.139

 Normal termination of Gaussian 16 at Wed Apr  9 02:15:31 2025.
