 Gaussian 16, Revision C.01,

 ----------------------------------------------------------------------
 #t hf aug-cc-pvdz symm=none int=(grid=ultrafine) guess=(read,tcheck) s
 table=(opt,rrhf)
 ----------------------------------------------------------------------
 -----
 title
 -----
 Symbolic Z-matrix:
 Charge =  0 Multiplicity = 1

 SCF Done:  E(RHF) =  -629.419192391     A.U. after   13 cycles
 Normal termination of Gaussian 16 at Wed Apr  9 02:13:29 2025.
 Gaussian 16:  ES64L-G16RevC.01  3-Jul-2019

 ----------------------------------------------------------------------
 #t hf aug-cc-pvdz iop(5/13=1,5/36=2,99/5=2) pseudo=read geom=check gue
 ss=(read,tcheck) scf=(maxcycle=1)
 ----------------------------------------------------------------------
 -----
 title
 -----
 Structure from the checkpoint file:  "BzDC215_111_mol1.chk"
 Charge =  0 Multiplicity = 1

                         Standard orientation:
 ---------------------------------------------------------------------
 Center     Atomic      Atomic             Coordinates (Angstroms)
 Number     Number       Type             X           Y           Z
 ---------------------------------------------------------------------
      1          6           0       -0.993246    1.406946   -0.000000
      2          6           0       -0.993246    0.711196    1.205074
      3          6           0       -0.993246   -0.680304    1.205074
      4          6           0       -0.993246   -1.376054    0.000000
      5          6           0       -0.993246   -0.680304   -1.205074
      6          6           0       -0.993246    0.711196   -1.205074
      7          1           0       -0.993246    2.486946   -0.000000
      8          1           0       -0.993246    1.251196    2.140382
      9          1           0       -0.993246   -1.220304    2.140382
     10          1           0       -0.993246   -2.456054    0.000000
     11          1           0       -0.993246   -1.220304   -2.140382
     12          1           0       -0.993246    1.251196   -2.140382
     13         16           0        2.406754    0.015446   -0.000000
     14          1           0        2.085000   -1.280818    0.000000
     15          1           0        1.123279    0.384932   -0.000000
 ---------------------------------------------------------------------

 SCF Done:  E(RHF) =  -629.723625148     A.U. after    2 cycles

 The electronic state is 1-A'.
 Alpha  occ. eigenvalues --  -93.93786 -11.25241 -11.25219 -11.25187 -11.25109
 Alpha  occ. eigenvalues --  -11.25107 -11.25081  -8.21953  -6.19837  -6.19722
 Alpha  occ. eigenvalues --   -6.19476  -1.16671  -1.02823  -1.02733  -1.00039
 Alpha  occ. eigenvalues --   -0.84265  -0.84256  -0.73441  -0.65963  -0.64764
 Alpha  occ. eigenvalues --   -0.61123  -0.61045  -0.58810  -0.53023  -0.51568
 Alpha  occ. eigenvalues --   -0.51531  -0.47365  -0.38037  -0.35844  -0.34835
 Alpha virt. eigenvalues --    0.03293   0.03506   0.03597   0.05107   0.05143
 Alpha virt. eigenvalues --    0.05689   0.07749   0.08032   0.09248   0.09481
 Alpha virt. eigenvalues --    0.11605   0.12993   0.13019   0.13800   0.14447

 Mulliken charges:
               1
     1  C    0.142105
     2  C    0.203315
     3  C    0.298786
     4  C    0.131620
     5  C    0.298786
     6  C    0.203315
     7  H   -0.227355
     8  H   -0.225738
     9  H   -0.242131
    10  H   -0.248911
    11  H   -0.242131
    12  H   -0.225738
    13  S   -0.677488
    14  H    0.271910
    15  H    0.539656
 Sum of Mulliken charges =  -0.00000

 Dipole moment (field-independent basis, Debye):
    X=             -1.7666    Y=             -0.5396    Z=              0.0000  Tot=              1.8472

 Test job not archived.
 1\1\GINC-SE292\SP\RHF\Aug-CC-pVDZ\C6H8S1\OHZDE\09-Apr-2025\0\\#t hf au
 g-cc-pvdz iop(5/13=1,5/36=2,99/5=2) pseudo=read geom=check guess=(read
 ,tcheck) scf=(maxcycle=1)\\title\\0,1\C,0,1.3915,0.,1.\C,0,0.69575,1.2
 0507435,1.\C,0,-0.69575,1.20507435,1.\C,0,-1.3915,0.,1.\C,0,-0.69575,-
 1.20507435,1.\C,0,0.69575,-1.20507435,1.\H,0,2.4715,0.,1.\H,0,1.23575,
 2.14038179,1.\H,0,-1.23575,2.14038179,1.\H,0,-2.4715,0.,1.\H,0,-1.2357
 5,-2.14038179,1.\H,0,1.23575,-2.14038179,1.\S,0,0.,0.,4.4\H,0,-1.29626
 462,0.,4.07824638\H,0,0.36948551,0.,3.1165251\\Version=ES64L-G16RevC.0

 Normal termination of Gaussian 16 at Wed Apr  9 02:13:33 2025.
