 Gaussian 16, Revision C.01,

 ----------------------------------------------------------------------
 #t hf aug-cc-pvdz symm=none int=(grid=ultrafine) guess=(read,tcheck) s
 table=(opt,rrhf)
 ----------------------------------------------------------------------
 -----
 title
 -----
 Symbolic Z-matrix:
 Charge =  0 Multiplicity = 1

 SCF Done:  E(RHF) =  -521.942749966     A.U. after   13 cycles
 Normal termination of Gaussian 16 at Wed Apr  9 02:15:09 2025.
 Gaussian 16:  ES64L-G16RevC.01  3-Jul-2019

 ----------------------------------------------------------------------
 #t hf aug-cc-pvdz iop(5/13=1,5/36=2,99/5=2) pseudo=read geom=check gue
 ss=(read,tcheck) scf=(maxcycle=1)
 ----------------------------------------------------------------------
 -----
 title
 -----
 Structure from the checkpoint file:  "BzDC215_154_mol1.chk"
 Charge =  0 Multiplicity = 1

                         Standard orientation:
 ---------------------------------------------------------------------
 Center     Atomic      Atomic             Coordinates (Angstroms)
 Number     Number       Type             X           Y           Z
 ---------------------------------------------------------------------
      1          6           0       -1.122599   -1.397023    0.023040
      2          6           0       -1.146192   -0.716609   -1.190531
      3          6           0       -1.163627    0.674673   -1.207899
      4          6           0       -1.157470    1.385542   -0.011697
      5          6           0       -1.133877    0.705128    1.201874
      6          6           0       -1.116441   -0.686154    1.219242
      7          1           0       -1.109066   -2.476854    0.036520
      8          1           0       -1.150971   -1.268344   -2.118952
      9          1           0       -1.181939    1.202770   -2.149800
     10          1           0       -1.171003    2.465373   -0.025177
     11          1           0       -1.129098    1.256863    2.130295
     12          1           0       -1.098130   -1.214251    2.161143
     13         14           0        2.659378    0.041281   -0.041829
     14          1           0        1.186206    0.023049   -0.023412
     15          1           0        3.156936   -1.164256   -0.727412
     16          1           0        3.133029    1.436276   -0.065307
     17          1           0        3.173988   -0.631899    1.163539
 ---------------------------------------------------------------------

 SCF Done:  E(RHF) =  -522.221321620     A.U. after    2 cycles

 The electronic state is 1-A.
 Alpha  occ. eigenvalues --  -69.51460 -11.24459 -11.24427 -11.24420 -11.24345
 Alpha  occ. eigenvalues --  -11.24318 -11.24311  -6.18686  -3.94122  -3.94053
 Alpha  occ. eigenvalues --   -3.94047  -1.15686  -1.01930  -1.01927  -0.83490
 Alpha  occ. eigenvalues --   -0.83490  -0.74762  -0.72629  -0.65269  -0.63980
 Alpha  occ. eigenvalues --   -0.60307  -0.60305  -0.53362  -0.51314  -0.50819
 Alpha  occ. eigenvalues --   -0.50817  -0.45918  -0.43091  -0.34904  -0.34880
 Alpha virt. eigenvalues --    0.03396   0.03592   0.03675   0.04299   0.05220
 Alpha virt. eigenvalues --    0.05258   0.06831   0.07104   0.07346   0.07844
 Alpha virt. eigenvalues --    0.09471   0.09805   0.11297   0.11537   0.11650

 Mulliken charges:
               1
     1  C    0.214710
     2  C    0.275583
     3  C    0.223510
     4  C    0.235679
     5  C    0.250065
     6  C    0.273694
     7  H   -0.255331
     8  H   -0.259724
     9  H   -0.251933
    10  H   -0.259839
    11  H   -0.258070
    12  H   -0.259804
    13  Si   0.504022
    14  H    0.068494
    15  H   -0.127271
    16  H   -0.159755
    17  H   -0.214031
 Sum of Mulliken charges =  -0.00000

 Dipole moment (field-independent basis, Debye):
    X=             -0.4627    Y=              0.4970    Z=             -0.4649  Tot=              0.8229

 Test job not archived.
 1\1\GINC-SE080\SP\RHF\Aug-CC-pVDZ\C6H10Si1\OHZDE\09-Apr-2025\0\\#t hf
 aug-cc-pvdz iop(5/13=1,5/36=2,99/5=2) pseudo=read geom=check guess=(re
 ad,tcheck) scf=(maxcycle=1)\\title\\0,1\C,0,1.3915,0.,1.\C,0,0.69575,1
 .20507435,1.\C,0,-0.69575,1.20507435,1.\C,0,-1.3915,0.,1.\C,0,-0.69575
 ,-1.20507435,1.\C,0,0.69575,-1.20507435,1.\H,0,2.4715,0.,1.\H,0,1.2357
 5,2.14038179,1.\H,0,-1.23575,2.14038179,1.\H,0,-2.4715,0.,1.\H,0,-1.23
 575,-2.14038179,1.\H,0,1.23575,-2.14038179,1.\Si,0,0.,0.,4.8\H,0,0.,0.
 ,3.3266\H,0,1.20302606,0.69456742,5.29113333\H,0,-1.38913484,0.,5.2911

 Normal termination of Gaussian 16 at Wed Apr  9 02:15:16 2025.
