 Gaussian 16, Revision C.01,

 ----------------------------------------------------------------------
 #t hf aug-cc-pvdz symm=none int=(grid=ultrafine) guess=(read,tcheck) s
 table=(opt,rrhf)
 ----------------------------------------------------------------------
 -----
 title
 -----
 Symbolic Z-matrix:
 Charge =  0 Multiplicity = 1

 SCF Done:  E(RHF) =  -690.819814554     A.U. after   11 cycles

 1\1\GINC-SE165\Stability\RHF\Aug-CC-pVDZ\C6H7Cl1\OHZDE\09-Apr-2025\0\\
 #t hf aug-cc-pvdz symm=none int=(grid=ultrafine) guess=(read,tcheck) s
 table=(opt,rrhf)\\title\\0,1\C,0,1.3915,0.,1.\C,0,0.69575,1.20507435,1
 .\C,0,-0.69575,1.20507435,1.\C,0,-1.3915,0.,1.\C,0,-0.69575,-1.2050743
 5,1.\C,0,0.69575,-1.20507435,1.\H,0,2.4715,0.,1.\H,0,1.23575,2.1403817
 9,1.\H,0,-1.23575,2.14038179,1.\H,0,-2.4715,0.,1.\H,0,-1.23575,-2.1403
 8179,1.\H,0,1.23575,-2.14038179,1.\Cl,0,0.,0.,4.4\H,0,0.,0.,3.1253\\Ve
 rsion=ES64L-G16RevC.01\HF=-690.8198146\RMSD=7.297e-09\Dipole=0.,0.,-0.

 Normal termination of Gaussian 16 at Wed Apr  9 02:16:29 2025.
 Gaussian 16:  ES64L-G16RevC.01  3-Jul-2019

 ----------------------------------------------------------------------
 #t hf aug-cc-pvdz iop(5/13=1,5/36=2,99/5=2) pseudo=read geom=check gue
 ss=(read,tcheck) scf=(maxcycle=1)
 ----------------------------------------------------------------------
 -----
 title
 -----
 Structure from the checkpoint file:  "BzDC215_92_mol1.chk"
 Charge =  0 Multiplicity = 1

                         Standard orientation:
 ---------------------------------------------------------------------
 Center     Atomic      Atomic             Coordinates (Angstroms)
 Number     Number       Type             X           Y           Z
 ---------------------------------------------------------------------
      1          6           0        0.000000    1.391500   -0.998755
      2          6           0       -1.205074    0.695750   -0.998755
      3          6           0       -1.205074   -0.695750   -0.998755
      4          6           0       -0.000000   -1.391500   -0.998755
      5          6           0        1.205074   -0.695750   -0.998755
      6          6           0        1.205074    0.695750   -0.998755
      7          1           0        0.000000    2.471500   -0.998755
      8          1           0       -2.140382    1.235750   -0.998755
      9          1           0       -2.140382   -1.235750   -0.998755
     10          1           0       -0.000000   -2.471500   -0.998755
     11          1           0        2.140382   -1.235750   -0.998755
     12          1           0        2.140382    1.235750   -0.998755
     13         17           0        0.000000    0.000000    2.401245
     14          1           0        0.000000    0.000000    1.126545
 ---------------------------------------------------------------------

 SCF Done:  E(RHF) =  -691.139811097     A.U. after    2 cycles

 The electronic state is 1-A1.
 Alpha  occ. eigenvalues -- -105.55679 -11.25580 -11.25553 -11.25553 -11.25462
 Alpha  occ. eigenvalues --  -11.25446 -11.25446 -10.60512  -7.77506  -7.77117
 Alpha  occ. eigenvalues --   -7.77117  -1.17061  -1.05244  -1.03144  -1.03144
 Alpha  occ. eigenvalues --   -0.84579  -0.84579  -0.73765  -0.66225  -0.65095
 Alpha  occ. eigenvalues --   -0.61976  -0.61404  -0.61404  -0.51923  -0.51850
 Alpha  occ. eigenvalues --   -0.51850  -0.46492  -0.46492  -0.36107  -0.36107
 Alpha virt. eigenvalues --    0.03412   0.03561   0.03561   0.05105   0.05105
 Alpha virt. eigenvalues --    0.07072   0.07748   0.09277   0.09277   0.11646
 Alpha virt. eigenvalues --    0.13108   0.13108   0.14544   0.14670   0.14792

 Mulliken charges:
               1
     1  C    0.202133
     2  C    0.202133
     3  C    0.202133
     4  C    0.202133
     5  C    0.202133
     6  C    0.202133
     7  H   -0.230002
     8  H   -0.230002
     9  H   -0.230002
    10  H   -0.230002
    11  H   -0.230002
    12  H   -0.230002
    13  Cl  -0.198159
    14  H    0.365377
 Sum of Mulliken charges =  -0.00000

 Dipole moment (field-independent basis, Debye):
    X=              0.0000    Y=             -0.0000    Z=             -2.0205  Tot=              2.0205

 Test job not archived.
 1\1\GINC-SE165\SP\RHF\Aug-CC-pVDZ\C6H7Cl1\OHZDE\09-Apr-2025\0\\#t hf a
 ug-cc-pvdz iop(5/13=1,5/36=2,99/5=2) pseudo=read geom=check guess=(rea
 d,tcheck) scf=(maxcycle=1)\\title\\0,1\C,0,1.3915,0.,1.\C,0,0.69575,1.
 20507435,1.\C,0,-0.69575,1.20507435,1.\C,0,-1.3915,0.,1.\C,0,-0.69575,
 -1.20507435,1.\C,0,0.69575,-1.20507435,1.\H,0,2.4715,0.,1.\H,0,1.23575
 ,2.14038179,1.\H,0,-1.23575,2.14038179,1.\H,0,-2.4715,0.,1.\H,0,-1.235
 75,-2.14038179,1.\H,0,1.23575,-2.14038179,1.\Cl,0,0.,0.,4.4\H,0,0.,0.,
 3.1253\\Version=ES64L-G16RevC.01\State=1-A1\HF=-691.1398111\RMSD=4.940

 Normal termination of Gaussian 16 at Wed Apr  9 02:16:40 2025.
