 Gaussian 16, Revision C.01,

 ----------------------------------------------------------------------
 #t hf aug-cc-pvdz symm=none int=(grid=ultrafine) guess=(read,tcheck) s
 table=(opt,rrhf)
 ----------------------------------------------------------------------
 -----
 title
 -----
 Symbolic Z-matrix:
 Charge =  0 Multiplicity = 1

 SCF Done:  E(RHF) =  -629.425303801     A.U. after   13 cycles
 Normal termination of Gaussian 16 at Wed Apr  9 02:13:39 2025.
 Gaussian 16:  ES64L-G16RevC.01  3-Jul-2019

 ----------------------------------------------------------------------
 #t hf aug-cc-pvdz iop(5/13=1,5/36=2,99/5=2) pseudo=read geom=check gue
 ss=(read,tcheck) scf=(maxcycle=1)
 ----------------------------------------------------------------------
 -----
 title
 -----
 Structure from the checkpoint file:  "BzDC215_115_mol1.chk"
 Charge =  0 Multiplicity = 1

                         Standard orientation:
 ---------------------------------------------------------------------
 Center     Atomic      Atomic             Coordinates (Angstroms)
 Number     Number       Type             X           Y           Z
 ---------------------------------------------------------------------
      1          6           0       -1.083246    1.406946    0.000000
      2          6           0       -1.083246    0.711196    1.205074
      3          6           0       -1.083246   -0.680304    1.205074
      4          6           0       -1.083246   -1.376054    0.000000
      5          6           0       -1.083246   -0.680304   -1.205074
      6          6           0       -1.083246    0.711196   -1.205074
      7          1           0       -1.083246    2.486946    0.000000
      8          1           0       -1.083246    1.251196    2.140382
      9          1           0       -1.083246   -1.220304    2.140382
     10          1           0       -1.083246   -2.456054    0.000000
     11          1           0       -1.083246   -1.220304   -2.140382
     12          1           0       -1.083246    1.251196   -2.140382
     13         16           0        2.616754    0.015446    0.000000
     14          1           0        2.295000   -1.280818    0.000000
     15          1           0        1.333279    0.384932    0.000000
 ---------------------------------------------------------------------

 SCF Done:  E(RHF) =  -629.729337580     A.U. after    2 cycles

 The electronic state is 1-A'.
 Alpha  occ. eigenvalues --  -93.94457 -11.25097 -11.25080 -11.25054 -11.24975
 Alpha  occ. eigenvalues --  -11.24971 -11.24949  -8.22595  -6.20478  -6.20362
 Alpha  occ. eigenvalues --   -6.20113  -1.16390  -1.02625  -1.02568  -1.00469
 Alpha  occ. eigenvalues --   -0.84116  -0.84108  -0.73261  -0.65837  -0.64621
 Alpha  occ. eigenvalues --   -0.60949  -0.60899  -0.58564  -0.52727  -0.51430
 Alpha  occ. eigenvalues --   -0.51401  -0.48522  -0.37915  -0.35639  -0.35189
 Alpha virt. eigenvalues --    0.03300   0.03526   0.03620   0.05112   0.05155
 Alpha virt. eigenvalues --    0.05560   0.07753   0.07976   0.09470   0.09639
 Alpha virt. eigenvalues --    0.11853   0.12883   0.12953   0.13866   0.14437

 Mulliken charges:
               1
     1  C    0.187091
     2  C    0.209364
     3  C    0.300355
     4  C    0.131171
     5  C    0.300355
     6  C    0.209364
     7  H   -0.227724
     8  H   -0.228677
     9  H   -0.241795
    10  H   -0.249458
    11  H   -0.241795
    12  H   -0.228677
    13  S   -0.611371
    14  H    0.262078
    15  H    0.429720
 Sum of Mulliken charges =   0.00000

 Dipole moment (field-independent basis, Debye):
    X=             -1.6139    Y=             -0.5531    Z=              0.0000  Tot=              1.7061

 Test job not archived.
 1\1\GINC-SE195\SP\RHF\Aug-CC-pVDZ\C6H8S1\OHZDE\09-Apr-2025\0\\#t hf au
 g-cc-pvdz iop(5/13=1,5/36=2,99/5=2) pseudo=read geom=check guess=(read
 ,tcheck) scf=(maxcycle=1)\\title\\0,1\C,0,1.3915,0.,1.\C,0,0.69575,1.2
 0507435,1.\C,0,-0.69575,1.20507435,1.\C,0,-1.3915,0.,1.\C,0,-0.69575,-
 1.20507435,1.\C,0,0.69575,-1.20507435,1.\H,0,2.4715,0.,1.\H,0,1.23575,
 2.14038179,1.\H,0,-1.23575,2.14038179,1.\H,0,-2.4715,0.,1.\H,0,-1.2357
 5,-2.14038179,1.\H,0,1.23575,-2.14038179,1.\S,0,0.,0.,4.7\H,0,-1.29626
 462,0.,4.37824638\H,0,0.36948551,0.,3.4165251\\Version=ES64L-G16RevC.0

 Normal termination of Gaussian 16 at Wed Apr  9 02:13:44 2025.
