 Gaussian 16, Revision C.01,

 ----------------------------------------------------------------------
 #t hf aug-cc-pvdz symm=none int=(grid=ultrafine) guess=(read,tcheck) s
 table=(opt,rrhf)
 ----------------------------------------------------------------------
 -----
 title
 -----
 Symbolic Z-matrix:
 Charge =  0 Multiplicity = 1

 SCF Done:  E(RHF) =  -690.814071630     A.U. after   11 cycles

 1\1\GINC-SE070\Stability\RHF\Aug-CC-pVDZ\C6H7Cl1\OHZDE\09-Apr-2025\0\\
 #t hf aug-cc-pvdz symm=none int=(grid=ultrafine) guess=(read,tcheck) s
 table=(opt,rrhf)\\title\\0,1\C,0,1.3915,0.,1.\C,0,0.69575,1.20507435,1
 .\C,0,-0.69575,1.20507435,1.\C,0,-1.3915,0.,1.\C,0,-0.69575,-1.2050743
 5,1.\C,0,0.69575,-1.20507435,1.\H,0,2.4715,0.,1.\H,0,1.23575,2.1403817
 9,1.\H,0,-1.23575,2.14038179,1.\H,0,-2.4715,0.,1.\H,0,-1.23575,-2.1403
 8179,1.\H,0,1.23575,-2.14038179,1.\Cl,0,0.,0.,4.2\H,0,0.,0.,2.9253\\Ve
 rsion=ES64L-G16RevC.01\HF=-690.8140716\RMSD=6.544e-09\Dipole=0.,0.,-0.

 Normal termination of Gaussian 16 at Wed Apr  9 02:15:55 2025.
 Gaussian 16:  ES64L-G16RevC.01  3-Jul-2019

 ----------------------------------------------------------------------
 #t hf aug-cc-pvdz iop(5/13=1,5/36=2,99/5=2) pseudo=read geom=check gue
 ss=(read,tcheck) scf=(maxcycle=1)
 ----------------------------------------------------------------------
 -----
 title
 -----
 Structure from the checkpoint file:  "BzDC215_90_mol1.chk"
 Charge =  0 Multiplicity = 1

                         Standard orientation:
 ---------------------------------------------------------------------
 Center     Atomic      Atomic             Coordinates (Angstroms)
 Number     Number       Type             X           Y           Z
 ---------------------------------------------------------------------
      1          6           0        0.000000    1.391500   -0.938755
      2          6           0       -1.205074    0.695750   -0.938755
      3          6           0       -1.205074   -0.695750   -0.938755
      4          6           0       -0.000000   -1.391500   -0.938755
      5          6           0        1.205074   -0.695750   -0.938755
      6          6           0        1.205074    0.695750   -0.938755
      7          1           0        0.000000    2.471500   -0.938755
      8          1           0       -2.140382    1.235750   -0.938755
      9          1           0       -2.140382   -1.235750   -0.938755
     10          1           0       -0.000000   -2.471500   -0.938755
     11          1           0        2.140382   -1.235750   -0.938755
     12          1           0        2.140382    1.235750   -0.938755
     13         17           0        0.000000    0.000000    2.261245
     14          1           0        0.000000    0.000000    0.986545
 ---------------------------------------------------------------------

 SCF Done:  E(RHF) =  -691.134520841     A.U. after    2 cycles

 The electronic state is 1-A1.
 Alpha  occ. eigenvalues -- -105.55062 -11.25676 -11.25646 -11.25646 -11.25555
 Alpha  occ. eigenvalues --  -11.25539 -11.25539 -10.59930  -7.76923  -7.76540
 Alpha  occ. eigenvalues --   -7.76540  -1.17359  -1.04844  -1.03290  -1.03290
 Alpha  occ. eigenvalues --   -0.84686  -0.84686  -0.73942  -0.66304  -0.65195
 Alpha  occ. eigenvalues --   -0.62255  -0.61530  -0.61530  -0.51945  -0.51945
 Alpha  occ. eigenvalues --   -0.51358  -0.46219  -0.46219  -0.36176  -0.36176
 Alpha virt. eigenvalues --    0.03407   0.03554   0.03554   0.05101   0.05101
 Alpha virt. eigenvalues --    0.07240   0.07747   0.09185   0.09185   0.11354
 Alpha virt. eigenvalues --    0.13120   0.13120   0.14539   0.14701   0.14859

 Mulliken charges:
               1
     1  C    0.196248
     2  C    0.196248
     3  C    0.196248
     4  C    0.196248
     5  C    0.196248
     6  C    0.196248
     7  H   -0.231566
     8  H   -0.231566
     9  H   -0.231566
    10  H   -0.231566
    11  H   -0.231566
    12  H   -0.231566
    13  Cl  -0.222471
    14  H    0.434379
 Sum of Mulliken charges =  -0.00000

 Dipole moment (field-independent basis, Debye):
    X=              0.0000    Y=              0.0000    Z=             -2.1048  Tot=              2.1048

 Test job not archived.
 1\1\GINC-SE070\SP\RHF\Aug-CC-pVDZ\C6H7Cl1\OHZDE\09-Apr-2025\0\\#t hf a
 ug-cc-pvdz iop(5/13=1,5/36=2,99/5=2) pseudo=read geom=check guess=(rea
 d,tcheck) scf=(maxcycle=1)\\title\\0,1\C,0,1.3915,0.,1.\C,0,0.69575,1.
 20507435,1.\C,0,-0.69575,1.20507435,1.\C,0,-1.3915,0.,1.\C,0,-0.69575,
 -1.20507435,1.\C,0,0.69575,-1.20507435,1.\H,0,2.4715,0.,1.\H,0,1.23575
 ,2.14038179,1.\H,0,-1.23575,2.14038179,1.\H,0,-2.4715,0.,1.\H,0,-1.235
 75,-2.14038179,1.\H,0,1.23575,-2.14038179,1.\Cl,0,0.,0.,4.2\H,0,0.,0.,
 2.9253\\Version=ES64L-G16RevC.01\State=1-A1\HF=-691.1345208\RMSD=4.945

 Normal termination of Gaussian 16 at Wed Apr  9 02:15:59 2025.
