 Gaussian 16, Revision C.01,

 ----------------------------------------------------------------------
 #t hf aug-cc-pvdz symm=none int=(grid=ultrafine) guess=(read,tcheck) s
 table=(opt,rrhf)
 ----------------------------------------------------------------------
 -----
 title
 -----
 Symbolic Z-matrix:
 Charge =  0 Multiplicity = 1

 SCF Done:  E(RHF) =  -521.946528388     A.U. after   13 cycles
 Normal termination of Gaussian 16 at Wed Apr  9 02:15:40 2025.
 Gaussian 16:  ES64L-G16RevC.01  3-Jul-2019

 ----------------------------------------------------------------------
 #t hf aug-cc-pvdz iop(5/13=1,5/36=2,99/5=2) pseudo=read geom=check gue
 ss=(read,tcheck) scf=(maxcycle=1)
 ----------------------------------------------------------------------
 -----
 title
 -----
 Structure from the checkpoint file:  "BzDC215_157_mol1.chk"
 Charge =  0 Multiplicity = 1

                         Standard orientation:
 ---------------------------------------------------------------------
 Center     Atomic      Atomic             Coordinates (Angstroms)
 Number     Number       Type             X           Y           Z
 ---------------------------------------------------------------------
      1          6           0       -1.214963   -1.396121    0.021047
      2          6           0       -1.235401   -0.714714   -1.192023
      3          6           0       -1.250478    0.676609   -1.208320
      4          6           0       -1.245117    1.386525   -0.011548
      5          6           0       -1.224679    0.705117    1.201522
      6          6           0       -1.209602   -0.686206    1.217819
      7          1           0       -1.203261   -2.475984    0.033696
      8          1           0       -1.239561   -1.265708   -2.120886
      9          1           0       -1.266340    1.205477   -2.149833
     10          1           0       -1.256819    2.466387   -0.024197
     11          1           0       -1.220518    1.256111    2.130386
     12          1           0       -1.193739   -1.215074    2.159332
     13         14           0        2.869485    0.039106   -0.039657
     14          1           0        1.396255    0.023328   -0.023699
     15          1           0        3.366161   -1.166723   -0.725366
     16          1           0        3.345509    1.433323   -0.061247
     17          1           0        3.380964   -0.635884    1.166031
 ---------------------------------------------------------------------

 SCF Done:  E(RHF) =  -522.225414944     A.U. after    2 cycles

 The electronic state is 1-A.
 Alpha  occ. eigenvalues --  -69.51838 -11.24376 -11.24343 -11.24336 -11.24262
 Alpha  occ. eigenvalues --  -11.24235 -11.24228  -6.19052  -3.94488  -3.94424
 Alpha  occ. eigenvalues --   -3.94412  -1.15550  -1.01837  -1.01835  -0.83406
 Alpha  occ. eigenvalues --   -0.83405  -0.74956  -0.72543  -0.65192  -0.63900
 Alpha  occ. eigenvalues --   -0.60223  -0.60220  -0.52476  -0.51525  -0.50741
 Alpha  occ. eigenvalues --   -0.50739  -0.47082  -0.43324  -0.34765  -0.34753
 Alpha virt. eigenvalues --    0.03403   0.03605   0.03682   0.04264   0.05225
 Alpha virt. eigenvalues --    0.05267   0.06761   0.06991   0.07260   0.07856
 Alpha virt. eigenvalues --    0.09498   0.09879   0.11142   0.11313   0.12108

 Mulliken charges:
               1
     1  C    0.215810
     2  C    0.283657
     3  C    0.219275
     4  C    0.241991
     5  C    0.246994
     6  C    0.279562
     7  H   -0.251076
     8  H   -0.255645
     9  H   -0.246586
    10  H   -0.254562
    11  H   -0.252008
    12  H   -0.254420
    13  Si   0.529173
    14  H   -0.006706
    15  H   -0.124673
    16  H   -0.159519
    17  H   -0.211269
 Sum of Mulliken charges =   0.00000

 Dipole moment (field-independent basis, Debye):
    X=             -0.3335    Y=              0.5045    Z=             -0.4714  Tot=              0.7668

 Test job not archived.
 1\1\GINC-SE229\SP\RHF\Aug-CC-pVDZ\C6H10Si1\OHZDE\09-Apr-2025\0\\#t hf
 aug-cc-pvdz iop(5/13=1,5/36=2,99/5=2) pseudo=read geom=check guess=(re
 ad,tcheck) scf=(maxcycle=1)\\title\\0,1\C,0,1.3915,0.,1.\C,0,0.69575,1
 .20507435,1.\C,0,-0.69575,1.20507435,1.\C,0,-1.3915,0.,1.\C,0,-0.69575
 ,-1.20507435,1.\C,0,0.69575,-1.20507435,1.\H,0,2.4715,0.,1.\H,0,1.2357
 5,2.14038179,1.\H,0,-1.23575,2.14038179,1.\H,0,-2.4715,0.,1.\H,0,-1.23
 575,-2.14038179,1.\H,0,1.23575,-2.14038179,1.\Si,0,0.,0.,5.1\H,0,0.,0.
 ,3.6266\H,0,1.20302606,0.69456742,5.59113333\H,0,-1.38913484,0.,5.5911

 Normal termination of Gaussian 16 at Wed Apr  9 02:15:48 2025.
