 Gaussian 16, Revision C.01,

 ----------------------------------------------------------------------
 #t hf aug-cc-pvdz symm=none int=(grid=ultrafine) guess=(read,tcheck) s
 table=(opt,rrhf)
 ----------------------------------------------------------------------
 -----
 title
 -----
 Symbolic Z-matrix:
 Charge =  0 Multiplicity = 1

 SCF Done:  E(RHF) =  -342.450977231     A.U. after   11 cycles
 Normal termination of Gaussian 16 at Wed Apr  9 02:13:27 2025.
 Gaussian 16:  ES64L-G16RevC.01  3-Jul-2019

 ----------------------------------------------------------------------
 #t hf aug-cc-pvdz iop(5/13=1,5/36=2,99/5=2) pseudo=read geom=check gue
 ss=(read,tcheck) scf=(maxcycle=1)
 ----------------------------------------------------------------------
 -----
 title
 -----
 Structure from the checkpoint file:  "BzDC215_132_mol3.chk"
 Charge =  0 Multiplicity = 1

                         Standard orientation:
 ---------------------------------------------------------------------
 Center     Atomic      Atomic             Coordinates (Angstroms)
 Number     Number       Type             X           Y           Z
 ---------------------------------------------------------------------
      1         15           0       -0.049647   -0.101153   -0.068225
      2          1           0        1.090677   -0.156388    0.761035
      3          1           0       -1.060538    0.620091    0.601827
      4          1           0        0.714570    1.053597   -0.339492
 ---------------------------------------------------------------------

 SCF Done:  E(RHF) =  -342.498615901     A.U. after    2 cycles

 The electronic state is 1-A.
 Alpha  occ. eigenvalues --  -84.27471  -6.74719  -4.27209  -4.26561  -4.26241
 Alpha  occ. eigenvalues --   -0.87759  -0.54503  -0.45693  -0.36644
 Alpha virt. eigenvalues --    0.03684   0.06587   0.07558   0.08995   0.10331
 Alpha virt. eigenvalues --    0.10574   0.16936   0.19802   0.22800   0.24092
 Alpha virt. eigenvalues --    0.26783   0.27143   0.37382   0.38538   0.41357

 Mulliken charges:
               1
     1  P   -0.718008
     2  H    0.194577
     3  H    0.398598
     4  H    0.124832
 Sum of Mulliken charges =  -0.00000

 Dipole moment (field-independent basis, Debye):
    X=             -0.1347    Y=              0.2078    Z=              0.4317  Tot=              0.4977

 Test job not archived.
 1\1\GINC-SE366\SP\RHF\Aug-CC-pVDZ\H3P1\OHZDE\09-Apr-2025\0\\#t hf aug-
 cc-pvdz iop(5/13=1,5/36=2,99/5=2) pseudo=read geom=check guess=(read,t
 check) scf=(maxcycle=1)\\title\\0,1\P,0,0.,0.,5.05\H,0,0.,0.,3.63895\H
 ,0,-1.19800816,0.59336739,5.50139084\H,0,-0.64201064,-1.18673478,4.637
 02904\\Version=ES64L-G16RevC.01\State=1-A\HF=-342.4986159\RMSD=4.122e-
 02\Dipole=-0.1602584,0.0988148,-0.053801\Quadrupole=-0.6398728,0.35576
 09,0.2841118,-0.1271701,-0.8736254,0.4451981\PG=C01 [X(H3P1)]\\@

 Normal termination of Gaussian 16 at Wed Apr  9 02:13:28 2025.
