 Gaussian 16, Revision C.01,

 ----------------------------------------------------------------------
 #t hf aug-cc-pvdz symm=none int=(grid=ultrafine) guess=(read,tcheck) s
 table=(opt,rrhf)
 ----------------------------------------------------------------------
 -----
 title
 -----
 Symbolic Z-matrix:
 Charge =  0 Multiplicity = 1

 SCF Done:  E(RHF) =  -690.821522277     A.U. after   11 cycles

 1\1\GINC-SE116\Stability\RHF\Aug-CC-pVDZ\C6H7Cl1\OHZDE\09-Apr-2025\0\\
 #t hf aug-cc-pvdz symm=none int=(grid=ultrafine) guess=(read,tcheck) s
 table=(opt,rrhf)\\title\\0,1\C,0,1.3915,0.,1.\C,0,0.69575,1.20507435,1
 .\C,0,-0.69575,1.20507435,1.\C,0,-1.3915,0.,1.\C,0,-0.69575,-1.2050743
 5,1.\C,0,0.69575,-1.20507435,1.\H,0,2.4715,0.,1.\H,0,1.23575,2.1403817
 9,1.\H,0,-1.23575,2.14038179,1.\H,0,-2.4715,0.,1.\H,0,-1.23575,-2.1403
 8179,1.\H,0,1.23575,-2.14038179,1.\Cl,0,0.,0.,4.5\H,0,0.,0.,3.2253\\Ve
 rsion=ES64L-G16RevC.01\HF=-690.8215223\RMSD=7.628e-09\Dipole=0.,0.,-0.

 Normal termination of Gaussian 16 at Wed Apr  9 02:16:27 2025.
 Gaussian 16:  ES64L-G16RevC.01  3-Jul-2019

 ----------------------------------------------------------------------
 #t hf aug-cc-pvdz iop(5/13=1,5/36=2,99/5=2) pseudo=read geom=check gue
 ss=(read,tcheck) scf=(maxcycle=1)
 ----------------------------------------------------------------------
 -----
 title
 -----
 Structure from the checkpoint file:  "BzDC215_93_mol1.chk"
 Charge =  0 Multiplicity = 1

                         Standard orientation:
 ---------------------------------------------------------------------
 Center     Atomic      Atomic             Coordinates (Angstroms)
 Number     Number       Type             X           Y           Z
 ---------------------------------------------------------------------
      1          6           0        0.000000    1.391500   -1.028755
      2          6           0       -1.205074    0.695750   -1.028755
      3          6           0       -1.205074   -0.695750   -1.028755
      4          6           0       -0.000000   -1.391500   -1.028755
      5          6           0        1.205074   -0.695750   -1.028755
      6          6           0        1.205074    0.695750   -1.028755
      7          1           0        0.000000    2.471500   -1.028755
      8          1           0       -2.140382    1.235750   -1.028755
      9          1           0       -2.140382   -1.235750   -1.028755
     10          1           0       -0.000000   -2.471500   -1.028755
     11          1           0        2.140382   -1.235750   -1.028755
     12          1           0        2.140382    1.235750   -1.028755
     13         17           0        0.000000    0.000000    2.471245
     14          1           0        0.000000    0.000000    1.196545
 ---------------------------------------------------------------------

 SCF Done:  E(RHF) =  -691.141362477     A.U. after    2 cycles

 The electronic state is 1-A1.
 Alpha  occ. eigenvalues -- -105.55933 -11.25533 -11.25506 -11.25506 -11.25415
 Alpha  occ. eigenvalues --  -11.25399 -11.25399 -10.60753  -7.77748  -7.77356
 Alpha  occ. eigenvalues --   -7.77356  -1.16948  -1.05419  -1.03079  -1.03079
 Alpha  occ. eigenvalues --   -0.84529  -0.84529  -0.73695  -0.66188  -0.65047
 Alpha  occ. eigenvalues --   -0.61903  -0.61349  -0.61349  -0.52094  -0.51805
 Alpha  occ. eigenvalues --   -0.51805  -0.46628  -0.46628  -0.36058  -0.36058
 Alpha virt. eigenvalues --    0.03413   0.03564   0.03564   0.05107   0.05107
 Alpha virt. eigenvalues --    0.06989   0.07748   0.09320   0.09320   0.11786
 Alpha virt. eigenvalues --    0.13099   0.13099   0.14546   0.14637   0.14730

 Mulliken charges:
               1
     1  C    0.204560
     2  C    0.204560
     3  C    0.204560
     4  C    0.204560
     5  C    0.204560
     6  C    0.204560
     7  H   -0.228819
     8  H   -0.228819
     9  H   -0.228819
    10  H   -0.228819
    11  H   -0.228819
    12  H   -0.228819
    13  Cl  -0.188182
    14  H    0.333735
 Sum of Mulliken charges =  -0.00000

 Dipole moment (field-independent basis, Debye):
    X=              0.0000    Y=             -0.0000    Z=             -1.9793  Tot=              1.9793

 Test job not archived.
 1\1\GINC-SE116\SP\RHF\Aug-CC-pVDZ\C6H7Cl1\OHZDE\09-Apr-2025\0\\#t hf a
 ug-cc-pvdz iop(5/13=1,5/36=2,99/5=2) pseudo=read geom=check guess=(rea
 d,tcheck) scf=(maxcycle=1)\\title\\0,1\C,0,1.3915,0.,1.\C,0,0.69575,1.
 20507435,1.\C,0,-0.69575,1.20507435,1.\C,0,-1.3915,0.,1.\C,0,-0.69575,
 -1.20507435,1.\C,0,0.69575,-1.20507435,1.\H,0,2.4715,0.,1.\H,0,1.23575
 ,2.14038179,1.\H,0,-1.23575,2.14038179,1.\H,0,-2.4715,0.,1.\H,0,-1.235
 75,-2.14038179,1.\H,0,1.23575,-2.14038179,1.\Cl,0,0.,0.,4.5\H,0,0.,0.,
 3.2253\\Version=ES64L-G16RevC.01\State=1-A1\HF=-691.1413625\RMSD=4.937

 Normal termination of Gaussian 16 at Wed Apr  9 02:16:32 2025.
