 Gaussian 16, Revision C.01,

 ----------------------------------------------------------------------
 #t hf aug-cc-pvdz symm=none int=(grid=ultrafine) guess=(read,tcheck) s
 table=(opt,rrhf)
 ----------------------------------------------------------------------
 -----
 title
 -----
 Symbolic Z-matrix:
 Charge =  0 Multiplicity = 1

 SCF Done:  E(RHF) =  -690.821999243     A.U. after   11 cycles

 1\1\GINC-SE024\Stability\RHF\Aug-CC-pVDZ\C6H7Cl1\OHZDE\09-Apr-2025\0\\
 #t hf aug-cc-pvdz symm=none int=(grid=ultrafine) guess=(read,tcheck) s
 table=(opt,rrhf)\\title\\0,1\C,0,1.3915,0.,1.\C,0,0.69575,1.20507435,1
 .\C,0,-0.69575,1.20507435,1.\C,0,-1.3915,0.,1.\C,0,-0.69575,-1.2050743
 5,1.\C,0,0.69575,-1.20507435,1.\H,0,2.4715,0.,1.\H,0,1.23575,2.1403817
 9,1.\H,0,-1.23575,2.14038179,1.\H,0,-2.4715,0.,1.\H,0,-1.23575,-2.1403
 8179,1.\H,0,1.23575,-2.14038179,1.\Cl,0,0.,0.,7.\H,0,0.,0.,5.7253\\Ver
 sion=ES64L-G16RevC.01\HF=-690.8219992\RMSD=8.806e-09\Dipole=0.,0.,-0.5

 Normal termination of Gaussian 16 at Wed Apr  9 02:13:19 2025.
 Gaussian 16:  ES64L-G16RevC.01  3-Jul-2019

 ----------------------------------------------------------------------
 #t hf aug-cc-pvdz iop(5/13=1,5/36=2,99/5=2) pseudo=read geom=check gue
 ss=(read,tcheck) scf=(maxcycle=1)
 ----------------------------------------------------------------------
 -----
 title
 -----
 Structure from the checkpoint file:  "BzDC215_106_mol1.chk"
 Charge =  0 Multiplicity = 1

                         Standard orientation:
 ---------------------------------------------------------------------
 Center     Atomic      Atomic             Coordinates (Angstroms)
 Number     Number       Type             X           Y           Z
 ---------------------------------------------------------------------
      1          6           0        0.000000    1.391500   -1.778755
      2          6           0       -1.205074    0.695750   -1.778755
      3          6           0       -1.205074   -0.695750   -1.778755
      4          6           0       -0.000000   -1.391500   -1.778755
      5          6           0        1.205074   -0.695750   -1.778755
      6          6           0        1.205074    0.695750   -1.778755
      7          1           0        0.000000    2.471500   -1.778755
      8          1           0       -2.140382    1.235750   -1.778755
      9          1           0       -2.140382   -1.235750   -1.778755
     10          1           0       -0.000000   -2.471500   -1.778755
     11          1           0        2.140382   -1.235750   -1.778755
     12          1           0        2.140382    1.235750   -1.778755
     13         17           0        0.000000    0.000000    4.221245
     14          1           0        0.000000    0.000000    2.946545
 ---------------------------------------------------------------------

 SCF Done:  E(RHF) =  -691.142040800     A.U. after    2 cycles

 The electronic state is 1-A1.
 Alpha  occ. eigenvalues -- -105.57961 -11.24730 -11.24700 -11.24700 -11.24612
 Alpha  occ. eigenvalues --  -11.24595 -11.24595 -10.62739  -7.79732  -7.79321
 Alpha  occ. eigenvalues --   -7.79321  -1.15913  -1.07165  -1.02216  -1.02216
 Alpha  occ. eigenvalues --   -0.83772  -0.83772  -0.72894  -0.65538  -0.64274
 Alpha  occ. eigenvalues --   -0.62930  -0.60587  -0.60587  -0.51688  -0.51101
 Alpha  occ. eigenvalues --   -0.51101  -0.48236  -0.48236  -0.35110  -0.35110
 Alpha virt. eigenvalues --    0.03274   0.03559   0.03559   0.05025   0.05111
 Alpha virt. eigenvalues --    0.05111   0.07731   0.09973   0.09973   0.11273
 Alpha virt. eigenvalues --    0.12353   0.12353   0.13572   0.14263   0.14263

 Mulliken charges:
               1
     1  C    0.220097
     2  C    0.220097
     3  C    0.220097
     4  C    0.220097
     5  C    0.220097
     6  C    0.220097
     7  H   -0.219744
     8  H   -0.219744
     9  H   -0.219744
    10  H   -0.219744
    11  H   -0.219744
    12  H   -0.219744
    13  Cl  -0.153183
    14  H    0.151065
 Sum of Mulliken charges =  -0.00000

 Dipole moment (field-independent basis, Debye):
    X=             -0.0000    Y=              0.0000    Z=             -1.4238  Tot=              1.4238

 Test job not archived.
 1\1\GINC-SE024\SP\RHF\Aug-CC-pVDZ\C6H7Cl1\OHZDE\09-Apr-2025\0\\#t hf a
 ug-cc-pvdz iop(5/13=1,5/36=2,99/5=2) pseudo=read geom=check guess=(rea
 d,tcheck) scf=(maxcycle=1)\\title\\0,1\C,0,1.3915,0.,1.\C,0,0.69575,1.
 20507435,1.\C,0,-0.69575,1.20507435,1.\C,0,-1.3915,0.,1.\C,0,-0.69575,
 -1.20507435,1.\C,0,0.69575,-1.20507435,1.\H,0,2.4715,0.,1.\H,0,1.23575
 ,2.14038179,1.\H,0,-1.23575,2.14038179,1.\H,0,-2.4715,0.,1.\H,0,-1.235
 75,-2.14038179,1.\H,0,1.23575,-2.14038179,1.\Cl,0,0.,0.,7.\H,0,0.,0.,5
 .7253\\Version=ES64L-G16RevC.01\State=1-A1\HF=-691.1420408\RMSD=4.915e

 Normal termination of Gaussian 16 at Wed Apr  9 02:13:23 2025.
