 Gaussian 16, Revision C.01,

 ----------------------------------------------------------------------
 #t hf aug-cc-pvdz symm=none int=(grid=ultrafine) guess=(read,tcheck) s
 table=(opt,rrhf)
 ----------------------------------------------------------------------
 -----
 title
 -----
 Symbolic Z-matrix:
 Charge =  0 Multiplicity = 1

 SCF Done:  E(RHF) =  -629.410632549     A.U. after   13 cycles
 Normal termination of Gaussian 16 at Wed Apr  9 02:13:30 2025.
 Gaussian 16:  ES64L-G16RevC.01  3-Jul-2019

 ----------------------------------------------------------------------
 #t hf aug-cc-pvdz iop(5/13=1,5/36=2,99/5=2) pseudo=read geom=check gue
 ss=(read,tcheck) scf=(maxcycle=1)
 ----------------------------------------------------------------------
 -----
 title
 -----
 Structure from the checkpoint file:  "BzDC215_109_mol1.chk"
 Charge =  0 Multiplicity = 1

                         Standard orientation:
 ---------------------------------------------------------------------
 Center     Atomic      Atomic             Coordinates (Angstroms)
 Number     Number       Type             X           Y           Z
 ---------------------------------------------------------------------
      1          6           0       -0.933246    1.406946   -0.000000
      2          6           0       -0.933246    0.711196    1.205074
      3          6           0       -0.933246   -0.680304    1.205074
      4          6           0       -0.933246   -1.376054    0.000000
      5          6           0       -0.933246   -0.680304   -1.205074
      6          6           0       -0.933246    0.711196   -1.205074
      7          1           0       -0.933246    2.486946   -0.000000
      8          1           0       -0.933246    1.251196    2.140382
      9          1           0       -0.933246   -1.220304    2.140382
     10          1           0       -0.933246   -2.456054    0.000000
     11          1           0       -0.933246   -1.220304   -2.140382
     12          1           0       -0.933246    1.251196   -2.140382
     13         16           0        2.266754    0.015446   -0.000000
     14          1           0        1.945000   -1.280818    0.000000
     15          1           0        0.983279    0.384932   -0.000000
 ---------------------------------------------------------------------

 SCF Done:  E(RHF) =  -629.715629607     A.U. after    2 cycles

 The electronic state is 1-A'.
 Alpha  occ. eigenvalues --  -93.93145 -11.25364 -11.25325 -11.25293 -11.25216
 Alpha  occ. eigenvalues --  -11.25212 -11.25186  -8.21351  -6.19235  -6.19119
 Alpha  occ. eigenvalues --   -6.18877  -1.16979  -1.03013  -1.02884  -0.99683
 Alpha  occ. eigenvalues --   -0.84399  -0.84387  -0.73625  -0.66072  -0.64888
 Alpha  occ. eigenvalues --   -0.61308  -0.61179  -0.59232  -0.53112  -0.51690
 Alpha  occ. eigenvalues --   -0.51647  -0.46279  -0.38334  -0.35989  -0.34349
 Alpha virt. eigenvalues --    0.03282   0.03486   0.03576   0.05099   0.05132
 Alpha virt. eigenvalues --    0.05785   0.07743   0.08077   0.09053   0.09343
 Alpha virt. eigenvalues --    0.11403   0.13034   0.13126   0.13784   0.14420

 Mulliken charges:
               1
     1  C    0.103518
     2  C    0.203441
     3  C    0.295343
     4  C    0.131611
     5  C    0.295343
     6  C    0.203441
     7  H   -0.227072
     8  H   -0.222989
     9  H   -0.239270
    10  H   -0.249673
    11  H   -0.239270
    12  H   -0.222989
    13  S   -0.729321
    14  H    0.283501
    15  H    0.614385
 Sum of Mulliken charges =  -0.00000

 Dipole moment (field-independent basis, Debye):
    X=             -1.8947    Y=             -0.5267    Z=             -0.0000  Tot=              1.9666

 Test job not archived.
 1\1\GINC-SE108\SP\RHF\Aug-CC-pVDZ\C6H8S1\OHZDE\09-Apr-2025\0\\#t hf au
 g-cc-pvdz iop(5/13=1,5/36=2,99/5=2) pseudo=read geom=check guess=(read
 ,tcheck) scf=(maxcycle=1)\\title\\0,1\C,0,1.3915,0.,1.\C,0,0.69575,1.2
 0507435,1.\C,0,-0.69575,1.20507435,1.\C,0,-1.3915,0.,1.\C,0,-0.69575,-
 1.20507435,1.\C,0,0.69575,-1.20507435,1.\H,0,2.4715,0.,1.\H,0,1.23575,
 2.14038179,1.\H,0,-1.23575,2.14038179,1.\H,0,-2.4715,0.,1.\H,0,-1.2357
 5,-2.14038179,1.\H,0,1.23575,-2.14038179,1.\S,0,0.,0.,4.2\H,0,-1.29626
 462,0.,3.87824638\H,0,0.36948551,0.,2.9165251\\Version=ES64L-G16RevC.0

 Normal termination of Gaussian 16 at Wed Apr  9 02:13:35 2025.
