 Gaussian 16, Revision C.01,

 ----------------------------------------------------------------------
 #t hf aug-cc-pvdz symm=none int=(grid=ultrafine) guess=(read,tcheck) s
 table=(opt,rrhf)
 ----------------------------------------------------------------------
 -----
 title
 -----
 Symbolic Z-matrix:
 Charge =  0 Multiplicity = 1

 SCF Done:  E(RHF) =  -629.415529788     A.U. after   13 cycles
 Normal termination of Gaussian 16 at Wed Apr  9 02:13:31 2025.
 Gaussian 16:  ES64L-G16RevC.01  3-Jul-2019

 ----------------------------------------------------------------------
 #t hf aug-cc-pvdz iop(5/13=1,5/36=2,99/5=2) pseudo=read geom=check gue
 ss=(read,tcheck) scf=(maxcycle=1)
 ----------------------------------------------------------------------
 -----
 title
 -----
 Structure from the checkpoint file:  "BzDC215_110_mol1.chk"
 Charge =  0 Multiplicity = 1

                         Standard orientation:
 ---------------------------------------------------------------------
 Center     Atomic      Atomic             Coordinates (Angstroms)
 Number     Number       Type             X           Y           Z
 ---------------------------------------------------------------------
      1          6           0       -0.963246    1.406946    0.000000
      2          6           0       -0.963246    0.711196    1.205074
      3          6           0       -0.963246   -0.680304    1.205074
      4          6           0       -0.963246   -1.376054    0.000000
      5          6           0       -0.963246   -0.680304   -1.205074
      6          6           0       -0.963246    0.711196   -1.205074
      7          1           0       -0.963246    2.486946    0.000000
      8          1           0       -0.963246    1.251196    2.140382
      9          1           0       -0.963246   -1.220304    2.140382
     10          1           0       -0.963246   -2.456054    0.000000
     11          1           0       -0.963246   -1.220304   -2.140382
     12          1           0       -0.963246    1.251196   -2.140382
     13         16           0        2.336754    0.015446   -0.000000
     14          1           0        2.015000   -1.280818   -0.000000
     15          1           0        1.053279    0.384932   -0.000000
 ---------------------------------------------------------------------

 SCF Done:  E(RHF) =  -629.720216606     A.U. after    2 cycles

 The electronic state is 1-A'.
 Alpha  occ. eigenvalues --  -93.93489 -11.25299 -11.25270 -11.25238 -11.25161
 Alpha  occ. eigenvalues --  -11.25158 -11.25131  -8.21673  -6.19557  -6.19442
 Alpha  occ. eigenvalues --   -6.19198  -1.16808  -1.02910  -1.02803  -0.99868
 Alpha  occ. eigenvalues --   -0.84328  -0.84317  -0.73524  -0.66015  -0.64823
 Alpha  occ. eigenvalues --   -0.61205  -0.61107  -0.58994  -0.53081  -0.51626
 Alpha  occ. eigenvalues --   -0.51585  -0.46858  -0.38161  -0.35917  -0.34621
 Alpha virt. eigenvalues --    0.03288   0.03497   0.03587   0.05104   0.05138
 Alpha virt. eigenvalues --    0.05736   0.07746   0.08054   0.09156   0.09416
 Alpha virt. eigenvalues --    0.11506   0.13030   0.13055   0.13789   0.14436

 Mulliken charges:
               1
     1  C    0.123393
     2  C    0.202982
     3  C    0.296945
     4  C    0.132332
     5  C    0.296945
     6  C    0.202982
     7  H   -0.227199
     8  H   -0.224448
     9  H   -0.241015
    10  H   -0.249304
    11  H   -0.241015
    12  H   -0.224448
    13  S   -0.703175
    14  H    0.277140
    15  H    0.577884
 Sum of Mulliken charges =  -0.00000

 Dipole moment (field-independent basis, Debye):
    X=             -1.8277    Y=             -0.5336    Z=             -0.0000  Tot=              1.9040

 Test job not archived.
 1\1\GINC-SE159\SP\RHF\Aug-CC-pVDZ\C6H8S1\OHZDE\09-Apr-2025\0\\#t hf au
 g-cc-pvdz iop(5/13=1,5/36=2,99/5=2) pseudo=read geom=check guess=(read
 ,tcheck) scf=(maxcycle=1)\\title\\0,1\C,0,1.3915,0.,1.\C,0,0.69575,1.2
 0507435,1.\C,0,-0.69575,1.20507435,1.\C,0,-1.3915,0.,1.\C,0,-0.69575,-
 1.20507435,1.\C,0,0.69575,-1.20507435,1.\H,0,2.4715,0.,1.\H,0,1.23575,
 2.14038179,1.\H,0,-1.23575,2.14038179,1.\H,0,-2.4715,0.,1.\H,0,-1.2357
 5,-2.14038179,1.\H,0,1.23575,-2.14038179,1.\S,0,0.,0.,4.3\H,0,-1.29626
 462,0.,3.97824638\H,0,0.36948551,0.,3.0165251\\Version=ES64L-G16RevC.0

 Normal termination of Gaussian 16 at Wed Apr  9 02:13:36 2025.
