 Gaussian 16, Revision C.01,

 ----------------------------------------------------------------------
 #t hf aug-cc-pvdz symm=none int=(grid=ultrafine) guess=(read,tcheck) s
 table=(opt,rrhf)
 ----------------------------------------------------------------------
 -----
 title
 -----
 Symbolic Z-matrix:
 Charge =  0 Multiplicity = 1

 SCF Done:  E(RHF) =  -460.090772818     A.U. after    9 cycles
 Normal termination of Gaussian 16 at Wed Apr  9 02:17:00 2025.
 Gaussian 16:  ES64L-G16RevC.01  3-Jul-2019

 ----------------------------------------------------------------------
 #t hf aug-cc-pvdz iop(5/13=1,5/36=2,99/5=2) pseudo=read geom=check gue
 ss=(read,tcheck) scf=(maxcycle=1)
 ----------------------------------------------------------------------
 -----
 title
 -----
 Structure from the checkpoint file:  "CARBHB12_9_mol2.chk"
 Charge =  0 Multiplicity = 1

                         Standard orientation:
 ---------------------------------------------------------------------
 Center     Atomic      Atomic             Coordinates (Angstroms)
 Number     Number       Type             X           Y           Z
 ---------------------------------------------------------------------
      1         17           0        0.000000    0.000000    0.074069
      2          1           0        0.000000    0.000000   -1.259180
 ---------------------------------------------------------------------

 SCF Done:  E(RHF) =  -460.168114605     A.U. after    2 cycles

 The electronic state is 1-SG.
 Alpha  occ. eigenvalues -- -105.58699 -10.63333  -7.80296  -7.79909  -7.79909
 Alpha  occ. eigenvalues --   -1.06537  -0.62233  -0.48536  -0.48536
 Alpha virt. eigenvalues --    0.03346   0.12751   0.14044   0.14044   0.16436
 Alpha virt. eigenvalues --    0.21285   0.30898   0.30898   0.45591   0.45591
 Alpha virt. eigenvalues --    0.47576   0.57740   0.59030   0.59030   0.88900

 Mulliken charges:
               1
     1  Cl  -0.214204
     2  H    0.214204
 Sum of Mulliken charges =  -0.00000

 Dipole moment (field-independent basis, Debye):
    X=             -0.0000    Y=             -0.0000    Z=             -1.3421  Tot=              1.3421

 Test job not archived.
 1\1\GINC-SE116\SP\RHF\Aug-CC-pVDZ\Cl1H1\OHZDE\09-Apr-2025\0\\#t hf aug
 -cc-pvdz iop(5/13=1,5/36=2,99/5=2) pseudo=read geom=check guess=(read,
 tcheck) scf=(maxcycle=1)\\title\\0,1\Cl,0,0.,0.,-0.6666246\H,0,0.,0.,0
 .6666246\\Version=ES64L-G16RevC.01\State=1-SG\HF=-460.1681146\RMSD=4.2
 28e-03\Dipole=0.,0.,0.5280039\Quadrupole=-1.0212339,-1.0212339,2.04246
 78,0.,0.,0.\PG=C*V [C*(H1Cl1)]\\@

 Normal termination of Gaussian 16 at Wed Apr  9 02:17:01 2025.
