 Gaussian 16, Revision C.01,

 ----------------------------------------------------------------------
 #t hf aug-cc-pvdz symm=none int=(grid=ultrafine) guess=(read,tcheck) s
 table=(opt,rrhf)
 ----------------------------------------------------------------------
 -----
 title
 -----
 Symbolic Z-matrix:
 Charge =  0 Multiplicity = 1

 SCF Done:  E(RHF) =  -750.114002699     A.U. after   10 cycles
 Normal termination of Gaussian 16 at Wed Apr  9 02:16:05 2025.
 Gaussian 16:  ES64L-G16RevC.01  3-Jul-2019

 ----------------------------------------------------------------------
 #t hf aug-cc-pvdz iop(5/13=1,5/36=2,99/5=2) pseudo=read geom=check gue
 ss=(read,tcheck) scf=(maxcycle=1)
 ----------------------------------------------------------------------
 -----
 title
 -----
 Structure from the checkpoint file:  "CARBHB12_11_mol1.chk"
 Charge =  0 Multiplicity = 1

                         Standard orientation:
 ---------------------------------------------------------------------
 Center     Atomic      Atomic             Coordinates (Angstroms)
 Number     Number       Type             X           Y           Z
 ---------------------------------------------------------------------
      1         17           0        0.000000    0.000000    1.974710
      2          1           0        0.000000    0.000000    0.682190
      3         14           0       -0.000000    0.000000   -2.012416
      4          1           0       -0.000000    1.094704   -3.039219
      5          1           0       -0.000000   -1.094704   -3.039219
 ---------------------------------------------------------------------

 SCF Done:  E(RHF) =  -750.221338917     A.U. after    2 cycles

 The electronic state is 1-A1.
 Alpha  occ. eigenvalues -- -105.56257 -69.57199 -10.61048  -7.78026  -7.77648
 Alpha  occ. eigenvalues --   -7.77648  -6.23931  -3.99105  -3.98868  -3.98756
 Alpha  occ. eigenvalues --   -1.05373  -0.71870  -0.61383  -0.48638  -0.46801
 Alpha  occ. eigenvalues --   -0.46788  -0.36764
 Alpha virt. eigenvalues --   -0.02185   0.03891   0.05664   0.06459   0.08131
 Alpha virt. eigenvalues --    0.08154   0.08538   0.13243   0.15225   0.15739
 Alpha virt. eigenvalues --    0.16424   0.16948   0.17656   0.20204   0.21304

 Mulliken charges:
               1
     1  Cl  -0.202012
     2  H    0.219463
     3  Si   0.370971
     4  H   -0.194211
     5  H   -0.194211
 Sum of Mulliken charges =   0.00000

 Dipole moment (field-independent basis, Debye):
    X=              0.0000    Y=             -0.0000    Z=             -2.6030  Tot=              2.6030

 Test job not archived.
 1\1\GINC-SE127\SP\RHF\Aug-CC-pVDZ\Cl1H3Si1\OHZDE\09-Apr-2025\0\\#t hf
 aug-cc-pvdz iop(5/13=1,5/36=2,99/5=2) pseudo=read geom=check guess=(re
 ad,tcheck) scf=(maxcycle=1)\\title\\0,1\Cl,0,0.,0.,-3.0615009\H,0,0.,0
 .,-1.7689806\Si,0,0.,0.,0.9256255\H,0,1.0947042,0.,1.9524281\H,0,-1.09
 47042,0.,1.9524281\\Version=ES64L-G16RevC.01\State=1-A1\HF=-750.221338
 9\RMSD=4.011e-03\Dipole=0.,0.,1.0240918\Quadrupole=-0.6831423,2.147759
 ,-1.4646167,0.,0.,0.\PG=C02V [C2(Si1H1Cl1),SGV(H2)]\\@

 Normal termination of Gaussian 16 at Wed Apr  9 02:16:07 2025.
