 Gaussian 16, Revision C.01,

 ----------------------------------------------------------------------
 #t hf aug-cc-pvdz symm=none int=(grid=ultrafine) guess=(read,tcheck) s
 table=(opt,rrhf)
 ----------------------------------------------------------------------
 -----
 title
 -----
 Symbolic Z-matrix:
 Charge =  0 Multiplicity = 1

 SCF Done:  E(RHF) =  -612.932047801     A.U. after   15 cycles
 Normal termination of Gaussian 16 at Wed Apr  9 02:16:34 2025.
 Gaussian 16:  ES64L-G16RevC.01  3-Jul-2019

 ----------------------------------------------------------------------
 #t hf aug-cc-pvdz iop(5/13=1,5/36=2,99/5=2) pseudo=read geom=check gue
 ss=(read,tcheck) scf=(maxcycle=1)
 ----------------------------------------------------------------------
 -----
 title
 -----
 Structure from the checkpoint file:  "CARBHB12_2_mol1.chk"
 Charge =  0 Multiplicity = 1

                         Standard orientation:
 ---------------------------------------------------------------------
 Center     Atomic      Atomic             Coordinates (Angstroms)
 Number     Number       Type             X           Y           Z
 ---------------------------------------------------------------------
      1          8           0       -2.914213   -0.346243    0.103595
      2          1           0       -1.952256   -0.229013    0.088802
      3          1           0       -3.127822   -0.678094   -0.768472
      4          6           0        0.064975    0.266890   -0.060715
      5         17           0        1.363075   -0.825936    0.008858
      6          6           0        0.523076    1.662658   -0.011220
      7          1           0        1.589759    1.875461   -0.106600
      8          1           0       -0.063841    2.244273   -0.727214
      9          1           0        0.167289    2.020954    0.965745
 ---------------------------------------------------------------------

 SCF Done:  E(RHF) =  -613.167144537     A.U. after    2 cycles

 The electronic state is 1-A.
 Alpha  occ. eigenvalues -- -105.60643 -20.51855 -11.35827 -11.27040 -10.65574
 Alpha  occ. eigenvalues --   -7.82487  -7.82167  -7.82058  -1.40252  -1.16491
 Alpha  occ. eigenvalues --   -1.02663  -0.78403  -0.67944  -0.64467  -0.61406
 Alpha  occ. eigenvalues --   -0.60642  -0.54796  -0.51742  -0.50538  -0.46272
 Alpha  occ. eigenvalues --   -0.39468
 Alpha virt. eigenvalues --    0.03213   0.03593   0.04728   0.05310   0.05947
 Alpha virt. eigenvalues --    0.07573   0.09897   0.10775   0.13674   0.13858
 Alpha virt. eigenvalues --    0.14452   0.16207   0.16896   0.17472   0.18159

 Mulliken charges:
               1
     1  O   -0.962168
     2  H    0.725117
     3  H    0.262781
     4  C   -0.336022
     5  Cl  -0.020516
     6  C   -0.306176
     7  H    0.150570
     8  H    0.217123
     9  H    0.269292
 Sum of Mulliken charges =  -0.00000

 Dipole moment (field-independent basis, Debye):
    X=              2.9623    Y=              1.8203    Z=             -1.2887  Tot=              3.7081

 Test job not archived.
 1\1\GINC-SE252\SP\RHF\Aug-CC-pVDZ\C2H5Cl1O1\OHZDE\09-Apr-2025\0\\#t hf
  aug-cc-pvdz iop(5/13=1,5/36=2,99/5=2) pseudo=read geom=check guess=(r
 ead,tcheck) scf=(maxcycle=1)\\title\\0,1\O,0,-2.6230507,0.0983053,-0.2
 620611\H,0,-1.6716484,0.0200216,-0.4294782\H,0,-2.8369391,0.9964234,-0
 .5148255\C,0,0.4073302,-0.0340636,-0.5409216\Cl,0,1.3208633,-0.1895449
 ,-1.9641069\C,0,1.2421153,-0.1696644,0.6612515\H,0,2.3287649,-0.180474
 2,0.5550829\H,0,0.9214309,0.5791287,1.3905426\H,0,0.9111337,-1.1201319
 ,1.1045163\\Version=ES64L-G16RevC.01\State=1-A\HF=-613.1671445\RMSD=6.

 Normal termination of Gaussian 16 at Wed Apr  9 02:16:37 2025.
