 Gaussian 16, Revision C.01,

 ----------------------------------------------------------------------
 #t hf aug-cc-pvdz symm=none int=(grid=ultrafine) guess=(read,tcheck) s
 table=(opt,rrhf)
 ----------------------------------------------------------------------
 -----
 title
 -----
 Symbolic Z-matrix:
 Charge =  0 Multiplicity = 1

 SCF Done:  E(RHF) =  -346.224761813     A.U. after   12 cycles

 1\1\GINC-SE108\Stability\RHF\Aug-CC-pVDZ\H5N1Si1\OHZDE\09-Apr-2025\0\\
 #t hf aug-cc-pvdz symm=none int=(grid=ultrafine) guess=(read,tcheck) s
 table=(opt,rrhf)\\title\\0,1\N,0,-2.021816,0.0384296,-0.1370857\H,0,-1
 .0569167,0.3421306,-0.1534744\H,0,-2.5889661,0.8736855,-0.1772062\H,0,
 -2.17994,-0.3748521,0.7710586\Si,0,1.9938584,0.0138474,-0.0502141\H,0,
 2.874327,-0.3713375,-1.2095769\H,0,2.9794534,-0.5219035,0.9564988\\Ver
 sion=ES64L-G16RevC.01\HF=-346.2247618\RMSD=2.698e-09\Dipole=0.3508123,
 0.3324379,0.447327\Quadrupole=-0.5941292,1.614723,-1.0205938,-0.309846

 Normal termination of Gaussian 16 at Wed Apr  9 02:17:00 2025.
 Gaussian 16:  ES64L-G16RevC.01  3-Jul-2019

 ----------------------------------------------------------------------
 #t hf aug-cc-pvdz iop(5/13=1,5/36=2,99/5=2) pseudo=read geom=check gue
 ss=(read,tcheck) scf=(maxcycle=1)
 ----------------------------------------------------------------------
 -----
 title
 -----
 Structure from the checkpoint file:  "CARBHB12_7_mol1.chk"
 Charge =  0 Multiplicity = 1

                         Standard orientation:
 ---------------------------------------------------------------------
 Center     Atomic      Atomic             Coordinates (Angstroms)
 Number     Number       Type             X           Y           Z
 ---------------------------------------------------------------------
      1          7           0        2.550283   -0.059699   -0.114198
      2          1           0        1.600150   -0.167568    0.216172
      3          1           0        3.154708   -0.321608    0.651959
      4          1           0        2.692414    0.928314   -0.269635
      5         14           0       -1.462046   -0.006819    0.065260
      6          1           0       -2.362914   -1.024639   -0.582963
      7          1           0       -2.467693    1.098862   -0.129784
 ---------------------------------------------------------------------

 SCF Done:  E(RHF) =  -346.316420676     A.U. after    2 cycles

 The electronic state is 1-A.
 Alpha  occ. eigenvalues --  -69.55933 -15.47661  -6.22619  -3.97775  -3.97545
 Alpha  occ. eigenvalues --   -3.97434  -1.13736  -0.70496  -0.65690  -0.65629
 Alpha  occ. eigenvalues --   -0.47115  -0.46284  -0.35404
 Alpha virt. eigenvalues --   -0.01174   0.03508   0.05125   0.05758   0.07123
 Alpha virt. eigenvalues --    0.07817   0.08942   0.09199   0.10743   0.14133
 Alpha virt. eigenvalues --    0.16506   0.17549   0.19094   0.20193   0.21169

 Mulliken charges:
               1
     1  N    0.030764
     2  H   -0.078037
     3  H    0.064682
     4  H    0.018600
     5  Si   0.358736
     6  H   -0.192229
     7  H   -0.202517
 Sum of Mulliken charges =   0.00000

 Dipole moment (field-independent basis, Debye):
    X=             -0.9099    Y=              0.8877    Z=              1.2052  Tot=              1.7517

 Test job not archived.
 1\1\GINC-SE108\SP\RHF\Aug-CC-pVDZ\H5N1Si1\OHZDE\09-Apr-2025\0\\#t hf a
 ug-cc-pvdz iop(5/13=1,5/36=2,99/5=2) pseudo=read geom=check guess=(rea
 d,tcheck) scf=(maxcycle=1)\\title\\0,1\N,0,-2.021816,0.0384296,-0.1370
 857\H,0,-1.0569167,0.3421306,-0.1534744\H,0,-2.5889661,0.8736855,-0.17
 72062\H,0,-2.17994,-0.3748521,0.7710586\Si,0,1.9938584,0.0138474,-0.05
 02141\H,0,2.874327,-0.3713375,-1.2095769\H,0,2.9794534,-0.5219035,0.95
 64988\\Version=ES64L-G16RevC.01\State=1-A\HF=-346.3164207\RMSD=6.546e-
 03\Dipole=0.375524,0.3436658,0.4645737\Quadrupole=-1.0818499,1.7838507

 Normal termination of Gaussian 16 at Wed Apr  9 02:17:02 2025.
