 Gaussian 16, Revision C.01,

 ----------------------------------------------------------------------
 #t hf aug-cc-pvdz symm=none int=(grid=ultrafine) guess=(read,tcheck) s
 table=(opt,rrhf)
 ----------------------------------------------------------------------
 -----
 title
 -----
 Symbolic Z-matrix:
 Charge =  0 Multiplicity = 1

 SCF Done:  E(RHF) =  -931.085717267     A.U. after   13 cycles
 Normal termination of Gaussian 16 at Wed Apr  9 02:21:57 2025.
 Gaussian 16:  ES64L-G16RevC.01  3-Jul-2019

 ----------------------------------------------------------------------
 #t hf aug-cc-pvdz iop(5/13=1,5/36=2,99/5=2) pseudo=read geom=check gue
 ss=(read,tcheck) scf=(maxcycle=1)
 ----------------------------------------------------------------------
 -----
 title
 -----
 Structure from the checkpoint file:  "CarbhydAroAA_42_mol3.chk"
 Charge =  0 Multiplicity = 1

                         Standard orientation:
 ---------------------------------------------------------------------
 Center     Atomic      Atomic             Coordinates (Angstroms)
 Number     Number       Type             X           Y           Z
 ---------------------------------------------------------------------
      1          6           0       -1.204582   -1.753413   -0.480968
      2          6           0       -1.823676   -0.610174    0.300427
      3          6           0       -1.120948    0.703125   -0.048523
      4          8           0       -1.657611    1.760491    0.775687
      5          1           0       -1.339931    1.699984    1.551042
      6          1           0       -1.279547    0.902632   -0.984540
      7          6           0        0.391989    0.592522    0.154781
      8         16           0        1.184582    2.063744   -0.487697
      9          1           0        1.413589    2.844848    0.398632
     10          1           0        0.599035    0.515055    1.098868
     11          6           0        0.905395   -0.657402   -0.570359
     12          1           0        0.778993   -0.488290   -1.517076
     13          6           0        2.385280   -0.926496   -0.267220
     14          1           0        2.914901   -0.142871   -0.481482
     15          8           0        2.546493   -1.262364    1.114389
     16          1           0        3.305991   -1.016611    1.375652
     17          1           0        2.711574   -1.650820   -0.824626
     18          8           0       -3.223464   -0.511316   -0.016051
     19          1           0       -3.326095   -0.004149   -0.678000
     20          1           0       -1.719886   -0.780757    1.249262
     21          1           0       -1.309330   -1.558106   -1.569633
     22          8           0        0.185315   -1.827079   -0.139740
     23          1           0       -1.709229   -2.707635   -0.218067
 ---------------------------------------------------------------------

 SCF Done:  E(RHF) =  -931.698725283     A.U. after    2 cycles

 The electronic state is 1-A.
 Alpha  occ. eigenvalues --  -93.94448 -20.55948 -20.54419 -20.53950 -20.53835
 Alpha  occ. eigenvalues --  -11.29886 -11.29651 -11.29515 -11.28336 -11.27295
 Alpha  occ. eigenvalues --  -11.26860  -8.23164  -6.21107  -6.20846  -6.20638
 Alpha  occ. eigenvalues --   -1.49679  -1.48592  -1.47638  -1.46372  -1.14695
 Alpha  occ. eigenvalues --   -1.07650  -1.02959  -0.97188  -0.90967  -0.87433
 Alpha  occ. eigenvalues --   -0.85600  -0.75118  -0.74002  -0.71196  -0.69709
 Alpha  occ. eigenvalues --   -0.69014  -0.66129  -0.64797  -0.64217  -0.61349
 Alpha  occ. eigenvalues --   -0.59328  -0.58746  -0.57067  -0.53531  -0.52796
 Alpha  occ. eigenvalues --   -0.51831  -0.50137  -0.47905  -0.46859  -0.46191
 Alpha  occ. eigenvalues --   -0.44404  -0.41879  -0.37418
 Alpha virt. eigenvalues --    0.02847   0.03331   0.03900   0.04293   0.05127
 Alpha virt. eigenvalues --    0.05535   0.05914   0.06411   0.07186   0.08609
 Alpha virt. eigenvalues --    0.08869   0.09221   0.10616   0.11367   0.13132

 Mulliken charges:
               1
     1  C    0.321055
     2  C    1.368582
     3  C    1.632947
     4  O   -1.222673
     5  H    0.055098
     6  H   -0.260185
     7  C   -0.657471
     8  S    0.388059
     9  H    0.034209
    10  H   -0.296058
    11  C    1.076647
    12  H   -0.188593
    13  C    1.464759
    14  H   -0.150223
    15  O   -1.024667
    16  H    0.181137
    17  H   -0.153679
    18  O   -1.236074
    19  H    0.096664
    20  H   -0.161946
    21  H    0.297293
    22  O   -1.601523
    23  H    0.036643
 Sum of Mulliken charges =  -0.00000

 Dipole moment (field-independent basis, Debye):
    X=              2.4917    Y=              0.5472    Z=             -0.5754  Tot=              2.6152

 Test job not archived.
 1\1\GINC-SE229\SP\RHF\Aug-CC-pVDZ\C6H12O4S1\OHZDE\09-Apr-2025\0\\#t hf
  aug-cc-pvdz iop(5/13=1,5/36=2,99/5=2) pseudo=read geom=check guess=(r
 ead,tcheck) scf=(maxcycle=1)\\title\\0,1\C,0,16.648,9.354,77.806\C,0,1
 6.955,9.993,79.147\C,0,16.11,9.341,80.243\O,0,16.344,10.027,81.492\H,0
 ,15.93,10.758,81.492\H,0,16.37,8.41,80.325\C,0,14.621,9.38,79.891\S,0,
 13.706,8.403,81.08\H,0,13.22766,9.10707,81.93066\H,0,14.293,10.292,79.
 92\C,0,14.426,8.827,78.474\H,0,14.661,7.887,78.519\C,0,12.98,8.995,77.
 989\H,0,12.369,8.587,78.622\O,0,12.674,10.385,77.841\H,0,11.855,10.508

 Normal termination of Gaussian 16 at Wed Apr  9 02:22:15 2025.
