 Gaussian 16, Revision C.01,

 ----------------------------------------------------------------------
 #t hf aug-cc-pvdz symm=none int=(grid=ultrafine) guess=(read,tcheck) s
 table=(opt,rrhf)
 ----------------------------------------------------------------------
 -----
 title
 -----
 Symbolic Z-matrix:
 Charge =  0 Multiplicity = 1

 SCF Done:  E(RHF) =  -290.018977596     A.U. after    9 cycles
 Normal termination of Gaussian 16 at Wed Apr  9 02:16:04 2025.
 Gaussian 16:  ES64L-G16RevC.01  3-Jul-2019

 ----------------------------------------------------------------------
 #t hf aug-cc-pvdz iop(5/13=1,5/36=2,99/5=2) pseudo=read geom=check gue
 ss=(read,tcheck) scf=(maxcycle=1)
 ----------------------------------------------------------------------
 -----
 title
 -----
 Structure from the checkpoint file:  "CARBHB12_11_mol3.chk"
 Charge =  0 Multiplicity = 1

                         Standard orientation:
 ---------------------------------------------------------------------
 Center     Atomic      Atomic             Coordinates (Angstroms)
 Number     Number       Type             X           Y           Z
 ---------------------------------------------------------------------
      1         14           0        0.000000    0.000000    0.128351
      2          1           0        0.000000    1.094704   -0.898455
      3          1           0       -0.000000   -1.094704   -0.898455
 ---------------------------------------------------------------------

 SCF Done:  E(RHF) =  -290.047781394     A.U. after    2 cycles

 The electronic state is 1-A1.
 Alpha  occ. eigenvalues --  -69.55414  -6.22118  -3.97269  -3.97043  -3.96931
 Alpha  occ. eigenvalues --   -0.70135  -0.47101  -0.34538
 Alpha virt. eigenvalues --   -0.00832   0.04282   0.06037   0.06969   0.08869
 Alpha virt. eigenvalues --    0.09035   0.14342   0.18271   0.20204   0.21471
 Alpha virt. eigenvalues --    0.21474   0.21729   0.35472   0.35700   0.36343

 Mulliken charges:
               1
     1  Si   0.369215
     2  H   -0.184607
     3  H   -0.184607
 Sum of Mulliken charges =  -0.00000

 Dipole moment (field-independent basis, Debye):
    X=              0.0000    Y=             -0.0000    Z=             -0.4490  Tot=              0.4490

 Test job not archived.
 1\1\GINC-SE402\SP\RHF\Aug-CC-pVDZ\H2Si1\OHZDE\09-Apr-2025\0\\#t hf aug
 -cc-pvdz iop(5/13=1,5/36=2,99/5=2) pseudo=read geom=check guess=(read,
 tcheck) scf=(maxcycle=1)\\title\\0,1\Si,0,0.,0.,-0.684537\H,0,1.094704
 2,0.,0.3422685\H,0,-1.0947042,0.,0.3422685\\Version=ES64L-G16RevC.01\S
 tate=1-A1\HF=-290.0477814\RMSD=5.397e-03\Dipole=0.,0.,0.1766444\Quadru
 pole=-0.3540553,2.5523326,-2.1982773,0.,0.,0.\PG=C02V [C2(Si1),SGV(H2)
 ]\\@

 Normal termination of Gaussian 16 at Wed Apr  9 02:16:05 2025.
