 Gaussian 16, Revision C.01,

 ----------------------------------------------------------------------
 #t hf aug-cc-pvdz symm=none int=(grid=ultrafine) guess=(read,tcheck) s
 table=(opt,rrhf)
 ----------------------------------------------------------------------
 -----
 title
 -----
 Symbolic Z-matrix:
 Charge =  0 Multiplicity = 1

 SCF Done:  E(RHF) =  -536.885497831     A.U. after   15 cycles

 1\1\GINC-SE345\Stability\RHF\Aug-CC-pVDZ\C2H3Cl1\OHZDE\09-Apr-2025\0\\
 #t hf aug-cc-pvdz symm=none int=(grid=ultrafine) guess=(read,tcheck) s
 table=(opt,rrhf)\\title\\0,1\C,0,-0.7812762,0.1517281,-0.7419824\Cl,0,
 0.1322569,-0.0037532,-2.1651677\C,0,0.0535089,0.0161273,0.4601907\H,0,
 1.1401585,0.0053175,0.3540221\H,0,-0.2671755,0.7649204,1.1894818\H,0,-
 0.2774726,-0.9343402,0.9034555\\Version=ES64L-G16RevC.01\HF=-536.88549
 78\RMSD=4.485e-09\Dipole=0.5578732,-0.1127478,0.6680997\Quadrupole=-1.
 834272,1.5839882,0.2502838,0.5370869,-1.2621071,0.1570093\PG=Unknown\\

 Normal termination of Gaussian 16 at Wed Apr  9 02:16:30 2025.
 Gaussian 16:  ES64L-G16RevC.01  3-Jul-2019

 ----------------------------------------------------------------------
 #t hf aug-cc-pvdz iop(5/13=1,5/36=2,99/5=2) pseudo=read geom=check gue
 ss=(read,tcheck) scf=(maxcycle=1)
 ----------------------------------------------------------------------
 -----
 title
 -----
 Structure from the checkpoint file:  "CARBHB12_2_mol3.chk"
 Charge =  0 Multiplicity = 1

                         Standard orientation:
 ---------------------------------------------------------------------
 Center     Atomic      Atomic             Coordinates (Angstroms)
 Number     Number       Type             X           Y           Z
 ---------------------------------------------------------------------
      1          6           0       -0.440878   -0.712735   -0.010210
      2         17           0        1.049496    0.101419    0.000410
      3          6           0       -1.574278    0.223149   -0.009518
      4          1           0       -1.385408    1.286452   -0.170490
      5          1           0       -2.334215   -0.154399   -0.698972
      6          1           0       -2.030869    0.081337    0.980853
 ---------------------------------------------------------------------

 SCF Done:  E(RHF) =  -537.041088684     A.U. after    2 cycles

 The electronic state is 1-A.
 Alpha  occ. eigenvalues -- -105.59113 -11.33980 -11.25860 -10.64062  -7.80972
 Alpha  occ. eigenvalues --   -7.80657  -7.80548  -1.14948  -1.01327  -0.76788
 Alpha  occ. eigenvalues --   -0.63313  -0.60187  -0.59141  -0.50388  -0.49235
 Alpha  occ. eigenvalues --   -0.37291
 Alpha virt. eigenvalues --    0.03620   0.05091   0.05334   0.05563   0.07730
 Alpha virt. eigenvalues --    0.09769   0.13014   0.13893   0.14435   0.14698
 Alpha virt. eigenvalues --    0.16487   0.17362   0.18465   0.18788   0.22941

 Mulliken charges:
               1
     1  C   -0.436234
     2  Cl   0.000775
     3  C   -0.178263
     4  H    0.146032
     5  H    0.207629
     6  H    0.260061
 Sum of Mulliken charges =  -0.00000

 Dipole moment (field-independent basis, Debye):
    X=             -1.5495    Y=              1.5917    Z=              0.0623  Tot=              2.2223

 Test job not archived.
 1\1\GINC-SE345\SP\RHF\Aug-CC-pVDZ\C2H3Cl1\OHZDE\09-Apr-2025\0\\#t hf a
 ug-cc-pvdz iop(5/13=1,5/36=2,99/5=2) pseudo=read geom=check guess=(rea
 d,tcheck) scf=(maxcycle=1)\\title\\0,1\C,0,-0.7812762,0.1517281,-0.741
 9824\Cl,0,0.1322569,-0.0037532,-2.1651677\C,0,0.0535089,0.0161273,0.46
 01907\H,0,1.1401585,0.0053175,0.3540221\H,0,-0.2671755,0.7649204,1.189
 4818\H,0,-0.2774726,-0.9343402,0.9034555\\Version=ES64L-G16RevC.01\Sta
 te=1-A\HF=-537.0410887\RMSD=7.045e-03\Dipole=0.5661363,-0.1161517,0.65
 60679\Quadrupole=-2.7382666,0.5577841,2.1804825,0.4979851,-0.028744,-0

 Normal termination of Gaussian 16 at Wed Apr  9 02:16:32 2025.
