 Gaussian 16, Revision C.01,

 ----------------------------------------------------------------------
 #t hf aug-cc-pvdz symm=none int=(grid=ultrafine) guess=(read,tcheck) s
 table=(opt,rrhf)
 ----------------------------------------------------------------------
 -----
 title
 -----
 Symbolic Z-matrix:
 Charge =  0 Multiplicity = 1

 SCF Done:  E(RHF) =  -707.192816440     A.U. after   13 cycles
 Normal termination of Gaussian 16 at Wed Apr  9 02:22:24 2025.
 Gaussian 16:  ES64L-G16RevC.01  3-Jul-2019

 ----------------------------------------------------------------------
 #t hf aug-cc-pvdz iop(5/13=1,5/36=2,99/5=2) pseudo=read geom=check gue
 ss=(read,tcheck) scf=(maxcycle=1)
 ----------------------------------------------------------------------
 -----
 title
 -----
 Structure from the checkpoint file:  "CarbhydAroAA_21_mol3.chk"
 Charge =  0 Multiplicity = 1

                         Standard orientation:
 ---------------------------------------------------------------------
 Center     Atomic      Atomic             Coordinates (Angstroms)
 Number     Number       Type             X           Y           Z
 ---------------------------------------------------------------------
      1          6           0       -0.690475   -1.458234   -0.237535
      2          1           0       -0.728653   -1.470036   -1.206921
      3          8           0        0.719610   -1.249236   -0.152266
      4          6           0        1.284857    0.103839   -0.147314
      5          1           0        1.376595    0.302106   -1.092231
      6          6           0        0.387581    1.317549    0.161161
      7          8           0        0.788983    2.484573   -0.586901
      8          1           0        1.370006    2.909237   -0.153846
      9          1           0        0.534954    1.483335    1.105027
     10          6           0       -1.119483    1.072374    0.050100
     11          1           0       -1.116018    1.160894   -0.915635
     12          8           0       -1.979975    2.085792    0.421567
     13          1           0       -1.551446    2.803680    0.498434
     14          6           0        2.700281    0.112801    0.506358
     15          1           0        3.126890    0.974358    0.376454
     16          8           0        3.481279   -0.927741   -0.097979
     17          1           0        2.974247   -1.547593   -0.350728
     18          1           0        2.631664   -0.028869    1.463650
     19          6           0       -1.669896   -0.339647    0.130014
     20          9           0       -2.951111   -0.625119   -0.294922
     21          1           0       -1.787616   -0.328189    1.092935
     22          8           0       -1.138506   -2.669003    0.287743
     23          1           0       -0.598923   -3.280017    0.083130
 ---------------------------------------------------------------------

 SCF Done:  E(RHF) =  -707.908016770     A.U. after    2 cycles

 The electronic state is 1-A.
 Alpha  occ. eigenvalues --  -26.46344 -20.58379 -20.57988 -20.56472 -20.55868
 Alpha  occ. eigenvalues --  -20.54342 -11.35731 -11.32642 -11.32578 -11.31225
 Alpha  occ. eigenvalues --  -11.29940 -11.29095  -1.58666  -1.53441  -1.52954
 Alpha  occ. eigenvalues --   -1.51302  -1.49029  -1.46253  -1.12458  -1.08885
 Alpha  occ. eigenvalues --   -1.00295  -0.94824  -0.91846  -0.85819  -0.79238
 Alpha  occ. eigenvalues --   -0.78428  -0.76670  -0.74082  -0.72082  -0.70082
 Alpha  occ. eigenvalues --   -0.69719  -0.67088  -0.66800  -0.64658  -0.63254
 Alpha  occ. eigenvalues --   -0.61895  -0.60984  -0.58846  -0.57560  -0.56199
 Alpha  occ. eigenvalues --   -0.53716  -0.52840  -0.51312  -0.49921  -0.48061
 Alpha  occ. eigenvalues --   -0.46425  -0.43941  -0.42954
 Alpha virt. eigenvalues --    0.02199   0.03442   0.03591   0.04236   0.05563
 Alpha virt. eigenvalues --    0.06069   0.06384   0.06458   0.07030   0.08693
 Alpha virt. eigenvalues --    0.09171   0.10840   0.12270   0.12365   0.13145

 Mulliken charges:
               1
     1  C    2.492533
     2  H   -0.193436
     3  O   -1.959602
     4  C    0.856262
     5  H   -0.061522
     6  C    0.326083
     7  O   -1.300900
     8  H    0.206260
     9  H   -0.030274
    10  C    1.514265
    11  H   -0.025509
    12  O   -1.520026
    13  H    0.197594
    14  C    1.747662
    15  H   -0.194890
    16  O   -1.202822
    17  H    0.289014
    18  H   -0.157596
    19  C    0.967928
    20  F   -0.913292
    21  H    0.016739
    22  O   -1.270875
    23  H    0.216406
 Sum of Mulliken charges =  -0.00000

 Dipole moment (field-independent basis, Debye):
    X=              2.6592    Y=              1.8645    Z=              0.9416  Tot=              3.3815

 Test job not archived.
 1\1\GINC-SE123\SP\RHF\Aug-CC-pVDZ\C6H11F1O5\OHZDE\09-Apr-2025\0\\#t hf
  aug-cc-pvdz iop(5/13=1,5/36=2,99/5=2) pseudo=read geom=check guess=(r
 ead,tcheck) scf=(maxcycle=1)\\title\\0,1\C,0,105.135,88.708,3.523\H,0,
 104.71,89.369,4.092\O,0,106.446,88.875,4.064\C,0,106.89,88.097,5.225\H
 ,0,106.582,88.632,5.973\C,0,106.128,86.825,5.643\O,0,106.129,86.646,7.
 075\H,0,106.811,86.212,7.303\H,0,106.634,86.105,5.236\C,0,104.72,86.67
 5,5.061\H,0,104.329,87.276,5.714\O,0,104.028,85.506,5.306\H,0,104.411,
 85.076,5.917\C,0,108.446,88.013,5.276\H,0,108.736,87.626,6.117\O,0,108

 Normal termination of Gaussian 16 at Wed Apr  9 02:22:41 2025.
