 Gaussian 16, Revision C.01,

 ----------------------------------------------------------------------
 #t hf aug-cc-pvdz symm=none int=(grid=ultrafine) guess=(read,tcheck) s
 table=(opt,rrhf)
 ----------------------------------------------------------------------
 -----
 title
 -----
 Symbolic Z-matrix:
 Charge =  0 Multiplicity = 1

 SCF Done:  E(RHF) =  -498.983597315     A.U. after   10 cycles

 1\1\GINC-SE159\Stability\RHF\Aug-CC-pVDZ\C1H3Cl1\OHZDE\09-Apr-2025\0\\
 #t hf aug-cc-pvdz symm=none int=(grid=ultrafine) guess=(read,tcheck) s
 table=(opt,rrhf)\\title\\0,1\Cl,0,0.,0.,-2.4361129\H,0,0.,0.,-1.102863
 8\C,0,0.,0.,0.7376197\H,0,0.8765006,0.,1.4006785\H,0,-0.8765006,0.,1.4
 006785\\Version=ES64L-G16RevC.01\HF=-498.9835973\RMSD=8.256e-09\Dipole
 =0.,0.,1.9499507\Quadrupole=1.2150186,1.5890282,-2.8040468,0.,0.,0.\PG
 =Unknown\\@
 The archive entry for this job was punched.

 Normal termination of Gaussian 16 at Wed Apr  9 02:17:00 2025.
 Gaussian 16:  ES64L-G16RevC.01  3-Jul-2019

 ----------------------------------------------------------------------
 #t hf aug-cc-pvdz iop(5/13=1,5/36=2,99/5=2) pseudo=read geom=check gue
 ss=(read,tcheck) scf=(maxcycle=1)
 ----------------------------------------------------------------------
 -----
 title
 -----
 Structure from the checkpoint file:  "CARBHB12_9_mol1.chk"
 Charge =  0 Multiplicity = 1

                         Standard orientation:
 ---------------------------------------------------------------------
 Center     Atomic      Atomic             Coordinates (Angstroms)
 Number     Number       Type             X           Y           Z
 ---------------------------------------------------------------------
      1         17           0       -0.000000   -0.000000    1.078816
      2          1           0        0.000000    0.000000   -0.254433
      3          6           0        0.000000    0.000000   -2.094916
      4          1           0        0.000000    0.876501   -2.757975
      5          1           0       -0.000000   -0.876501   -2.757975
 ---------------------------------------------------------------------

 SCF Done:  E(RHF) =  -499.101860510     A.U. after    2 cycles

 The electronic state is 1-A1.
 Alpha  occ. eigenvalues -- -105.52640 -11.34457 -10.57497  -7.74439  -7.74129
 Alpha  occ. eigenvalues --   -7.74127  -1.01985  -0.93677  -0.62126  -0.60185
 Alpha  occ. eigenvalues --   -0.43900  -0.43880  -0.43040
 Alpha virt. eigenvalues --   -0.00851   0.02474   0.04661   0.06804   0.12911
 Alpha virt. eigenvalues --    0.13650   0.14740   0.15199   0.17150   0.17947
 Alpha virt. eigenvalues --    0.18125   0.25447   0.25628   0.27378   0.30559

 Mulliken charges:
               1
     1  Cl  -0.317756
     2  H    0.478023
     3  C   -0.365988
     4  H    0.102861
     5  H    0.102861
 Sum of Mulliken charges =   0.00000

 Dipole moment (field-independent basis, Debye):
    X=             -0.0000    Y=             -0.0000    Z=             -4.9948  Tot=              4.9948

 Test job not archived.
 1\1\GINC-SE159\SP\RHF\Aug-CC-pVDZ\C1H3Cl1\OHZDE\09-Apr-2025\0\\#t hf a
 ug-cc-pvdz iop(5/13=1,5/36=2,99/5=2) pseudo=read geom=check guess=(rea
 d,tcheck) scf=(maxcycle=1)\\title\\0,1\Cl,0,0.,0.,-2.4361129\H,0,0.,0.
 ,-1.1028638\C,0,0.,0.,0.7376197\H,0,0.8765006,0.,1.4006785\H,0,-0.8765
 006,0.,1.4006785\\Version=ES64L-G16RevC.01\State=1-A1\HF=-499.1018605\
 RMSD=5.196e-03\Dipole=0.,0.,1.9651165\Quadrupole=-2.1507612,-1.8205063
 ,3.9712675,0.,0.,0.\PG=C02V [C2(C1H1Cl1),SGV(H2)]\\@

 Normal termination of Gaussian 16 at Wed Apr  9 02:17:02 2025.
