 Gaussian 16, Revision C.01,

 ----------------------------------------------------------------------
 #t hf aug-cc-pvdz symm=none int=(grid=ultrafine) guess=(read,tcheck) s
 table=(opt,rrhf)
 ----------------------------------------------------------------------
 -----
 title
 -----
 Symbolic Z-matrix:
 Charge =  0 Multiplicity = 1

 SCF Done:  E(RHF) =  -762.981501144     A.U. after   13 cycles
 Normal termination of Gaussian 16 at Wed Apr  9 02:17:28 2025.
 Gaussian 16:  ES64L-G16RevC.01  3-Jul-2019

 ----------------------------------------------------------------------
 #t hf aug-cc-pvdz iop(5/13=1,5/36=2,99/5=2) pseudo=read geom=check gue
 ss=(read,tcheck) scf=(maxcycle=1)
 ----------------------------------------------------------------------
 -----
 title
 -----
 Structure from the checkpoint file:  "CARBHB12_12_mol1.chk"
 Charge =  0 Multiplicity = 1

                         Standard orientation:
 ---------------------------------------------------------------------
 Center     Atomic      Atomic             Coordinates (Angstroms)
 Number     Number       Type             X           Y           Z
 ---------------------------------------------------------------------
      1          6           0        0.106058   -0.164759    0.105110
      2          6           0        1.894499    1.208926   -0.064649
      3          6           0        2.359268   -0.055536   -0.070191
      4          7           0        1.252348   -0.870772    0.019428
      5          7           0        0.525280    1.112995    0.027043
      6          1           0        2.420898    2.148569   -0.118414
      7          1           0        3.369586   -0.428921   -0.130789
      8          6           0        1.311881   -2.312352    0.028165
      9          6           0       -0.371028    2.244410    0.046245
     10          1           0        1.800988   -2.689786   -0.871072
     11          1           0        1.857982   -2.675587    0.899683
     12          1           0        0.296580   -2.696226    0.062017
     13          1           0       -0.185379    2.868965    0.919864
     14          1           0       -0.253194    2.846471   -0.854687
     15          1           0       -1.393632    1.877969    0.086485
     16         17           0       -2.972271   -0.473624   -0.043753
     17          1           0       -1.632692   -0.419536    0.157340
 ---------------------------------------------------------------------

 SCF Done:  E(RHF) =  -763.379837615     A.U. after    2 cycles

 The electronic state is 1-A.
 Alpha  occ. eigenvalues -- -105.50568 -15.56207 -15.56003 -11.28501 -11.28297
 Alpha  occ. eigenvalues --  -11.28190 -11.27904 -11.27410 -10.55469  -7.72397
 Alpha  occ. eigenvalues --   -7.72123  -7.72112  -1.37452  -1.24271  -1.07291
 Alpha  occ. eigenvalues --   -1.02267  -0.99871  -0.95845  -0.85937  -0.81874
 Alpha  occ. eigenvalues --   -0.74816  -0.69407  -0.66464  -0.64701  -0.63956
 Alpha  occ. eigenvalues --   -0.63470  -0.58419  -0.57571  -0.56745  -0.56052
 Alpha  occ. eigenvalues --   -0.45112  -0.42266  -0.42232  -0.39462  -0.35855
 Alpha virt. eigenvalues --    0.02725   0.03328   0.04049   0.04607   0.05073
 Alpha virt. eigenvalues --    0.05186   0.07007   0.07697   0.08985   0.10869
 Alpha virt. eigenvalues --    0.11271   0.11284   0.11497   0.11622   0.13118

 Mulliken charges:
               1
     1  C   -1.086110
     2  C   -0.175786
     3  C   -0.027307
     4  N    0.540335
     5  N    0.580712
     6  H   -0.214032
     7  H   -0.217913
     8  C   -0.166973
     9  C   -0.182968
    10  H    0.188496
    11  H    0.199314
    12  H    0.056326
    13  H    0.207431
    14  H    0.187008
    15  H    0.007022
    16  Cl  -0.351140
    17  H    0.455585
 Sum of Mulliken charges =  -0.00000

 Dipole moment (field-independent basis, Debye):
    X=              6.1733    Y=              1.1453    Z=              0.0049  Tot=              6.2786

 Test job not archived.
 1\1\GINC-SE195\SP\RHF\Aug-CC-pVDZ\C5H9Cl1N2\OHZDE\09-Apr-2025\0\\#t hf
  aug-cc-pvdz iop(5/13=1,5/36=2,99/5=2) pseudo=read geom=check guess=(r
 ead,tcheck) scf=(maxcycle=1)\\title\\0,1\C,0,-0.0923972,-0.090821,-0.5
 581819\C,0,0.0818928,0.6858239,1.5586069\C,0,0.0601558,-0.659471,1.626
 5329\N,0,-0.0316562,-1.1070769,0.326867\N,0,0.0035018,1.0028629,0.2223
 02\H,0,0.1463878,1.4253789,2.3407929\H,0,0.1031438,-1.3172889,2.480499
 9\C,0,-0.0663492,-2.5007778,-0.0448429\C,0,0.0139618,2.3496258,-0.2972
 709\H,0,0.8207238,-3.0243948,0.314651\H,0,-0.9500261,-2.9923398,0.3640

 Normal termination of Gaussian 16 at Wed Apr  9 02:17:36 2025.
