 Gaussian 16, Revision C.01,

 ----------------------------------------------------------------------
 #t hf aug-cc-pvdz symm=none int=(grid=ultrafine) guess=(read,tcheck) s
 table=(opt,rrhf)
 ----------------------------------------------------------------------
 -----
 title
 -----
 Symbolic Z-matrix:
 Charge =  0 Multiplicity = 1

 SCF Done:  E(RHF) =  -707.181384603     A.U. after   13 cycles
 Normal termination of Gaussian 16 at Wed Apr  9 02:22:24 2025.
 Gaussian 16:  ES64L-G16RevC.01  3-Jul-2019

 ----------------------------------------------------------------------
 #t hf aug-cc-pvdz iop(5/13=1,5/36=2,99/5=2) pseudo=read geom=check gue
 ss=(read,tcheck) scf=(maxcycle=1)
 ----------------------------------------------------------------------
 -----
 title
 -----
 Structure from the checkpoint file:  "CarbhydAroAA_20_mol3.chk"
 Charge =  0 Multiplicity = 1

                         Standard orientation:
 ---------------------------------------------------------------------
 Center     Atomic      Atomic             Coordinates (Angstroms)
 Number     Number       Type             X           Y           Z
 ---------------------------------------------------------------------
      1          6           0       -0.727947   -1.421871   -0.145655
      2          8           0       -1.238356   -2.682763    0.200387
      3          1           0       -1.106322   -3.221337   -0.431135
      4          8           0        0.706682   -1.243539    0.031845
      5          6           0        1.274972    0.043693   -0.067805
      6          6           0        2.739752    0.134225    0.382272
      7          8           0        3.391725   -1.065264   -0.062247
      8          1           0        2.813938   -1.643625   -0.253120
      9          1           0        2.797423    0.218203    1.346378
     10          1           0        3.167740    0.918193    0.003011
     11          1           0        1.302761    0.128007   -1.033864
     12          6           0        0.420282    1.262193    0.177832
     13          8           0        0.982306    2.271907   -0.637009
     14          1           0        1.526382    2.725520   -0.186182
     15          1           0        0.443769    1.479317    1.123268
     16          6           0       -1.092956    1.099966   -0.019651
     17          1           0       -1.214331    1.104078   -0.982405
     18          8           0       -1.810702    2.230346    0.433787
     19          1           0       -1.326982    2.913758    0.370611
     20          1           0       -0.695327   -1.372572   -1.113617
     21          6           0       -1.711941   -0.271216    0.125134
     22          1           0       -1.881054   -0.320971    1.078944
     23          9           0       -3.054912   -0.455112   -0.263194
 ---------------------------------------------------------------------

 SCF Done:  E(RHF) =  -707.896740545     A.U. after    2 cycles

 The electronic state is 1-A.
 Alpha  occ. eigenvalues --  -26.46730 -20.58134 -20.57882 -20.57464 -20.55965
 Alpha  occ. eigenvalues --  -20.53732 -11.36990 -11.33550 -11.31798 -11.30717
 Alpha  occ. eigenvalues --  -11.29685 -11.28383  -1.57958  -1.53867  -1.53308
 Alpha  occ. eigenvalues --   -1.50658  -1.49190  -1.46755  -1.12596  -1.09503
 Alpha  occ. eigenvalues --   -1.00430  -0.95041  -0.91457  -0.86432  -0.79616
 Alpha  occ. eigenvalues --   -0.79057  -0.76428  -0.73949  -0.72559  -0.70576
 Alpha  occ. eigenvalues --   -0.69999  -0.67224  -0.66542  -0.64361  -0.63155
 Alpha  occ. eigenvalues --   -0.62149  -0.60674  -0.58918  -0.56796  -0.55874
 Alpha  occ. eigenvalues --   -0.54252  -0.52796  -0.51499  -0.50396  -0.47717
 Alpha  occ. eigenvalues --   -0.46391  -0.44954  -0.42822
 Alpha virt. eigenvalues --    0.02259   0.03336   0.03705   0.04195   0.05525
 Alpha virt. eigenvalues --    0.06063   0.06291   0.06495   0.07471   0.09005
 Alpha virt. eigenvalues --    0.09172   0.10512   0.12035   0.12196   0.13194

 Mulliken charges:
               1
     1  C    2.352455
     2  O   -1.224823
     3  H    0.152897
     4  O   -1.905513
     5  C    0.701770
     6  C    1.783612
     7  O   -1.226064
     8  H    0.289540
     9  H   -0.119221
    10  H   -0.160488
    11  H   -0.082080
    12  C    0.529923
    13  O   -1.284560
    14  H    0.206517
    15  H   -0.046962
    16  C    1.629814
    17  H    0.017974
    18  O   -1.494964
    19  H    0.208803
    20  H   -0.261187
    21  C    0.821594
    22  H   -0.002172
    23  F   -0.886866
 Sum of Mulliken charges =  -0.00000

 Dipole moment (field-independent basis, Debye):
    X=              1.8071    Y=              1.9229    Z=             -0.1903  Tot=              2.6456

 Test job not archived.
 1\1\GINC-SE021\SP\RHF\Aug-CC-pVDZ\C6H11F1O5\OHZDE\09-Apr-2025\0\\#t hf
  aug-cc-pvdz iop(5/13=1,5/36=2,99/5=2) pseudo=read geom=check guess=(r
 ead,tcheck) scf=(maxcycle=1)\\title\\0,1\C,0,134.77499,93.517,-20.046\
 O,0,134.518,92.335,-19.334\H,0,135.04201,92.283,-18.679\O,0,134.181,94
 .731,-19.503\C,0,134.188,95.92,-20.262\C,0,133.32001,97.05,-19.691\O,0
 ,133.464,97.011,-18.263\H,0,133.78301,96.269,-18.034\H,0,132.392,96.93
 1,-19.945\H,0,133.602,97.91,-20.041\H,0,135.103,96.201,-20.104\C,0,134
 .29601,95.85,-21.765\O,0,134.966,97.038,-22.138\H,0,134.40199,97.627,-

 Normal termination of Gaussian 16 at Wed Apr  9 02:22:42 2025.
