 Gaussian 16, Revision C.01,

 ----------------------------------------------------------------------
 #t hf aug-cc-pvdz symm=none int=(grid=ultrafine) guess=(read,tcheck) s
 table=(opt,rrhf)
 ----------------------------------------------------------------------
 -----
 title
 -----
 Symbolic Z-matrix:
 Charge =  0 Multiplicity = 1

 SCF Done:  E(RHF) =  -536.884664983     A.U. after   15 cycles

 1\1\GINC-SE073\Stability\RHF\Aug-CC-pVDZ\C2H3Cl1\OHZDE\09-Apr-2025\0\\
 #t hf aug-cc-pvdz symm=none int=(grid=ultrafine) guess=(read,tcheck) s
 table=(opt,rrhf)\\title\\0,1\C,0,-0.7375496,0.1931454,-0.7568952\Cl,0,
 0.1501291,0.0084722,-2.1749417\C,0,0.0490747,0.0027236,0.4636855\H,0,1
 .1320954,-0.0961517,0.3761685\H,0,-0.223446,0.795073,1.1676971\H,0,-0.
 3703035,-0.9032624,0.9242858\\Version=ES64L-G16RevC.01\HF=-536.884665\
 RMSD=3.909e-09\Dipole=0.5496124,-0.1496347,0.6493553\Quadrupole=-1.832
 5228,1.4684245,0.3640982,0.7589781,-1.2964751,0.259254\PG=Unknown\\@

 Normal termination of Gaussian 16 at Wed Apr  9 02:16:00 2025.
 Gaussian 16:  ES64L-G16RevC.01  3-Jul-2019

 ----------------------------------------------------------------------
 #t hf aug-cc-pvdz iop(5/13=1,5/36=2,99/5=2) pseudo=read geom=check gue
 ss=(read,tcheck) scf=(maxcycle=1)
 ----------------------------------------------------------------------
 -----
 title
 -----
 Structure from the checkpoint file:  "CARBHB12_10_mol3.chk"
 Charge =  0 Multiplicity = 1

                         Standard orientation:
 ---------------------------------------------------------------------
 Center     Atomic      Atomic             Coordinates (Angstroms)
 Number     Number       Type             X           Y           Z
 ---------------------------------------------------------------------
      1          6           0       -0.433671   -0.689690   -0.008249
      2         17           0        1.053237    0.098955    0.000444
      3          6           0       -1.584732    0.215801   -0.007471
      4          1           0       -1.408202    1.283994   -0.142270
      5          1           0       -2.312225   -0.162750   -0.732157
      6          1           0       -2.074187    0.039852    0.961197
 ---------------------------------------------------------------------

 SCF Done:  E(RHF) =  -537.040425664     A.U. after    2 cycles

 The electronic state is 1-A.
 Alpha  occ. eigenvalues -- -105.59299 -11.33521 -11.25784 -10.64265  -7.81180
 Alpha  occ. eigenvalues --   -7.80861  -7.80746  -1.15296  -1.01489  -0.76738
 Alpha  occ. eigenvalues --   -0.63360  -0.60140  -0.59507  -0.50627  -0.49580
 Alpha  occ. eigenvalues --   -0.36717
 Alpha virt. eigenvalues --    0.03634   0.05178   0.05343   0.05667   0.07703
 Alpha virt. eigenvalues --    0.09788   0.13096   0.13860   0.14396   0.14643
 Alpha virt. eigenvalues --    0.16524   0.17361   0.18508   0.18774   0.23225

 Mulliken charges:
               1
     1  C   -0.449927
     2  Cl   0.010725
     3  C   -0.173134
     4  H    0.141310
     5  H    0.215294
     6  H    0.255732
 Sum of Mulliken charges =  -0.00000

 Dipole moment (field-independent basis, Debye):
    X=             -1.4964    Y=              1.5935    Z=              0.0537  Tot=              2.1866

 Test job not archived.
 1\1\GINC-SE073\SP\RHF\Aug-CC-pVDZ\C2H3Cl1\OHZDE\09-Apr-2025\0\\#t hf a
 ug-cc-pvdz iop(5/13=1,5/36=2,99/5=2) pseudo=read geom=check guess=(rea
 d,tcheck) scf=(maxcycle=1)\\title\\0,1\C,0,-0.7375496,0.1931454,-0.756
 8952\Cl,0,0.1501291,0.0084722,-2.1749417\C,0,0.0490747,0.0027236,0.463
 6855\H,0,1.1320954,-0.0961517,0.3761685\H,0,-0.223446,0.795073,1.16769
 71\H,0,-0.3703035,-0.9032624,0.9242858\\Version=ES64L-G16RevC.01\State
 =1-A\HF=-537.0404257\RMSD=7.143e-03\Dipole=0.5572827,-0.1528732,0.6372
 794\Quadrupole=-2.7411994,0.4798425,2.2613568,0.7082071,-0.0974401,-0.

 Normal termination of Gaussian 16 at Wed Apr  9 02:16:01 2025.
