 Gaussian 16, Revision C.01,

 ----------------------------------------------------------------------
 #t hf aug-cc-pvdz symm=none int=(grid=ultrafine) guess=(read,tcheck) s
 table=(opt,rrhf)
 ----------------------------------------------------------------------
 -----
 title
 -----
 Symbolic Z-matrix:
 Charge =  0 Multiplicity = 1

 SCF Done:  E(RHF) =  -366.062332736     A.U. after   12 cycles

 1\1\GINC-SE292\Stability\RHF\Aug-CC-pVDZ\H4O1Si1\OHZDE\09-Apr-2025\0\\
 #t hf aug-cc-pvdz symm=none int=(grid=ultrafine) guess=(read,tcheck) s
 table=(opt,rrhf)\\title\\0,1\O,0,-2.2315426,-0.0184865,0.\H,0,-1.31099
 47,0.2590669,0.\H,0,-2.735532,0.7954934,0.\Si,0,1.4665347,-0.0547721,0
 .\H,0,2.4057673,-0.4906509,-1.0901298\H,0,2.4057673,-0.4906509,1.09012
 98\\Version=ES64L-G16RevC.01\HF=-366.0623327\RMSD=2.294e-09\Dipole=0.5
 915891,0.6164733,0.\Quadrupole=-1.2549579,2.3819995,-1.1270416,-2.0510
 399,0.,0.\PG=Unknown\\@

 Normal termination of Gaussian 16 at Wed Apr  9 02:16:30 2025.
 Gaussian 16:  ES64L-G16RevC.01  3-Jul-2019

 ----------------------------------------------------------------------
 #t hf aug-cc-pvdz iop(5/13=1,5/36=2,99/5=2) pseudo=read geom=check gue
 ss=(read,tcheck) scf=(maxcycle=1)
 ----------------------------------------------------------------------
 -----
 title
 -----
 Structure from the checkpoint file:  "CARBHB12_3_mol1.chk"
 Charge =  0 Multiplicity = 1

                         Standard orientation:
 ---------------------------------------------------------------------
 Center     Atomic      Atomic             Coordinates (Angstroms)
 Number     Number       Type             X           Y           Z
 ---------------------------------------------------------------------
      1          8           0        0.009319    2.364032    0.000000
      2          1           0       -0.277253    1.446252    0.000000
      3          1           0       -0.799677    2.875984    0.000000
      4         14           0        0.009319   -1.334223   -0.000000
      5          1           0        0.435961   -2.277687    1.090130
      6          1           0        0.435961   -2.277687   -1.090130
 ---------------------------------------------------------------------

 SCF Done:  E(RHF) =  -366.170061644     A.U. after    2 cycles

 The electronic state is 1-A'.
 Alpha  occ. eigenvalues --  -69.56464 -20.54289  -6.23176  -3.98342  -3.98108
 Alpha  occ. eigenvalues --   -3.97996  -1.42553  -0.71262  -0.69716  -0.56528
 Alpha  occ. eigenvalues --   -0.48508  -0.47749  -0.36057
 Alpha virt. eigenvalues --   -0.01475   0.03924   0.04906   0.05903   0.07608
 Alpha virt. eigenvalues --    0.08504   0.08799   0.11353   0.14284   0.17142
 Alpha virt. eigenvalues --    0.17219   0.19873   0.20231   0.22305   0.23822

 Mulliken charges:
               1
     1  O   -0.792092
     2  H    0.443987
     3  H    0.344373
     4  Si   0.390209
     5  H   -0.193238
     6  H   -0.193238
 Sum of Mulliken charges =  -0.00000

 Dipole moment (field-independent basis, Debye):
    X=             -1.5425    Y=             -1.4968    Z=             -0.0000  Tot=              2.1494

 Test job not archived.
 1\1\GINC-SE292\SP\RHF\Aug-CC-pVDZ\H4O1Si1\OHZDE\09-Apr-2025\0\\#t hf a
 ug-cc-pvdz iop(5/13=1,5/36=2,99/5=2) pseudo=read geom=check guess=(rea
 d,tcheck) scf=(maxcycle=1)\\title\\0,1\O,0,-2.2315426,-0.0184865,0.\H,
 0,-1.3109947,0.2590669,0.\H,0,-2.735532,0.7954934,0.\Si,0,1.4665347,-0
 .0547721,0.\H,0,2.4057673,-0.4906509,-1.0901298\H,0,2.4057673,-0.49065
 09,1.0901298\\Version=ES64L-G16RevC.01\State=1-A'\HF=-366.1700616\RMSD
 =5.230e-03\Dipole=0.5948291,0.6010498,0.\Quadrupole=-1.3874016,2.47542
 44,-1.0880228,-2.1500024,0.,0.\PG=CS [SG(H2O1Si1),X(H2)]\\@

 Normal termination of Gaussian 16 at Wed Apr  9 02:16:31 2025.
