 Gaussian 16, Revision C.01,

 ----------------------------------------------------------------------
 #t hf aug-cc-pvdz symm=none int=(grid=ultrafine) guess=(read,tcheck) s
 table=(opt,rrhf)
 ----------------------------------------------------------------------
 -----
 title
 -----
 Symbolic Z-matrix:
 Charge =  0 Multiplicity = 1

 SCF Done:  E(RHF) =  -460.089016657     A.U. after    9 cycles
 Normal termination of Gaussian 16 at Wed Apr  9 02:15:58 2025.
 Gaussian 16:  ES64L-G16RevC.01  3-Jul-2019

 ----------------------------------------------------------------------
 #t hf aug-cc-pvdz iop(5/13=1,5/36=2,99/5=2) pseudo=read geom=check gue
 ss=(read,tcheck) scf=(maxcycle=1)
 ----------------------------------------------------------------------
 -----
 title
 -----
 Structure from the checkpoint file:  "CARBHB12_10_mol2.chk"
 Charge =  0 Multiplicity = 1

                         Standard orientation:
 ---------------------------------------------------------------------
 Center     Atomic      Atomic             Coordinates (Angstroms)
 Number     Number       Type             X           Y           Z
 ---------------------------------------------------------------------
      1         17           0        0.000000    0.000000    0.075395
      2          1           0        0.000000    0.000000   -1.281714
 ---------------------------------------------------------------------

 SCF Done:  E(RHF) =  -460.166240869     A.U. after    2 cycles

 The electronic state is 1-SG.
 Alpha  occ. eigenvalues -- -105.58795 -10.63377  -7.80331  -7.79953  -7.79953
 Alpha  occ. eigenvalues --   -1.06130  -0.61746  -0.48474  -0.48474
 Alpha virt. eigenvalues --    0.03264   0.12780   0.14060   0.14060   0.15819
 Alpha virt. eigenvalues --    0.21324   0.30788   0.30788   0.45636   0.45636
 Alpha virt. eigenvalues --    0.47375   0.57893   0.58865   0.58865   0.88370

 Mulliken charges:
               1
     1  Cl  -0.232137
     2  H    0.232137
 Sum of Mulliken charges =   0.00000

 Dipole moment (field-independent basis, Debye):
    X=             -0.0000    Y=              0.0000    Z=             -1.3753  Tot=              1.3753

 Test job not archived.
 1\1\GINC-SE364\SP\RHF\Aug-CC-pVDZ\Cl1H1\OHZDE\09-Apr-2025\0\\#t hf aug
 -cc-pvdz iop(5/13=1,5/36=2,99/5=2) pseudo=read geom=check guess=(read,
 tcheck) scf=(maxcycle=1)\\title\\0,1\Cl,0,0.,0.,-0.6785546\H,0,0.,0.,0
 .6785546\\Version=ES64L-G16RevC.01\State=1-SG\HF=-460.1662409\RMSD=4.1
 06e-03\Dipole=0.,0.,0.5410982\Quadrupole=-1.0490105,-1.0490105,2.09802
 09,0.,0.,0.\PG=C*V [C*(H1Cl1)]\\@

 Normal termination of Gaussian 16 at Wed Apr  9 02:15:59 2025.
