 Gaussian 16, Revision C.01,

 ----------------------------------------------------------------------
 #t hf aug-cc-pvdz symm=none int=(grid=ultrafine) guess=(read,tcheck) s
 table=(opt,rrhf)
 ----------------------------------------------------------------------
 -----
 title
 -----
 Symbolic Z-matrix:
 Charge =  0 Multiplicity = 1

 SCF Done:  E(RHF) =  -1913.70569261     A.U. after   11 cycles
 Normal termination of Gaussian 16 at Wed Apr  9 02:18:37 2025.
 Gaussian 16:  ES64L-G16RevC.01  3-Jul-2019

 ----------------------------------------------------------------------
 #t hf aug-cc-pvdz iop(5/13=1,5/36=2,99/5=2) pseudo=read geom=check gue
 ss=(read,tcheck) scf=(maxcycle=1)
 ----------------------------------------------------------------------
 -----
 title
 -----
 Structure from the checkpoint file:  "Cl-set_c2cl4_c2cl4_090_dimer_mol2.chk"
 Charge =  0 Multiplicity = 1

                         Standard orientation:
 ---------------------------------------------------------------------
 Center     Atomic      Atomic             Coordinates (Angstroms)
 Number     Number       Type             X           Y           Z
 ---------------------------------------------------------------------
      1          6           0        0.000000    0.667040   -0.000157
      2          6           0       -0.000000   -0.667040   -0.000157
      3         17           0        0.000000   -1.585100    1.446413
      4         17           0        0.000000    1.585100    1.446413
      5         17           0        0.000000    1.585730   -1.446357
      6         17           0       -0.000000   -1.585730   -1.446357
 ---------------------------------------------------------------------

 SCF Done:  E(RHF) =  -1914.08102859     A.U. after    2 cycles

 The electronic state is 1-A1.
 Alpha  occ. eigenvalues -- -105.61047-105.61046-105.61045-105.61044 -11.39579
 Alpha  occ. eigenvalues --  -11.39461 -10.65908 -10.65907 -10.65903 -10.65903
 Alpha  occ. eigenvalues --   -7.82888  -7.82885  -7.82881  -7.82868  -7.82428
 Alpha  occ. eigenvalues --   -7.82426  -7.82420  -7.82417  -7.82414  -7.82413
 Alpha  occ. eigenvalues --   -7.82412  -7.82409  -1.25186  -1.16465  -1.10717
 Alpha  occ. eigenvalues --   -1.07477  -0.97971  -0.75817  -0.69766  -0.68260
 Alpha  occ. eigenvalues --   -0.63362  -0.59400  -0.54773  -0.52641  -0.51661
 Alpha  occ. eigenvalues --   -0.51152  -0.50382  -0.49633  -0.46176  -0.37623
 Alpha virt. eigenvalues --    0.05797   0.07311   0.07328   0.08831   0.09305
 Alpha virt. eigenvalues --    0.11266   0.11866   0.12389   0.13619   0.14619
 Alpha virt. eigenvalues --    0.14698   0.14969   0.17002   0.17225   0.17915

 Mulliken charges:
               1
     1  C    0.078219
     2  C    0.078219
     3  Cl  -0.039177
     4  Cl  -0.039177
     5  Cl  -0.039042
     6  Cl  -0.039042
 Sum of Mulliken charges =  -0.00000

 Dipole moment (field-independent basis, Debye):
    X=             -0.0000    Y=             -0.0000    Z=             -0.0004  Tot=              0.0004

 Test job not archived.
 1\1\GINC-SE273\SP\RHF\Aug-CC-pVDZ\C2Cl4\OHZDE\09-Apr-2025\0\\#t hf aug
 -cc-pvdz iop(5/13=1,5/36=2,99/5=2) pseudo=read geom=check guess=(read,
 tcheck) scf=(maxcycle=1)\\title\\0,1\C,0,0.,0.66704,0.00016\C,0,0.,-0.
 66704,0.00016\Cl,0,0.,-1.5851,-1.44641\Cl,0,0.,1.5851,-1.44641\Cl,0,0.
 ,1.58573,1.44636\Cl,0,0.,-1.58573,1.44636\\Version=ES64L-G16RevC.01\St
 ate=1-A1\HF=-1914.0810286\RMSD=9.806e-03\Dipole=0.,0.,0.0001445\Quadru
 pole=-1.1997032,-0.2165366,1.4162397,0.,0.,0.\PG=C02V [SGV(C2Cl4)]\\@

 Normal termination of Gaussian 16 at Wed Apr  9 02:18:40 2025.
