 Gaussian 16, Revision C.01,

 ----------------------------------------------------------------------
 #t hf aug-cc-pvdz symm=none int=(grid=ultrafine) guess=(read,tcheck) s
 table=(opt,rrhf)
 ----------------------------------------------------------------------
 -----
 title
 -----
 Symbolic Z-matrix:
 Charge =  0 Multiplicity = 1

 SCF Done:  E(RHF) =  -1491.82019233     A.U. after   12 cycles
 Normal termination of Gaussian 16 at Wed Apr  9 02:19:02 2025.
 Gaussian 16:  ES64L-G16RevC.01  3-Jul-2019

 ----------------------------------------------------------------------
 #t hf aug-cc-pvdz iop(5/13=1,5/36=2,99/5=2) pseudo=read geom=check gue
 ss=(read,tcheck) scf=(maxcycle=1)
 ----------------------------------------------------------------------
 -----
 title
 -----
 Structure from the checkpoint file:  "Cl-set_ccl3oh_ccl3oh_090_dimer_mol2.chk"
 Charge =  0 Multiplicity = 1

                         Standard orientation:
 ---------------------------------------------------------------------
 Center     Atomic      Atomic             Coordinates (Angstroms)
 Number     Number       Type             X           Y           Z
 ---------------------------------------------------------------------
      1          6           0       -0.025299   -0.000149    0.284450
      2          8           0       -0.084819   -0.001278    1.630350
      3          1           0        0.806691    0.009247    1.989580
      4         17           0        0.862677   -1.438824   -0.333550
      5         17           0       -1.682050   -0.023862   -0.317780
      6         17           0        0.820765    1.462796   -0.333320
 ---------------------------------------------------------------------

 SCF Done:  E(RHF) =  -1492.15712398     A.U. after    2 cycles

 The electronic state is 1-A.
 Alpha  occ. eigenvalues -- -105.59985-105.59743-105.59740 -20.62762 -11.50598
 Alpha  occ. eigenvalues --  -10.64912 -10.64657 -10.64645  -7.81868  -7.81593
 Alpha  occ. eigenvalues --   -7.81582  -7.81406  -7.81406  -7.81164  -7.81161
 Alpha  occ. eigenvalues --   -7.81154  -7.81149  -1.56710  -1.19182  -1.08257
 Alpha  occ. eigenvalues --   -1.07512  -0.87666  -0.75537  -0.69519  -0.69419
 Alpha  occ. eigenvalues --   -0.59345  -0.55238  -0.51853  -0.51144  -0.49449
 Alpha  occ. eigenvalues --   -0.47701  -0.47262  -0.46232
 Alpha virt. eigenvalues --    0.03612   0.06779   0.08547   0.08602   0.09792
 Alpha virt. eigenvalues --    0.11906   0.12498   0.14285   0.14555   0.14636
 Alpha virt. eigenvalues --    0.15525   0.18642   0.18823   0.19048   0.21062

 Mulliken charges:
               1
     1  C    0.097028
     2  O   -1.004729
     3  H    0.387529
     4  Cl   0.165038
     5  Cl   0.189595
     6  Cl   0.165540
 Sum of Mulliken charges =  -0.00000

 Dipole moment (field-independent basis, Debye):
    X=              1.1214    Y=              0.0148    Z=              1.0813  Tot=              1.5579

 Test job not archived.
 1\1\GINC-SE398\SP\RHF\Aug-CC-pVDZ\C1H1Cl3O1\OHZDE\09-Apr-2025\0\\#t hf
  aug-cc-pvdz iop(5/13=1,5/36=2,99/5=2) pseudo=read geom=check guess=(r
 ead,tcheck) scf=(maxcycle=1)\\title\\0,1\C,0,-0.0253,-0.00015,0.28445\
 O,0,-0.08482,-0.00128,1.63035\H,0,0.80669,0.00926,1.98958\Cl,0,0.8627,
 -1.43881,-0.33355\Cl,0,-1.68205,-0.02389,-0.31778\Cl,0,0.82074,1.46281
 ,-0.33332\\Version=ES64L-G16RevC.01\State=1-A\HF=-1492.157124\RMSD=5.4
 62e-03\Dipole=0.4411958,0.0058326,0.4254084\Quadrupole=0.4134593,-1.20
 3276,0.7898167,0.0214653,2.7018485,0.0318728\PG=C01 [X(C1H1Cl3O1)]\\@

 Normal termination of Gaussian 16 at Wed Apr  9 02:19:04 2025.
