 Gaussian 16, Revision C.01,

 ----------------------------------------------------------------------
 #t hf aug-cc-pvdz symm=none int=(grid=ultrafine) guess=(read,tcheck) s
 table=(opt,rrhf)
 ----------------------------------------------------------------------
 -----
 title
 -----
 Symbolic Z-matrix:
 Charge =  0 Multiplicity = 1

 SCF Done:  E(RHF) =  -1604.57865239     A.U. after   14 cycles
 Normal termination of Gaussian 16 at Wed Apr  9 02:19:10 2025.
 Gaussian 16:  ES64L-G16RevC.01  3-Jul-2019

 ----------------------------------------------------------------------
 #t hf aug-cc-pvdz iop(5/13=1,5/36=2,99/5=2) pseudo=read geom=check gue
 ss=(read,tcheck) scf=(maxcycle=1)
 ----------------------------------------------------------------------
 -----
 title
 -----
 Structure from the checkpoint file:  "Cl-set_ccl3co2h_ccl3co2h_090_dimer_mol2.chk"
 Charge =  0 Multiplicity = 1

                         Standard orientation:
 ---------------------------------------------------------------------
 Center     Atomic      Atomic             Coordinates (Angstroms)
 Number     Number       Type             X           Y           Z
 ---------------------------------------------------------------------
      1          6           0        1.261500    0.459936   -0.000350
      2          8           0        2.090865   -0.577950   -0.000180
      3          8           0        1.589444    1.602798   -0.000590
      4          1           0        2.989483   -0.233325   -0.000320
      5          6           0       -0.216088   -0.018571   -0.000010
      6         17           0       -0.490493   -0.998573   -1.456110
      7         17           0       -0.490833   -0.994753    1.458570
      8         17           0       -1.295405    1.368993   -0.001950
 ---------------------------------------------------------------------

 SCF Done:  E(RHF) =  -1605.02174600     A.U. after    2 cycles

 The electronic state is 1-A.
 Alpha  occ. eigenvalues -- -105.60818-105.60816-105.60208 -20.63593 -20.58014
 Alpha  occ. eigenvalues --  -11.46572 -11.44366 -10.65676 -10.65666 -10.65082
 Alpha  occ. eigenvalues --   -7.82629  -7.82624  -7.82180  -7.82177  -7.82171
 Alpha  occ. eigenvalues --   -7.82169  -7.82044  -7.81585  -7.81580  -1.59703
 Alpha  occ. eigenvalues --   -1.50292  -1.23787  -1.08553  -1.08208  -0.96697
 Alpha  occ. eigenvalues --   -0.82700  -0.74961  -0.73760  -0.69264  -0.64466
 Alpha  occ. eigenvalues --   -0.63567  -0.63442  -0.53778  -0.52567  -0.51570
 Alpha  occ. eigenvalues --   -0.51064  -0.48419  -0.48137  -0.46661  -0.46439
 Alpha virt. eigenvalues --    0.03243   0.06531   0.07704   0.08392   0.09337
 Alpha virt. eigenvalues --    0.09550   0.09980   0.12294   0.13278   0.13669
 Alpha virt. eigenvalues --    0.14474   0.14868   0.16912   0.17189   0.18054

 Mulliken charges:
               1
     1  C    2.357678
     2  O   -1.100359
     3  O   -1.032971
     4  H    0.368917
     5  C   -1.139361
     6  Cl   0.165550
     7  Cl   0.165747
     8  Cl   0.214799
 Sum of Mulliken charges =  -0.00000

 Dipole moment (field-independent basis, Debye):
    X=              1.4544    Y=             -1.1261    Z=              0.0002  Tot=              1.8394

 Test job not archived.
 1\1\GINC-SE131\SP\RHF\Aug-CC-pVDZ\C2H1Cl3O2\OHZDE\09-Apr-2025\0\\#t hf
  aug-cc-pvdz iop(5/13=1,5/36=2,99/5=2) pseudo=read geom=check guess=(r
 ead,tcheck) scf=(maxcycle=1)\\title\\0,1\C,0,-1.2615,0.45993,0.00035\O
 ,0,-2.09086,-0.57796,0.00018\O,0,-1.58945,1.60279,0.00059\H,0,-2.98948
 ,-0.23334,0.00032\C,0,0.21609,-0.01857,0.00001\Cl,0,0.4905,-0.99857,1.
 45611\Cl,0,0.49084,-0.99475,-1.45857\Cl,0,1.2954,1.369,0.00195\\Versio
 n=ES64L-G16RevC.01\State=1-A\HF=-1605.021746\RMSD=7.843e-03\Dipole=-0.
 5722103,-0.4430575,-0.0000591\Quadrupole=4.3888796,-4.2792263,-0.10965

 Normal termination of Gaussian 16 at Wed Apr  9 02:19:13 2025.
