 Gaussian 16, Revision C.01,

 ----------------------------------------------------------------------
 #t hf aug-cc-pvdz symm=none int=(grid=ultrafine) guess=(read,tcheck) s
 table=(opt,rrhf)
 ----------------------------------------------------------------------
 -----
 title
 -----
 Symbolic Z-matrix:
 Charge =  0 Multiplicity = 1

 SCF Done:  E(RHF) =  -918.966082412     A.U. after    9 cycles
 Normal termination of Gaussian 16 at Wed Apr  9 02:19:00 2025.
 Gaussian 16:  ES64L-G16RevC.01  3-Jul-2019

 ----------------------------------------------------------------------
 #t hf aug-cc-pvdz iop(5/13=1,5/36=2,99/5=2) pseudo=read geom=check gue
 ss=(read,tcheck) scf=(maxcycle=1)
 ----------------------------------------------------------------------
 -----
 title
 -----
 Structure from the checkpoint file:  "Cl-set_ch4_cl2_090_dimer_mol3.chk"
 Charge =  0 Multiplicity = 1

                         Standard orientation:
 ---------------------------------------------------------------------
 Center     Atomic      Atomic             Coordinates (Angstroms)
 Number     Number       Type             X           Y           Z
 ---------------------------------------------------------------------
      1         17           0        0.000000    0.000000    0.996860
      2         17           0        0.000000    0.000000   -0.996860
 ---------------------------------------------------------------------

 SCF Done:  E(RHF) =  -919.118860953     A.U. after    2 cycles

 The electronic state is 1-SGG.
 Alpha  occ. eigenvalues -- -105.63246-105.63245 -10.67861 -10.67849  -7.84860
 Alpha  occ. eigenvalues --   -7.84821  -7.84239  -7.84239  -7.84238  -7.84238
 Alpha  occ. eigenvalues --   -1.17847  -0.97624  -0.61213  -0.58298  -0.58298
 Alpha  occ. eigenvalues --   -0.45533  -0.45533
 Alpha virt. eigenvalues --    0.01824   0.11826   0.12397   0.13556   0.13556
 Alpha virt. eigenvalues --    0.15645   0.16004   0.16004   0.29694   0.37570
 Alpha virt. eigenvalues --    0.37570   0.37787   0.37787   0.49601   0.51518

 Mulliken charges:
               1
     1  Cl  -0.000000
     2  Cl  -0.000000
 Sum of Mulliken charges =  -0.00000

 Dipole moment (field-independent basis, Debye):
    X=              0.0000    Y=             -0.0000    Z=              0.0000  Tot=              0.0000

 Test job not archived.
 1\1\GINC-SE252\SP\RHF\Aug-CC-pVDZ\Cl2\OHZDE\09-Apr-2025\0\\#t hf aug-c
 c-pvdz iop(5/13=1,5/36=2,99/5=2) pseudo=read geom=check guess=(read,tc
 heck) scf=(maxcycle=1)\\title\\0,1\Cl,0,0.,0.,0.99686\Cl,0,0.,0.,-0.99
 686\\Version=ES64L-G16RevC.01\State=1-SGG\HF=-919.118861\RMSD=2.816e-0
 3\Dipole=0.,0.,0.\Quadrupole=-0.8986702,-0.8986702,1.7973405,0.,0.,0.\
 PG=D*H [C*(Cl1.Cl1)]\\@

 Normal termination of Gaussian 16 at Wed Apr  9 02:19:02 2025.
