 Gaussian 16, Revision C.01,

 ----------------------------------------------------------------------
 #t hf aug-cc-pvdz symm=none int=(grid=ultrafine) guess=(read,tcheck) s
 table=(opt,rrhf)
 ----------------------------------------------------------------------
 -----
 title
 -----
 Symbolic Z-matrix:
 Charge =  0 Multiplicity = 1

 SCF Done:  E(RHF) =  -582.378880029     A.U. after   14 cycles
 Normal termination of Gaussian 16 at Wed Apr  9 02:17:42 2025.
 Gaussian 16:  ES64L-G16RevC.01  3-Jul-2019

 ----------------------------------------------------------------------
 #t hf aug-cc-pvdz iop(5/13=1,5/36=2,99/5=2) pseudo=read geom=check gue
 ss=(read,tcheck) scf=(maxcycle=1)
 ----------------------------------------------------------------------
 -----
 title
 -----
 Structure from the checkpoint file:  "CO2MOF_25_pycf3-1+CO2_dimer_mol2.chk"
 Charge =  0 Multiplicity = 1

                         Standard orientation:
 ---------------------------------------------------------------------
 Center     Atomic      Atomic             Coordinates (Angstroms)
 Number     Number       Type             X           Y           Z
 ---------------------------------------------------------------------
      1          6           0        0.767213    1.202821   -0.017963
      2          6           0        2.162217    1.144253    0.001412
      3          7           0        2.860300   -0.000804    0.011281
      4          6           0        2.160445   -1.145009    0.001360
      5          6           0        0.765573   -1.201406   -0.018127
      6          6           0        0.057762    0.001354   -0.029305
      7          6           0       -1.452049    0.000650   -0.004456
      8          9           0       -1.920731   -0.030343    1.275664
      9          9           0       -1.972672    1.109046   -0.591346
     10          9           0       -1.971093   -1.079902   -0.642938
     11          1           0        0.249950    2.160335   -0.031257
     12          1           0        2.748736    2.065672    0.007048
     13          1           0        0.247020   -2.158327   -0.031695
     14          1           0        2.745691   -2.067232    0.006995
 ---------------------------------------------------------------------

 SCF Done:  E(RHF) =  -582.933359703     A.U. after    2 cycles

 The electronic state is 1-A.
 Alpha  occ. eigenvalues --  -26.51601 -26.51576 -26.51133 -15.53148 -11.53843
 Alpha  occ. eigenvalues --  -11.30504 -11.30500 -11.30451 -11.27939 -11.27926
 Alpha  occ. eigenvalues --   -1.71444  -1.61883  -1.61378  -1.27962  -1.14094
 Alpha  occ. eigenvalues --   -1.06204  -0.99085  -0.90529  -0.88985  -0.81184
 Alpha  occ. eigenvalues --   -0.81163  -0.80995  -0.72033  -0.71309  -0.69423
 Alpha  occ. eigenvalues --   -0.68436  -0.67763  -0.64747  -0.64174  -0.62884
 Alpha  occ. eigenvalues --   -0.62503  -0.58736  -0.58186  -0.56002  -0.47905
 Alpha  occ. eigenvalues --   -0.43296  -0.37969
 Alpha virt. eigenvalues --    0.03157   0.03858   0.04960   0.05147   0.05225
 Alpha virt. eigenvalues --    0.07976   0.08232   0.08893   0.09395   0.11309
 Alpha virt. eigenvalues --    0.11916   0.11950   0.12239   0.14021   0.14369

 Mulliken charges:
               1
     1  C    0.788001
     2  C   -1.220574
     3  N    1.080781
     4  C   -1.219732
     5  C    0.766828
     6  C    0.182061
     7  C    2.699208
     8  F   -0.739198
     9  F   -0.815810
    10  F   -0.810842
    11  H   -0.195576
    12  H   -0.157801
    13  H   -0.199784
    14  H   -0.157563
 Sum of Mulliken charges =  -0.00000

 Dipole moment (field-independent basis, Debye):
    X=              0.1245    Y=              0.0076    Z=             -0.0970  Tot=              0.1580

 Test job not archived.
 1\1\GINC-SE366\SP\RHF\Aug-CC-pVDZ\C6H4F3N1\OHZDE\09-Apr-2025\0\\#t hf
 aug-cc-pvdz iop(5/13=1,5/36=2,99/5=2) pseudo=read geom=check guess=(re
 ad,tcheck) scf=(maxcycle=1)\\title\\0,1\C,0,1.3498885,0.0283893,1.8089
 114\C,0,0.151214,0.0485684,1.0929406\N,0,0.0818715,0.0158807,-0.245975
 5\C,0,1.2412168,-0.0396283,-0.9182373\C,0,2.4944347,-0.0643441,-0.3033
 682\C,0,2.544871,-0.0307655,1.0909342\C,0,3.8735968,-0.0092876,1.80799
 51\F,0,4.3264734,1.2676545,1.9617856\F,0,3.7926037,-0.5542128,3.049173
 7\F,0,4.8309208,-0.6900404,1.1262577\H,0,1.3492989,0.0508323,2.8970592

 Normal termination of Gaussian 16 at Wed Apr  9 02:17:47 2025.
