 Gaussian 16, Revision C.01,

 ----------------------------------------------------------------------
 #t hf aug-cc-pvdz symm=none int=(grid=ultrafine) guess=(read,tcheck) s
 table=(opt,rrhf)
 ----------------------------------------------------------------------
 -----
 title
 -----
 Symbolic Z-matrix:
 Charge =  0 Multiplicity = 1

 SCF Done:  E(RHF) =  -836.441445805     A.U. after   17 cycles
 Normal termination of Gaussian 16 at Wed Apr  9 02:18:14 2025.
 Gaussian 16:  ES64L-G16RevC.01  3-Jul-2019

 ----------------------------------------------------------------------
 #t hf aug-cc-pvdz iop(5/13=1,5/36=2,99/5=2) pseudo=read geom=check gue
 ss=(read,tcheck) scf=(maxcycle=1)
 ----------------------------------------------------------------------
 -----
 title
 -----
 Structure from the checkpoint file:  "CO2MOF_22_cbIm-1+CO2_dimer_mol2.chk"
 Charge =  0 Multiplicity = 1

                         Standard orientation:
 ---------------------------------------------------------------------
 Center     Atomic      Atomic             Coordinates (Angstroms)
 Number     Number       Type             X           Y           Z
 ---------------------------------------------------------------------
      1          7           0       -2.003423   -1.483235    0.000001
      2          6           0       -0.873960   -0.671728   -0.000014
      3          6           0       -1.249688    0.699474   -0.000012
      4          7           0       -2.635114    0.678363    0.000005
      5          6           0       -3.018545   -0.647110    0.000012
      6          6           0       -0.309799    1.731273   -0.000003
      7          6           0        1.034312    1.364906   -0.000000
      8          6           0        1.408230    0.006155   -0.000003
      9          6           0        0.480368   -1.029594   -0.000011
     10         17           0        3.115289   -0.380612    0.000007
     11          1           0        0.788532   -2.072599   -0.000011
     12          1           0        1.810882    2.126747    0.000006
     13          1           0       -4.066543   -0.933393    0.000026
     14          1           0       -3.251444    1.481384    0.000006
     15          1           0       -0.597093    2.782111    0.000005
 ---------------------------------------------------------------------

 SCF Done:  E(RHF) =  -836.896485870     A.U. after    2 cycles

 The electronic state is 1-A.
 Alpha  occ. eigenvalues -- -105.56603 -15.57422 -15.50468 -11.33557 -11.30657
 Alpha  occ. eigenvalues --  -11.29196 -11.27602 -11.26632 -11.26054 -11.25848
 Alpha  occ. eigenvalues --  -10.61412  -7.78381  -7.77985  -7.77963  -1.35030
 Alpha  occ. eigenvalues --   -1.19514  -1.17196  -1.08851  -1.02837  -0.99026
 Alpha  occ. eigenvalues --   -0.88253  -0.87573  -0.83920  -0.77568  -0.71981
 Alpha  occ. eigenvalues --   -0.68489  -0.64934  -0.64668  -0.63355  -0.62204
 Alpha  occ. eigenvalues --   -0.55799  -0.54691  -0.54035  -0.48873  -0.47665
 Alpha  occ. eigenvalues --   -0.46190  -0.46070  -0.34086  -0.32575
 Alpha virt. eigenvalues --    0.02021   0.03382   0.04303   0.05260   0.06113
 Alpha virt. eigenvalues --    0.07071   0.08988   0.09711   0.09969   0.10541
 Alpha virt. eigenvalues --    0.10546   0.12012   0.12521   0.12628   0.13813

 Mulliken charges:
               1
     1  N    1.041646
     2  C   -1.929126
     3  C   -0.938573
     4  N    0.894144
     5  C   -0.923803
     6  C    1.278548
     7  C    0.229300
     8  C   -0.050358
     9  C    1.388774
    10  Cl  -0.334647
    11  H   -0.112260
    12  H   -0.172582
    13  H   -0.078239
    14  H   -0.025943
    15  H   -0.266882
 Sum of Mulliken charges =   0.00000

 Dipole moment (field-independent basis, Debye):
    X=             -3.8953    Y=              3.6605    Z=              0.0000  Tot=              5.3453

 Test job not archived.
 1\1\GINC-SE292\SP\RHF\Aug-CC-pVDZ\C7H5Cl1N2\OHZDE\09-Apr-2025\0\\#t hf
  aug-cc-pvdz iop(5/13=1,5/36=2,99/5=2) pseudo=read geom=check guess=(r
 ead,tcheck) scf=(maxcycle=1)\\title\\0,1\N,0,-1.0127732,0.0002714,-1.1
 230068\C,0,0.0655517,-0.0020189,-0.2446909\C,0,1.2910329,-0.0002233,-0
 .9654944\N,0,0.9088213,0.0032014,-2.2973178\C,0,-0.4707897,0.0033177,-
 2.3212647\C,0,2.5324931,-0.0018825,-0.3277059\C,0,2.5298853,-0.00543,1
 .0654343\C,0,1.3159503,-0.007214,1.7812402\C,0,0.0738184,-0.0055863,1.
 1560923\Cl,0,1.3884422,-0.0116636,3.5300578\H,0,-0.8525026,-0.0070058,

 Normal termination of Gaussian 16 at Wed Apr  9 02:18:21 2025.
