 Gaussian 16, Revision C.01,

 ----------------------------------------------------------------------
 #t hf aug-cc-pvdz symm=none int=(grid=ultrafine) guess=(read,tcheck) s
 table=(opt,rrhf)
 ----------------------------------------------------------------------
 -----
 title
 -----
 Symbolic Z-matrix:
 Charge =  0 Multiplicity = 1

 SCF Done:  E(RHF) =  -1024.10256905     A.U. after   17 cycles
 Normal termination of Gaussian 16 at Wed Apr  9 02:19:40 2025.
 Gaussian 16:  ES64L-G16RevC.01  3-Jul-2019

 ----------------------------------------------------------------------
 #t hf aug-cc-pvdz iop(5/13=1,5/36=2,99/5=2) pseudo=read geom=check gue
 ss=(read,tcheck) scf=(maxcycle=1)
 ----------------------------------------------------------------------
 -----
 title
 -----
 Structure from the checkpoint file:  "CO2MOF_22_cbIm-1+CO2_dimer_mol1.chk"
 Charge =  0 Multiplicity = 1

                         Standard orientation:
 ---------------------------------------------------------------------
 Center     Atomic      Atomic             Coordinates (Angstroms)
 Number     Number       Type             X           Y           Z
 ---------------------------------------------------------------------
      1          6           0       -0.793319    0.160900   -0.947100
      2          6           0        0.457061   -0.449731   -0.784398
      3          6           0        0.654407   -1.413221    0.242207
      4          6           0       -0.364882   -1.789292    1.117930
      5          6           0       -1.604267   -1.176301    0.948898
      6          6           0       -1.801131   -0.220343   -0.067953
      7          7           0        1.982407   -1.785474    0.116621
      8          6           0        2.511129   -1.055269   -0.925485
      9          7           0        1.638293   -0.249808   -1.492864
     10         17           0       -3.382348    0.513091   -0.217583
     11          1           0       -0.961207    0.905767   -1.721240
     12          1           0       -2.435202   -1.428873    1.604078
     13          1           0        3.551375   -1.159077   -1.220325
     14          1           0        2.484833   -2.435935    0.707554
     15          1           0       -0.213770   -2.524648    1.907209
     16          6           0        1.605907    2.167781    0.654810
     17          8           0        1.035963    2.930495   -0.024894
     18          8           0        2.181482    1.422011    1.352630
 ---------------------------------------------------------------------

 SCF Done:  E(RHF) =  -1024.72814581     A.U. after    2 cycles

 The electronic state is 1-A.
 Alpha  occ. eigenvalues -- -105.56774 -20.63083 -20.63062 -15.57647 -15.50751
 Alpha  occ. eigenvalues --  -11.46951 -11.33887 -11.30899 -11.29459 -11.27859
 Alpha  occ. eigenvalues --  -11.26830 -11.26319 -11.26118 -10.61581  -7.78550
 Alpha  occ. eigenvalues --   -7.78153  -7.78132  -1.59065  -1.55296  -1.35325
 Alpha  occ. eigenvalues --   -1.19784  -1.17464  -1.09081  -1.03116  -0.99267
 Alpha  occ. eigenvalues --   -0.88498  -0.87807  -0.84195  -0.79967  -0.77807
 Alpha  occ. eigenvalues --   -0.73160  -0.72246  -0.70170  -0.69837  -0.68694
 Alpha  occ. eigenvalues --   -0.65016  -0.64867  -0.63581  -0.62443  -0.56035
 Alpha  occ. eigenvalues --   -0.54917  -0.54324  -0.52277  -0.52248  -0.49171
 Alpha  occ. eigenvalues --   -0.48018  -0.46406  -0.46227  -0.34398  -0.32855
 Alpha virt. eigenvalues --    0.02109   0.03329   0.04166   0.05468   0.06002
 Alpha virt. eigenvalues --    0.06722   0.07335   0.08838   0.09286   0.09797
 Alpha virt. eigenvalues --    0.10274   0.10492   0.11417   0.11539   0.12153

 Mulliken charges:
               1
     1  C    1.343261
     2  C   -1.695712
     3  C   -0.880083
     4  C    1.108887
     5  C    0.378606
     6  C   -0.254276
     7  N    1.104417
     8  C   -1.200530
     9  N    1.149660
    10  Cl  -0.322882
    11  H   -0.136922
    12  H   -0.180087
    13  H   -0.134738
    14  H   -0.037554
    15  H   -0.271885
    16  C    1.252987
    17  O   -0.623103
    18  O   -0.600043
 Sum of Mulliken charges =  -0.00000

 Dipole moment (field-independent basis, Debye):
    X=              3.1976    Y=             -3.5217    Z=              2.4758  Tot=              5.3625

 Test job not archived.
 1\1\GINC-SE341\SP\RHF\Aug-CC-pVDZ\C8H5Cl1N2O2\OHZDE\09-Apr-2025\0\\#t
 hf aug-cc-pvdz iop(5/13=1,5/36=2,99/5=2) pseudo=read geom=check guess=
 (read,tcheck) scf=(maxcycle=1)\\title\\0,1\C,0,0.4293805,-0.5304066,1.
 609173\C,0,0.3055493,-0.0096559,0.3144614\C,0,1.436631,0.0469328,-0.54
 49732\C,0,2.6968366,-0.4035409,-0.1497198\C,0,2.8103374,-0.9189185,1.1
 394307\C,0,1.6899971,-0.9749035,1.9928372\N,0,0.9564237,0.6181706,-1.7
 115993\C,0,-0.3812921,0.8821831,-1.5127347\N,0,-0.8120824,0.5220317,-0
 .3222563\Cl,0,1.9079644,-1.6290424,3.600679\H,0,-0.4223595,-0.574483,2

 Normal termination of Gaussian 16 at Wed Apr  9 02:19:54 2025.
