 Gaussian 16, Revision C.01,

 ----------------------------------------------------------------------
 #t hf aug-cc-pvdz symm=none int=(grid=ultrafine) guess=(read,tcheck) s
 table=(opt,rrhf)
 ----------------------------------------------------------------------
 -----
 title
 -----
 Symbolic Z-matrix:
 Charge =  0 Multiplicity = 1

 SCF Done:  E(RHF) =  -1024.10264794     A.U. after   17 cycles
 Normal termination of Gaussian 16 at Wed Apr  9 02:19:20 2025.
 Gaussian 16:  ES64L-G16RevC.01  3-Jul-2019

 ----------------------------------------------------------------------
 #t hf aug-cc-pvdz iop(5/13=1,5/36=2,99/5=2) pseudo=read geom=check gue
 ss=(read,tcheck) scf=(maxcycle=1)
 ----------------------------------------------------------------------
 -----
 title
 -----
 Structure from the checkpoint file:  "CO2MOF_23_cbIm-2+CO2_dimer_mol1.chk"
 Charge =  0 Multiplicity = 1

                         Standard orientation:
 ---------------------------------------------------------------------
 Center     Atomic      Atomic             Coordinates (Angstroms)
 Number     Number       Type             X           Y           Z
 ---------------------------------------------------------------------
      1          6           0        0.195279   -0.361732   -0.024181
      2          6           0        1.558902   -0.682827   -0.007584
      3          6           0        2.536540    0.349528    0.014415
      4          6           0        2.194218    1.702546    0.020260
      5          6           0        0.836178    2.012647    0.003934
      6          6           0       -0.131856    0.989255   -0.017585
      7          7           0        3.748356   -0.321730    0.026425
      8          6           0        3.461942   -1.671638    0.011863
      9          7           0        2.172904   -1.930640   -0.008576
     10         17           0       -1.820705    1.460335   -0.035531
     11          1           0       -0.567632   -1.136458   -0.041529
     12          1           0        0.509807    3.050417    0.007803
     13          1           0        4.251422   -2.417959    0.017446
     14          1           0        4.670204    0.096184    0.042892
     15          1           0        2.942577    2.494037    0.036899
     16          6           0       -3.914129   -1.138600    0.018543
     17          8           0       -4.788950   -0.365034    0.100489
     18          8           0       -3.051757   -1.927517   -0.063292
 ---------------------------------------------------------------------

 SCF Done:  E(RHF) =  -1024.72932440     A.U. after    2 cycles

 The electronic state is 1-A.
 Alpha  occ. eigenvalues -- -105.57068 -20.63297 -20.63266 -15.57451 -15.50473
 Alpha  occ. eigenvalues --  -11.47157 -11.33558 -11.30788 -11.29266 -11.27624
 Alpha  occ. eigenvalues --  -11.26694 -11.26181 -11.25820 -10.61883  -7.78849
 Alpha  occ. eigenvalues --   -7.78466  -7.78436  -1.59226  -1.55497  -1.35055
 Alpha  occ. eigenvalues --   -1.19539  -1.17335  -1.09076  -1.02906  -0.99214
 Alpha  occ. eigenvalues --   -0.88343  -0.87604  -0.84004  -0.80168  -0.77617
 Alpha  occ. eigenvalues --   -0.73340  -0.72047  -0.70187  -0.70016  -0.68539
 Alpha  occ. eigenvalues --   -0.64958  -0.64743  -0.63381  -0.62280  -0.55966
 Alpha  occ. eigenvalues --   -0.54791  -0.54267  -0.52456  -0.52417  -0.48869
 Alpha  occ. eigenvalues --   -0.47693  -0.46638  -0.46465  -0.34154  -0.32712
 Alpha virt. eigenvalues --    0.01996   0.03361   0.04244   0.05546   0.06052
 Alpha virt. eigenvalues --    0.07031   0.07843   0.09204   0.09538   0.10386
 Alpha virt. eigenvalues --    0.10435   0.10535   0.10689   0.12121   0.12524

 Mulliken charges:
               1
     1  C    1.922310
     2  C   -2.415567
     3  C   -0.746185
     4  C    1.076900
     5  C    0.297455
     6  C   -0.197225
     7  N    0.903040
     8  C   -0.991649
     9  N    1.171367
    10  Cl  -0.350723
    11  H   -0.053429
    12  H   -0.195665
    13  H   -0.101951
    14  H   -0.026227
    15  H   -0.276490
    16  C    1.122862
    17  O   -0.618976
    18  O   -0.519848
 Sum of Mulliken charges =  -0.00000

 Dipole moment (field-independent basis, Debye):
    X=              5.2939    Y=              1.4230    Z=              0.0798  Tot=              5.4824

 Test job not archived.
 1\1\GINC-SE402\SP\RHF\Aug-CC-pVDZ\C8H5Cl1N2O2\OHZDE\09-Apr-2025\0\\#t
 hf aug-cc-pvdz iop(5/13=1,5/36=2,99/5=2) pseudo=read geom=check guess=
 (read,tcheck) scf=(maxcycle=1)\\title\\0,1\C,0,0.3640001,0.0213539,1.2
 139623\C,0,0.1995157,0.0090632,-0.1773096\C,0,1.3360602,-0.0041833,-1.
 0317733\C,0,2.6416077,-0.005399,-0.5383974\C,0,2.7958029,0.0065953,0.8
 460816\C,0,1.6692538,0.0194419,1.6920172\N,0,0.8064529,-0.0140988,-2.3
 118705\C,0,-0.5672653,-0.0068008,-2.1801782\N,0,-0.9707082,0.0070431,-
 0.9287151\Cl,0,1.9459106,0.0323843,3.4234163\H,0,-0.4922312,0.0320109,

 Normal termination of Gaussian 16 at Wed Apr  9 02:19:32 2025.
