 Gaussian 16, Revision C.01,

 ----------------------------------------------------------------------
 #t hf aug-cc-pvdz symm=none int=(grid=ultrafine) guess=(read,tcheck) s
 table=(opt,rrhf)
 ----------------------------------------------------------------------
 -----
 title
 -----
 Symbolic Z-matrix:
 Charge =  0 Multiplicity = 1

 SCF Done:  E(RHF) =  -770.038610947     A.U. after   15 cycles
 Normal termination of Gaussian 16 at Wed Apr  9 02:18:53 2025.
 Gaussian 16:  ES64L-G16RevC.01  3-Jul-2019

 ----------------------------------------------------------------------
 #t hf aug-cc-pvdz iop(5/13=1,5/36=2,99/5=2) pseudo=read geom=check gue
 ss=(read,tcheck) scf=(maxcycle=1)
 ----------------------------------------------------------------------
 -----
 title
 -----
 Structure from the checkpoint file:  "CO2MOF_26_pycf3-2+CO2_dimer_mol1.chk"
 Charge =  0 Multiplicity = 1

                         Standard orientation:
 ---------------------------------------------------------------------
 Center     Atomic      Atomic             Coordinates (Angstroms)
 Number     Number       Type             X           Y           Z
 ---------------------------------------------------------------------
      1          6           0        0.582239    0.581693    0.125015
      2          6           0        0.206450    1.428644   -0.917287
      3          6           0       -0.977045    2.157060   -0.780251
      4          7           0       -1.774332    2.088090    0.295448
      5          6           0       -1.395203    1.269605    1.288607
      6          6           0       -0.232561    0.497193    1.255862
      7          6           0        1.816530   -0.280356    0.013597
      8          9           0        2.421499   -0.460622    1.215550
      9          9           0        1.500558   -1.521175   -0.461942
     10          9           0        2.736916    0.246243   -0.832072
     11          1           0        0.816054    1.519855   -1.813975
     12          1           0       -1.301867    2.828282   -1.578059
     13          1           0        0.028127   -0.151295    2.090161
     14          1           0       -2.055516    1.227626    2.157537
     15          6           0       -2.043338   -1.740473   -0.368584
     16          8           0       -2.022106   -1.197051   -1.405346
     17          8           0       -2.070352   -2.290613    0.665424
 ---------------------------------------------------------------------

 SCF Done:  E(RHF) =  -770.764057992     A.U. after    2 cycles

 The electronic state is 1-A.
 Alpha  occ. eigenvalues --  -26.51899 -26.51802 -26.51500 -20.64145 -20.64126
 Alpha  occ. eigenvalues --  -15.53438 -11.54124 -11.47969 -11.30748 -11.30693
 Alpha  occ. eigenvalues --  -11.30680 -11.28205 -11.28137  -1.71732  -1.62170
 Alpha  occ. eigenvalues --   -1.61682  -1.60101  -1.56339  -1.28242  -1.14386
 Alpha  occ. eigenvalues --   -1.06462  -0.99358  -0.90776  -0.89263  -0.81473
 Alpha  occ. eigenvalues --   -0.81426  -0.81271  -0.80969  -0.74131  -0.72279
 Alpha  occ. eigenvalues --   -0.71566  -0.71079  -0.70877  -0.69663  -0.68741
 Alpha  occ. eigenvalues --   -0.67967  -0.65000  -0.64477  -0.63166  -0.62759
 Alpha  occ. eigenvalues --   -0.59012  -0.58420  -0.56223  -0.53339  -0.53253
 Alpha  occ. eigenvalues --   -0.48138  -0.43622  -0.38229
 Alpha virt. eigenvalues --    0.03234   0.04024   0.04852   0.05122   0.05240
 Alpha virt. eigenvalues --    0.06509   0.07893   0.07994   0.08669   0.09535
 Alpha virt. eigenvalues --    0.10144   0.10977   0.12206   0.12783   0.13149

 Mulliken charges:
               1
     1  C    0.175694
     2  C    0.861050
     3  C   -1.337907
     4  N    1.422322
     5  C   -1.547771
     6  C    0.992463
     7  C    2.729398
     8  F   -0.812790
     9  F   -0.827615
    10  F   -0.828652
    11  H   -0.223582
    12  H   -0.186748
    13  H   -0.239843
    14  H   -0.196181
    15  C    1.240232
    16  O   -0.581008
    17  O   -0.639061
 Sum of Mulliken charges =   0.00000

 Dipole moment (field-independent basis, Debye):
    X=              0.0484    Y=              0.3167    Z=             -0.0886  Tot=              0.3324

 Test job not archived.
 1\1\GINC-SE070\SP\RHF\Aug-CC-pVDZ\C7H4F3N1O2\OHZDE\09-Apr-2025\0\\#t h
 f aug-cc-pvdz iop(5/13=1,5/36=2,99/5=2) pseudo=read geom=check guess=(
 read,tcheck) scf=(maxcycle=1)\\title\\0,1\C,0,2.7034238,-0.1588363,1.2
 600439\C,0,1.5434792,-0.0086743,2.0195935\C,0,0.3918996,0.4537787,1.37
 92561\N,0,0.3372191,0.7634771,0.0759346\C,0,1.4623579,0.6105625,-0.638
 6993\C,0,2.6673952,0.1554289,-0.1000278\C,0,3.9976847,-0.5943505,1.903
 6534\F,0,4.7580237,-1.3413205,1.0627644\F,0,4.749345,0.4880493,2.26285
 32\F,0,3.7926042,-1.3256553,3.0273566\H,0,1.5339936,-0.2432441,3.08207

 Normal termination of Gaussian 16 at Wed Apr  9 02:19:05 2025.
