 Gaussian 16, Revision C.01,

 ----------------------------------------------------------------------
 #t hf aug-cc-pvdz symm=none int=(grid=ultrafine) guess=(read,tcheck) s
 table=(opt,rrhf)
 ----------------------------------------------------------------------
 -----
 title
 -----
 Symbolic Z-matrix:
 Charge =  0 Multiplicity = 1

 SCF Done:  E(RHF) =  -305.686875245     A.U. after   14 cycles
 Normal termination of Gaussian 16 at Wed Apr  9 02:18:03 2025.
 Gaussian 16:  ES64L-G16RevC.01  3-Jul-2019

 ----------------------------------------------------------------------
 #t hf aug-cc-pvdz iop(5/13=1,5/36=2,99/5=2) pseudo=read geom=check gue
 ss=(read,tcheck) scf=(maxcycle=1)
 ----------------------------------------------------------------------
 -----
 title
 -----
 Structure from the checkpoint file:  "CR20_4_mol1.chk"
 Charge =  0 Multiplicity = 1

                         Standard orientation:
 ---------------------------------------------------------------------
 Center     Atomic      Atomic             Coordinates (Angstroms)
 Number     Number       Type             X           Y           Z
 ---------------------------------------------------------------------
      1          6           0        1.093623    0.287751    0.000000
      2          7           0        0.000000    0.790900    0.000000
      3          6           0       -1.335492    0.308292    0.000000
      4          1           0       -1.851762    0.653957    0.895519
      5          9           0       -1.380418   -1.079591    0.000000
      6          1           0       -1.851762    0.653957   -0.895519
      7          8           0        2.197313   -0.088019    0.000000
 ---------------------------------------------------------------------

 SCF Done:  E(RHF) =  -305.979606487     A.U. after    2 cycles

 The electronic state is 1-A'.
 Alpha  occ. eigenvalues --  -26.47587 -20.61228 -15.54259 -11.42994 -11.39742
 Alpha  occ. eigenvalues --   -1.60153  -1.55836  -1.30052  -1.02826  -0.80155
 Alpha  occ. eigenvalues --   -0.74756  -0.74306  -0.73333  -0.66662  -0.64971
 Alpha  occ. eigenvalues --   -0.61027  -0.57495  -0.50459  -0.46151
 Alpha virt. eigenvalues --    0.03168   0.04930   0.07222   0.08609   0.09944
 Alpha virt. eigenvalues --    0.10245   0.10529   0.13194   0.14654   0.16423
 Alpha virt. eigenvalues --    0.17386   0.19557   0.20729   0.20977   0.24838

 Mulliken charges:
               1
     1  C    0.312817
     2  N    0.467372
     3  C    0.413567
     4  H    0.122657
     5  F   -0.673217
     6  H    0.122657
     7  O   -0.765853
 Sum of Mulliken charges =  -0.00000

 Dipole moment (field-independent basis, Debye):
    X=             -1.9032    Y=              1.0620    Z=             -0.0000  Tot=              2.1794

 Test job not archived.
 1\1\GINC-SE116\SP\RHF\Aug-CC-pVDZ\C2H2F1N1O1\OHZDE\09-Apr-2025\0\\#t h
 f aug-cc-pvdz iop(5/13=1,5/36=2,99/5=2) pseudo=read geom=check guess=(
 read,tcheck) scf=(maxcycle=1)\\title\\0,1\C,0,1.093623,0.287751,0.\N,0
 ,0.,0.7909,0.\C,0,-1.335492,0.308292,0.\H,0,-1.851762,0.653957,0.89551
 9\F,0,-1.380418,-1.079591,0.\H,0,-1.851762,0.653957,-0.895519\O,0,2.19
 7313,-0.088019,0.\\Version=ES64L-G16RevC.01\State=1-A'\HF=-305.9796065
 \RMSD=1.062e-02\Dipole=-0.7487735,0.4178238,0.\Quadrupole=-0.2694861,-
 1.2628469,1.532333,-1.5445483,0.,0.\PG=CS [SG(C2F1N1O1),X(H2)]\\@

 Normal termination of Gaussian 16 at Wed Apr  9 02:18:06 2025.
