 Gaussian 16, Revision C.01,

 ----------------------------------------------------------------------
 #t hf aug-cc-pvdz symm=none int=(grid=ultrafine) guess=(read,tcheck) s
 table=(opt,rrhf)
 ----------------------------------------------------------------------
 -----
 title
 -----
 Symbolic Z-matrix:
 Charge =  0 Multiplicity = 1

 SCF Done:  E(RHF) =  -628.327139500     A.U. after   15 cycles
 Normal termination of Gaussian 16 at Wed Apr  9 02:17:34 2025.
 Gaussian 16:  ES64L-G16RevC.01  3-Jul-2019

 ----------------------------------------------------------------------
 #t hf aug-cc-pvdz iop(5/13=1,5/36=2,99/5=2) pseudo=read geom=check gue
 ss=(read,tcheck) scf=(maxcycle=1)
 ----------------------------------------------------------------------
 -----
 title
 -----
 Structure from the checkpoint file:  "CR20_14_mol1.chk"
 Charge =  0 Multiplicity = 1

                         Standard orientation:
 ---------------------------------------------------------------------
 Center     Atomic      Atomic             Coordinates (Angstroms)
 Number     Number       Type             X           Y           Z
 ---------------------------------------------------------------------
      1          6           0        0.000000    0.692790    0.000000
      2         16           0        1.117939    1.794394    0.000000
      3          7           0       -0.912034   -0.080099    0.000000
      4          6           0       -1.217522   -1.459795    0.000000
      5          1           0       -1.787283   -1.709159    0.895651
      6          9           0       -0.069233   -2.236585    0.000000
      7          1           0       -1.787283   -1.709159   -0.895651
 ---------------------------------------------------------------------

 SCF Done:  E(RHF) =  -628.605558811     A.U. after    2 cycles

 The electronic state is 1-A'.
 Alpha  occ. eigenvalues --  -93.96076 -26.47846 -15.55725 -11.40348 -11.40103
 Alpha  occ. eigenvalues --   -8.24392  -6.22284  -6.21864  -6.21811  -1.60421
 Alpha  occ. eigenvalues --   -1.31298  -1.10050  -1.02743  -0.80618  -0.74902
 Alpha  occ. eigenvalues --   -0.73343  -0.63415  -0.61970  -0.60757  -0.59564
 Alpha  occ. eigenvalues --   -0.54481  -0.40584  -0.38745
 Alpha virt. eigenvalues --    0.03015   0.04818   0.06883   0.07039   0.08285
 Alpha virt. eigenvalues --    0.09008   0.10327   0.11874   0.12529   0.14381
 Alpha virt. eigenvalues --    0.15047   0.15747   0.16230   0.17020   0.20006

 Mulliken charges:
               1
     1  C   -0.908952
     2  S    0.316375
     3  N    0.560469
     4  C    0.470358
     5  H    0.117201
     6  F   -0.672651
     7  H    0.117201
 Sum of Mulliken charges =  -0.00000

 Dipole moment (field-independent basis, Debye):
    X=             -1.8744    Y=             -0.9882    Z=              0.0000  Tot=              2.1189

 Test job not archived.
 1\1\GINC-SE108\SP\RHF\Aug-CC-pVDZ\C2H2F1N1S1\OHZDE\09-Apr-2025\0\\#t h
 f aug-cc-pvdz iop(5/13=1,5/36=2,99/5=2) pseudo=read geom=check guess=(
 read,tcheck) scf=(maxcycle=1)\\title\\0,1\C,0,0.,0.69279,0.\S,0,1.1179
 39,1.794394,0.\N,0,-0.912034,-0.080099,0.\C,0,-1.217521,-1.459795,0.\H
 ,0,-1.787282,-1.70916,0.895651\F,0,-0.069232,-2.236585,0.\H,0,-1.78728
 2,-1.70916,-0.895651\\Version=ES64L-G16RevC.01\State=1-A'\HF=-628.6055
 588\RMSD=1.181e-02\Dipole=-0.737437,-0.3887763,0.\Quadrupole=1.5274827
 ,-1.3693914,-0.1580913,3.5056851,0.,0.\PG=CS [SG(C2F1N1S1),X(H2)]\\@

 Normal termination of Gaussian 16 at Wed Apr  9 02:17:37 2025.
