 Gaussian 16, Revision C.01,

 ----------------------------------------------------------------------
 #t hf aug-cc-pvdz symm=none int=(grid=ultrafine) guess=(read,tcheck) s
 table=(opt,rrhf)
 ----------------------------------------------------------------------
 -----
 title
 -----
 Symbolic Z-matrix:
 Charge =  0 Multiplicity = 1

 SCF Done:  E(RHF) =  -419.550041433     A.U. after   14 cycles
 Normal termination of Gaussian 16 at Wed Apr  9 02:18:12 2025.
 Gaussian 16:  ES64L-G16RevC.01  3-Jul-2019

 ----------------------------------------------------------------------
 #t hf aug-cc-pvdz iop(5/13=1,5/36=2,99/5=2) pseudo=read geom=check gue
 ss=(read,tcheck) scf=(maxcycle=1)
 ----------------------------------------------------------------------
 -----
 title
 -----
 Structure from the checkpoint file:  "CR20_8_mol3.chk"
 Charge =  0 Multiplicity = 1

                         Standard orientation:
 ---------------------------------------------------------------------
 Center     Atomic      Atomic             Coordinates (Angstroms)
 Number     Number       Type             X           Y           Z
 ---------------------------------------------------------------------
      1          6           0       -0.974099    0.057056    0.015822
      2          6           0        1.167452   -0.155390    0.408144
      3          8           0        0.860903    1.167341    0.154306
      4          7           0       -0.518163    1.214244   -0.249727
      5          6           0       -2.363034   -0.410581   -0.177932
      6          1           0       -2.384499   -1.247824   -0.875922
      7          1           0       -2.777798   -0.752720    0.770857
      8          1           0       -2.969559    0.402312   -0.566469
      9          1           0        1.796767   -0.273739    1.286054
     10          9           0        1.842002   -0.712317   -0.659535
     11          8           0       -0.060616   -0.812766    0.544843
 ---------------------------------------------------------------------

 SCF Done:  E(RHF) =  -419.958375138     A.U. after    2 cycles

 The electronic state is 1-A.
 Alpha  occ. eigenvalues --  -26.47247 -20.62879 -20.61573 -15.57676 -11.45602
 Alpha  occ. eigenvalues --  -11.37445 -11.27779  -1.64812  -1.56999  -1.49713
 Alpha  occ. eigenvalues --   -1.22056  -1.04021  -0.94931  -0.85531  -0.78907
 Alpha  occ. eigenvalues --   -0.76589  -0.70456  -0.67222  -0.65532  -0.62081
 Alpha  occ. eigenvalues --   -0.60412  -0.59410  -0.57663  -0.56531  -0.55215
 Alpha  occ. eigenvalues --   -0.54058  -0.42627
 Alpha virt. eigenvalues --    0.03193   0.04185   0.05098   0.05396   0.08164
 Alpha virt. eigenvalues --    0.09371   0.09881   0.13020   0.13574   0.14148
 Alpha virt. eigenvalues --    0.14241   0.14753   0.15245   0.15497   0.16791

 Mulliken charges:
               1
     1  C   -0.196201
     2  C    2.068952
     3  O   -1.367131
     4  N    1.128309
     5  C   -0.363847
     6  H    0.254686
     7  H    0.240694
     8  H    0.207010
     9  H    0.095413
    10  F   -0.710502
    11  O   -1.357383
 Sum of Mulliken charges =  -0.00000

 Dipole moment (field-independent basis, Debye):
    X=             -2.2334    Y=             -2.2377    Z=              1.6128  Tot=              3.5491

 Test job not archived.
 1\1\GINC-SE364\SP\RHF\Aug-CC-pVDZ\C3H4F1N1O2\OHZDE\09-Apr-2025\0\\#t h
 f aug-cc-pvdz iop(5/13=1,5/36=2,99/5=2) pseudo=read geom=check guess=(
 read,tcheck) scf=(maxcycle=1)\\title\\0,1\C,0,-0.974099,0.057056,0.015
 822\C,0,1.167452,-0.15539,0.408144\O,0,0.860903,1.167341,0.154306\N,0,
 -0.518163,1.214244,-0.249727\C,0,-2.363034,-0.410581,-0.177932\H,0,-2.
 384499,-1.247824,-0.875922\H,0,-2.777798,-0.75272,0.770857\H,0,-2.9695
 59,0.402312,-0.566469\H,0,1.796767,-0.273739,1.286054\F,0,1.842002,-0.
 712317,-0.659535\O,0,-0.060616,-0.812766,0.544843\\Version=ES64L-G16Re

 Normal termination of Gaussian 16 at Wed Apr  9 02:18:16 2025.
