 Gaussian 16, Revision C.01,

 ----------------------------------------------------------------------
 #t hf aug-cc-pvdz symm=none int=(grid=ultrafine) guess=(read,tcheck) s
 table=(opt,rrhf)
 ----------------------------------------------------------------------
 -----
 title
 -----
 Symbolic Z-matrix:
 Charge =  0 Multiplicity = 1

 SCF Done:  E(RHF) =  -604.267078641     A.U. after   14 cycles
 Normal termination of Gaussian 16 at Wed Apr  9 02:17:04 2025.
 Gaussian 16:  ES64L-G16RevC.01  3-Jul-2019

 ----------------------------------------------------------------------
 #t hf aug-cc-pvdz iop(5/13=1,5/36=2,99/5=2) pseudo=read geom=check gue
 ss=(read,tcheck) scf=(maxcycle=1)
 ----------------------------------------------------------------------
 -----
 title
 -----
 Structure from the checkpoint file:  "CR20_11_mol3.chk"
 Charge =  0 Multiplicity = 1

                         Standard orientation:
 ---------------------------------------------------------------------
 Center     Atomic      Atomic             Coordinates (Angstroms)
 Number     Number       Type             X           Y           Z
 ---------------------------------------------------------------------
      1          6           0       -0.021128    1.214372    0.086140
      2          6           0       -0.108628   -1.221844    0.170446
      3          8           0       -1.315493   -0.557579   -0.189681
      4          7           0       -1.231577    0.832938    0.032442
      5         16           0        1.239609    0.001101   -0.073611
      6          1           0       -0.137086   -1.527435    1.219029
      7          1           0        0.017096   -2.078554   -0.485332
      8          1           0        0.209766    2.263270    0.194920
 ---------------------------------------------------------------------

 SCF Done:  E(RHF) =  -604.531054717     A.U. after    2 cycles

 The electronic state is 1-A.
 Alpha  occ. eigenvalues --  -93.98299 -20.60371 -15.58143 -11.34414 -11.32855
 Alpha  occ. eigenvalues --   -8.26568  -6.24345  -6.24234  -6.23970  -1.52981
 Alpha  occ. eigenvalues --   -1.21168  -1.09774  -0.90443  -0.83306  -0.72847
 Alpha  occ. eigenvalues --   -0.70353  -0.62897  -0.58076  -0.56836  -0.52206
 Alpha  occ. eigenvalues --   -0.49134  -0.46004  -0.36776
 Alpha virt. eigenvalues --    0.03599   0.03974   0.05063   0.06875   0.08666
 Alpha virt. eigenvalues --    0.09277   0.10112   0.11758   0.12781   0.13164
 Alpha virt. eigenvalues --    0.14929   0.15477   0.16200   0.17372   0.18356

 Mulliken charges:
               1
     1  C   -0.792056
     2  C    0.138246
     3  O   -1.362715
     4  N    1.186205
     5  S    0.539434
     6  H    0.184527
     7  H    0.103878
     8  H    0.002481
 Sum of Mulliken charges =  -0.00000

 Dipole moment (field-independent basis, Debye):
    X=              2.5914    Y=             -0.6560    Z=              0.6269  Tot=              2.7456

 Test job not archived.
 1\1\GINC-SE080\SP\RHF\Aug-CC-pVDZ\C2H3N1O1S1\OHZDE\09-Apr-2025\0\\#t h
 f aug-cc-pvdz iop(5/13=1,5/36=2,99/5=2) pseudo=read geom=check guess=(
 read,tcheck) scf=(maxcycle=1)\\title\\0,1\C,0,-0.021126,1.214372,0.086
 14\C,0,-0.10863,-1.221844,0.170446\O,0,-1.315494,-0.557577,-0.189681\N
 ,0,-1.231576,0.83294,0.032442\S,0,1.239609,0.001099,-0.073611\H,0,-0.1
 37088,-1.527435,1.219029\H,0,0.017093,-2.078554,-0.485332\H,0,0.209769
 ,2.26327,0.19492\\Version=ES64L-G16RevC.01\State=1-A\HF=-604.5310547\R
 MSD=1.279e-02\Dipole=1.0195297,-0.2580866,0.2466274\Quadrupole=-4.8163

 Normal termination of Gaussian 16 at Wed Apr  9 02:17:07 2025.
