 Gaussian 16, Revision C.01,

 ----------------------------------------------------------------------
 #t hf aug-cc-pvdz symm=none int=(grid=ultrafine) guess=(read,tcheck) s
 table=(opt,rrhf)
 ----------------------------------------------------------------------
 -----
 title
 -----
 Symbolic Z-matrix:
 Charge =  0 Multiplicity = 1

 SCF Done:  E(RHF) =  -698.365193961     A.U. after   15 cycles
 Normal termination of Gaussian 16 at Wed Apr  9 02:17:59 2025.
 Gaussian 16:  ES64L-G16RevC.01  3-Jul-2019

 ----------------------------------------------------------------------
 #t hf aug-cc-pvdz iop(5/13=1,5/36=2,99/5=2) pseudo=read geom=check gue
 ss=(read,tcheck) scf=(maxcycle=1)
 ----------------------------------------------------------------------
 -----
 title
 -----
 Structure from the checkpoint file:  "CR20_17_mol3.chk"
 Charge =  0 Multiplicity = 1

                         Standard orientation:
 ---------------------------------------------------------------------
 Center     Atomic      Atomic             Coordinates (Angstroms)
 Number     Number       Type             X           Y           Z
 ---------------------------------------------------------------------
      1          6           0        1.118374    0.180849    0.031049
      2          6           0       -1.355935   -0.030421   -0.323650
      3          1           0       -1.959444   -0.169976   -1.217080
      4          8           0       -0.745731    1.281209   -0.470859
      5          7           0        0.589785    1.337209   -0.057925
      6         16           0        0.065703   -1.191641   -0.318419
      7          7           0       -2.171696   -0.202282    0.825734
      8          1           0       -1.666434   -0.054547    1.689879
      9          1           0       -2.989326    0.394467    0.798860
     10          6           0        2.548825   -0.006195    0.410049
     11          1           0        2.636457   -0.573600    1.337349
     12          1           0        3.082175   -0.556434   -0.366859
     13          1           0        3.016967    0.966774    0.540074
 ---------------------------------------------------------------------

 SCF Done:  E(RHF) =  -698.730462791     A.U. after    2 cycles

 The electronic state is 1-A.
 Alpha  occ. eigenvalues --  -93.97380 -20.58982 -15.56473 -15.50999 -11.36711
 Alpha  occ. eigenvalues --  -11.32271 -11.26082  -8.25665  -6.23432  -6.23318
 Alpha  occ. eigenvalues --   -6.23073  -1.51748  -1.22698  -1.19914  -1.06801
 Alpha  occ. eigenvalues --   -1.00312  -0.88451  -0.78983  -0.74205  -0.70204
 Alpha  occ. eigenvalues --   -0.67267  -0.64452  -0.61734  -0.58621  -0.57584
 Alpha  occ. eigenvalues --   -0.54088  -0.52720  -0.47630  -0.45771  -0.44030
 Alpha  occ. eigenvalues --   -0.36889
 Alpha virt. eigenvalues --    0.03413   0.04121   0.04869   0.05395   0.05728
 Alpha virt. eigenvalues --    0.06643   0.08504   0.09658   0.11494   0.11646
 Alpha virt. eigenvalues --    0.12273   0.13045   0.13260   0.13954   0.15319

 Mulliken charges:
               1
     1  C   -1.284692
     2  C   -0.156451
     3  H   -0.003798
     4  O   -1.509474
     5  N    1.350690
     6  S    0.619466
     7  N    0.299169
     8  H    0.183717
     9  H    0.194480
    10  C   -0.372469
    11  H    0.255465
    12  H    0.238292
    13  H    0.185607
 Sum of Mulliken charges =  -0.00000

 Dipole moment (field-independent basis, Debye):
    X=              0.3500    Y=             -1.5840    Z=              0.8080  Tot=              1.8124

 Test job not archived.
 1\1\GINC-SE345\SP\RHF\Aug-CC-pVDZ\C3H6N2O1S1\OHZDE\09-Apr-2025\0\\#t h
 f aug-cc-pvdz iop(5/13=1,5/36=2,99/5=2) pseudo=read geom=check guess=(
 read,tcheck) scf=(maxcycle=1)\\title\\0,1\C,0,1.118374,0.180849,0.0310
 49\C,0,-1.355935,-0.030421,-0.32365\H,0,-1.959444,-0.169976,-1.21708\O
 ,0,-0.745731,1.281209,-0.470859\N,0,0.589785,1.337209,-0.057925\S,0,0.
 065703,-1.191641,-0.318419\N,0,-2.171696,-0.202282,0.825734\H,0,-1.666
 434,-0.054547,1.689879\H,0,-2.989326,0.394466,0.79886\C,0,2.548825,-0.
 006195,0.410049\H,0,2.636457,-0.5736,1.337349\H,0,3.082175,-0.556434,-

 Normal termination of Gaussian 16 at Wed Apr  9 02:18:03 2025.
