 Gaussian 16, Revision C.01,

 ----------------------------------------------------------------------
 #t hf aug-cc-pvdz symm=none int=(grid=ultrafine) guess=(read,tcheck) s
 table=(opt,rrhf)
 ----------------------------------------------------------------------
 -----
 title
 -----
 Symbolic Z-matrix:
 Charge =  0 Multiplicity = 1

 SCF Done:  E(RHF) =  -643.316347292     A.U. after   15 cycles
 Normal termination of Gaussian 16 at Wed Apr  9 02:17:16 2025.
 Gaussian 16:  ES64L-G16RevC.01  3-Jul-2019

 ----------------------------------------------------------------------
 #t hf aug-cc-pvdz iop(5/13=1,5/36=2,99/5=2) pseudo=read geom=check gue
 ss=(read,tcheck) scf=(maxcycle=1)
 ----------------------------------------------------------------------
 -----
 title
 -----
 Structure from the checkpoint file:  "CR20_12_mol3.chk"
 Charge =  0 Multiplicity = 1

                         Standard orientation:
 ---------------------------------------------------------------------
 Center     Atomic      Atomic             Coordinates (Angstroms)
 Number     Number       Type             X           Y           Z
 ---------------------------------------------------------------------
      1          6           0        0.790003    0.200556    0.006695
      2          6           0       -1.637824   -0.091242    0.238937
      3          8           0       -1.194990    1.192583   -0.180143
      4          7           0        0.200804    1.329096   -0.022581
      5         16           0       -0.248623   -1.233470   -0.101001
      6          6           0        2.274396    0.086528    0.080712
      7          1           0        2.579330   -0.425247    0.993949
      8          1           0        2.652228   -0.491065   -0.764745
      9          1           0        2.717057    1.079453    0.059406
     10          1           0       -1.857763   -0.092771    1.309601
     11          1           0       -2.518051   -0.354242   -0.341038
 ---------------------------------------------------------------------

 SCF Done:  E(RHF) =  -643.624780734     A.U. after    2 cycles

 The electronic state is 1-A.
 Alpha  occ. eigenvalues --  -93.97481 -20.59587 -15.56770 -11.33767 -11.32721
 Alpha  occ. eigenvalues --  -11.26240  -8.25753  -6.23528  -6.23423  -6.23162
 Alpha  occ. eigenvalues --   -1.52181  -1.21258  -1.09173  -1.00554  -0.89900
 Alpha  occ. eigenvalues --   -0.78122  -0.70059  -0.68969  -0.63948  -0.61450
 Alpha  occ. eigenvalues --   -0.58258  -0.56287  -0.54431  -0.50498  -0.47878
 Alpha  occ. eigenvalues --   -0.44393  -0.36360
 Alpha virt. eigenvalues --    0.03607   0.04012   0.04800   0.05758   0.05885
 Alpha virt. eigenvalues --    0.07695   0.08754   0.10877   0.11226   0.12176
 Alpha virt. eigenvalues --    0.13143   0.13978   0.14065   0.16065   0.16222

 Mulliken charges:
               1
     1  C   -1.222155
     2  C    0.179832
     3  O   -1.391545
     4  N    1.349827
     5  S    0.445774
     6  C   -0.316280
     7  H    0.257465
     8  H    0.245995
     9  H    0.178592
    10  H    0.189900
    11  H    0.082594
 Sum of Mulliken charges =  -0.00000

 Dipole moment (field-independent basis, Debye):
    X=              0.5738    Y=             -2.5829    Z=              0.7339  Tot=              2.7457

 Test job not archived.
 1\1\GINC-SE108\SP\RHF\Aug-CC-pVDZ\C3H5N1O1S1\OHZDE\09-Apr-2025\0\\#t h
 f aug-cc-pvdz iop(5/13=1,5/36=2,99/5=2) pseudo=read geom=check guess=(
 read,tcheck) scf=(maxcycle=1)\\title\\0,1\C,0,0.790003,0.200556,0.0066
 95\C,0,-1.637824,-0.091241,0.238937\O,0,-1.194989,1.192583,-0.180143\N
 ,0,0.200805,1.329096,-0.022581\S,0,-0.248623,-1.23347,-0.101001\C,0,2.
 274396,0.086527,0.080712\H,0,2.57933,-0.425248,0.993949\H,0,2.652228,-
 0.491066,-0.764745\H,0,2.717058,1.079452,0.059406\H,0,-1.857763,-0.092
 77,1.309601\H,0,-2.518051,-0.354241,-0.341038\\Version=ES64L-G16RevC.0

 Normal termination of Gaussian 16 at Wed Apr  9 02:17:20 2025.
