 Gaussian 16, Revision C.01,

 ----------------------------------------------------------------------
 #t hf aug-cc-pvdz symm=none int=(grid=ultrafine) guess=(read,tcheck) s
 table=(opt,rrhf)
 ----------------------------------------------------------------------
 -----
 title
 -----
 Symbolic Z-matrix:
 Charge =  0 Multiplicity = 1

 SCF Done:  E(RHF) =  -718.198977892     A.U. after   15 cycles
 Normal termination of Gaussian 16 at Wed Apr  9 02:17:44 2025.
 Gaussian 16:  ES64L-G16RevC.01  3-Jul-2019

 ----------------------------------------------------------------------
 #t hf aug-cc-pvdz iop(5/13=1,5/36=2,99/5=2) pseudo=read geom=check gue
 ss=(read,tcheck) scf=(maxcycle=1)
 ----------------------------------------------------------------------
 -----
 title
 -----
 Structure from the checkpoint file:  "CR20_16_mol3.chk"
 Charge =  0 Multiplicity = 1

                         Standard orientation:
 ---------------------------------------------------------------------
 Center     Atomic      Atomic             Coordinates (Angstroms)
 Number     Number       Type             X           Y           Z
 ---------------------------------------------------------------------
      1          6           0        1.105588    0.176772    0.020028
      2          6           0       -1.370052   -0.020513   -0.301969
      3          8           0       -0.776248    1.262344   -0.464806
      4          7           0        0.572241    1.331147   -0.073172
      5         16           0        0.052835   -1.198294   -0.303378
      6          6           0        2.541756    0.003884    0.384919
      7          1           0        2.642505   -0.555043    1.315873
      8          1           0        3.069888   -0.549250   -0.393112
      9          1           0        3.004160    0.981153    0.501928
     10          1           0       -2.017914   -0.198988   -1.154737
     11          8           0       -2.170824   -0.111947    0.822503
     12          1           0       -1.636860    0.012758    1.616862
 ---------------------------------------------------------------------

 SCF Done:  E(RHF) =  -718.578219941     A.U. after    2 cycles

 The electronic state is 1-A.
 Alpha  occ. eigenvalues --  -93.98262 -20.60356 -20.58274 -15.57527 -11.39887
 Alpha  occ. eigenvalues --  -11.33323 -11.26804  -8.26574  -6.24339  -6.24224
 Alpha  occ. eigenvalues --   -6.23984  -1.54925  -1.47963  -1.22037  -1.08927
 Alpha  occ. eigenvalues --   -1.01157  -0.90602  -0.80307  -0.73543  -0.71223
 Alpha  occ. eigenvalues --   -0.66720  -0.62800  -0.62522  -0.59983  -0.57547
 Alpha  occ. eigenvalues --   -0.55584  -0.54141  -0.48557  -0.46419  -0.45310
 Alpha  occ. eigenvalues --   -0.38075
 Alpha virt. eigenvalues --    0.03262   0.04372   0.04527   0.05458   0.05682
 Alpha virt. eigenvalues --    0.07955   0.08886   0.10257   0.11374   0.11984
 Alpha virt. eigenvalues --    0.12617   0.13238   0.13832   0.15078   0.15521

 Mulliken charges:
               1
     1  C   -1.329140
     2  C    1.435333
     3  O   -1.530565
     4  N    1.394625
     5  S    0.488602
     6  C   -0.353899
     7  H    0.259776
     8  H    0.245520
     9  H    0.181529
    10  H    0.064201
    11  O   -1.196848
    12  H    0.340867
 Sum of Mulliken charges =  -0.00000

 Dipole moment (field-independent basis, Debye):
    X=              1.9485    Y=             -2.4306    Z=              0.7721  Tot=              3.2095

 Test job not archived.
 1\1\GINC-SE292\SP\RHF\Aug-CC-pVDZ\C3H5N1O2S1\OHZDE\09-Apr-2025\0\\#t h
 f aug-cc-pvdz iop(5/13=1,5/36=2,99/5=2) pseudo=read geom=check guess=(
 read,tcheck) scf=(maxcycle=1)\\title\\0,1\C,0,1.105588,0.176772,0.0200
 28\C,0,-1.370052,-0.020513,-0.301969\O,0,-0.776248,1.262344,-0.464806\
 N,0,0.572241,1.331147,-0.073172\S,0,0.052835,-1.198294,-0.303378\C,0,2
 .541756,0.003884,0.384919\H,0,2.642505,-0.555043,1.315873\H,0,3.069888
 ,-0.54925,-0.393112\H,0,3.00416,0.981153,0.501928\H,0,-2.017914,-0.198
 988,-1.154737\O,0,-2.170824,-0.111947,0.822503\H,0,-1.63686,0.012758,1

 Normal termination of Gaussian 16 at Wed Apr  9 02:17:49 2025.
