 Gaussian 16, Revision C.01,

 ----------------------------------------------------------------------
 #t hf aug-cc-pvdz symm=none int=(grid=ultrafine) guess=(read,tcheck) s
 table=(opt,rrhf)
 ----------------------------------------------------------------------
 -----
 title
 -----
 Symbolic Z-matrix:
 Charge =  0 Multiplicity = 1

 SCF Done:  E(RHF) =  -419.517542103     A.U. after   14 cycles
 Normal termination of Gaussian 16 at Wed Apr  9 02:18:12 2025.
 Gaussian 16:  ES64L-G16RevC.01  3-Jul-2019

 ----------------------------------------------------------------------
 #t hf aug-cc-pvdz iop(5/13=1,5/36=2,99/5=2) pseudo=read geom=check gue
 ss=(read,tcheck) scf=(maxcycle=1)
 ----------------------------------------------------------------------
 -----
 title
 -----
 Structure from the checkpoint file:  "CR20_4_mol3.chk"
 Charge =  0 Multiplicity = 1

                         Standard orientation:
 ---------------------------------------------------------------------
 Center     Atomic      Atomic             Coordinates (Angstroms)
 Number     Number       Type             X           Y           Z
 ---------------------------------------------------------------------
      1          6           0       -0.207115    0.229680    0.172018
      2          6           0        1.712361   -0.775656   -0.126341
      3          1           0        2.431287   -1.228899    0.552574
      4          8           0        1.878909    0.637338   -0.137104
      5          7           0        0.567195    1.191435   -0.136864
      6          6           0       -1.666524    0.372142    0.402478
      7          1           0       -1.927058    0.021528    1.402501
      8          1           0       -1.948421    1.415408    0.279480
      9          9           0       -2.379299   -0.399009   -0.512954
     10          1           0        1.786715   -1.186986   -1.139663
     11          8           0        0.379650   -0.978215    0.360956
 ---------------------------------------------------------------------

 SCF Done:  E(RHF) =  -419.925908354     A.U. after    2 cycles

 The electronic state is 1-A.
 Alpha  occ. eigenvalues --  -26.47157 -20.61582 -20.60555 -15.57950 -11.37394
 Alpha  occ. eigenvalues --  -11.36733 -11.36056  -1.59845  -1.58795  -1.48019
 Alpha  occ. eigenvalues --   -1.21488  -1.02039  -0.95474  -0.83869  -0.76043
 Alpha  occ. eigenvalues --   -0.74979  -0.72425  -0.69852  -0.66766  -0.65612
 Alpha  occ. eigenvalues --   -0.58668  -0.57564  -0.56405  -0.54960  -0.54427
 Alpha  occ. eigenvalues --   -0.53837  -0.40163
 Alpha virt. eigenvalues --    0.03463   0.04227   0.04892   0.05578   0.08100
 Alpha virt. eigenvalues --    0.08439   0.09393   0.12465   0.13058   0.14049
 Alpha virt. eigenvalues --    0.14903   0.15552   0.15975   0.16170   0.17193

 Mulliken charges:
               1
     1  C   -0.036611
     2  C    0.874967
     3  H    0.081806
     4  O   -1.322214
     5  N    1.158173
     6  C    0.826316
     7  H    0.145229
     8  H    0.136123
     9  F   -0.700024
    10  H    0.150362
    11  O   -1.314127
 Sum of Mulliken charges =  -0.00000

 Dipole moment (field-independent basis, Debye):
    X=             -0.0851    Y=             -1.6941    Z=              1.4016  Tot=              2.2004

 Test job not archived.
 1\1\GINC-SE403\SP\RHF\Aug-CC-pVDZ\C3H4F1N1O2\OHZDE\09-Apr-2025\0\\#t h
 f aug-cc-pvdz iop(5/13=1,5/36=2,99/5=2) pseudo=read geom=check guess=(
 read,tcheck) scf=(maxcycle=1)\\title\\0,1\C,0,-0.207115,0.22968,0.1720
 18\C,0,1.712361,-0.775656,-0.126341\H,0,2.431287,-1.228899,0.552574\O,
 0,1.878909,0.637338,-0.137104\N,0,0.567195,1.191435,-0.136864\C,0,-1.6
 66524,0.372142,0.402478\H,0,-1.927058,0.021528,1.402501\H,0,-1.948421,
 1.415408,0.27948\F,0,-2.379299,-0.399009,-0.512954\H,0,1.786715,-1.186
 986,-1.139663\O,0,0.37965,-0.978215,0.360956\\Version=ES64L-G16RevC.01

 Normal termination of Gaussian 16 at Wed Apr  9 02:18:16 2025.
