 Gaussian 16, Revision C.01,

 ----------------------------------------------------------------------
 #t hf aug-cc-pvdz symm=none int=(grid=ultrafine) guess=(read,tcheck) s
 table=(opt,rrhf)
 ----------------------------------------------------------------------
 -----
 title
 -----
 Symbolic Z-matrix:
 Charge =  0 Multiplicity = 1

 SCF Done:  E(RHF) =  -682.361687980     A.U. after   14 cycles
 Normal termination of Gaussian 16 at Wed Apr  9 02:18:04 2025.
 Gaussian 16:  ES64L-G16RevC.01  3-Jul-2019

 ----------------------------------------------------------------------
 #t hf aug-cc-pvdz iop(5/13=1,5/36=2,99/5=2) pseudo=read geom=check gue
 ss=(read,tcheck) scf=(maxcycle=1)
 ----------------------------------------------------------------------
 -----
 title
 -----
 Structure from the checkpoint file:  "CR20_15_mol3.chk"
 Charge =  0 Multiplicity = 1

                         Standard orientation:
 ---------------------------------------------------------------------
 Center     Atomic      Atomic             Coordinates (Angstroms)
 Number     Number       Type             X           Y           Z
 ---------------------------------------------------------------------
      1          6           0        1.108469    0.183920    0.043193
      2          6           0       -1.335764   -0.035548   -0.358232
      3          1           0       -1.949808   -0.235740   -1.234395
      4          8           0       -0.744744    1.256382   -0.563267
      5          7           0        0.574338    1.333023   -0.084047
      6         16           0        0.087905   -1.205626   -0.349914
      7          6           0        2.526192    0.017154    0.474385
      8          1           0        2.584244   -0.527079    1.417643
      9          1           0        3.086448   -0.550501   -0.270487
     10          1           0        2.985805    0.995217    0.595362
     11          6           0       -2.149973   -0.082120    0.920649
     12          1           0       -2.944628    0.663795    0.871893
     13          1           0       -2.601186   -1.066658    1.046850
     14          1           0       -1.523320    0.128326    1.786248
 ---------------------------------------------------------------------

 SCF Done:  E(RHF) =  -682.713448138     A.U. after    2 cycles

 The electronic state is 1-A.
 Alpha  occ. eigenvalues --  -93.97040 -20.59066 -15.56421 -11.33932 -11.32267
 Alpha  occ. eigenvalues --  -11.25990 -11.24215  -8.25310  -6.23086  -6.22971
 Alpha  occ. eigenvalues --   -6.22726  -1.51697  -1.20911  -1.10374  -1.00507
 Alpha  occ. eigenvalues --   -0.98797  -0.85158  -0.77296  -0.69814  -0.66682
 Alpha  occ. eigenvalues --   -0.63906  -0.61113  -0.60444  -0.57085  -0.56765
 Alpha  occ. eigenvalues --   -0.54415  -0.52450  -0.48654  -0.47103  -0.44101
 Alpha  occ. eigenvalues --   -0.35980
 Alpha virt. eigenvalues --    0.03623   0.03910   0.04532   0.05197   0.05531
 Alpha virt. eigenvalues --    0.06061   0.06745   0.09052   0.10306   0.11074
 Alpha virt. eigenvalues --    0.12074   0.12321   0.13272   0.13763   0.14430

 Mulliken charges:
               1
     1  C   -1.178060
     2  C    0.303639
     3  H    0.062517
     4  O   -1.537062
     5  N    1.313617
     6  S    0.528265
     7  C   -0.405676
     8  H    0.259406
     9  H    0.242889
    10  H    0.184153
    11  C   -0.359336
    12  H    0.200379
    13  H    0.195781
    14  H    0.189486
 Sum of Mulliken charges =  -0.00000

 Dipole moment (field-independent basis, Debye):
    X=             -0.0100    Y=             -2.5722    Z=              0.8779  Tot=              2.7179

 Test job not archived.
 1\1\GINC-SE127\SP\RHF\Aug-CC-pVDZ\C4H7N1O1S1\OHZDE\09-Apr-2025\0\\#t h
 f aug-cc-pvdz iop(5/13=1,5/36=2,99/5=2) pseudo=read geom=check guess=(
 read,tcheck) scf=(maxcycle=1)\\title\\0,1\C,0,1.108469,0.18392,0.04319
 3\C,0,-1.335764,-0.035548,-0.358232\H,0,-1.949808,-0.23574,-1.234395\O
 ,0,-0.744744,1.256382,-0.563267\N,0,0.574338,1.333023,-0.084047\S,0,0.
 087905,-1.205626,-0.349914\C,0,2.526192,0.017154,0.474385\H,0,2.584244
 ,-0.527079,1.417643\H,0,3.086448,-0.550501,-0.270487\H,0,2.985805,0.99
 5217,0.595362\C,0,-2.149973,-0.08212,0.920649\H,0,-2.944628,0.663795,0

 Normal termination of Gaussian 16 at Wed Apr  9 02:18:09 2025.
