 Gaussian 16, Revision C.01,

 ----------------------------------------------------------------------
 #t hf aug-cc-pvdz symm=none int=(grid=ultrafine) guess=(read,tcheck) s
 table=(opt,rrhf)
 ----------------------------------------------------------------------
 -----
 title
 -----
 Symbolic Z-matrix:
 Charge =  0 Multiplicity = 1

 SCF Done:  E(RHF) =  -742.191778942     A.U. after   15 cycles
 Normal termination of Gaussian 16 at Wed Apr  9 02:18:14 2025.
 Gaussian 16:  ES64L-G16RevC.01  3-Jul-2019

 ----------------------------------------------------------------------
 #t hf aug-cc-pvdz iop(5/13=1,5/36=2,99/5=2) pseudo=read geom=check gue
 ss=(read,tcheck) scf=(maxcycle=1)
 ----------------------------------------------------------------------
 -----
 title
 -----
 Structure from the checkpoint file:  "CR20_18_mol3.chk"
 Charge =  0 Multiplicity = 1

                         Standard orientation:
 ---------------------------------------------------------------------
 Center     Atomic      Atomic             Coordinates (Angstroms)
 Number     Number       Type             X           Y           Z
 ---------------------------------------------------------------------
      1          6           0        1.086160    0.183157    0.016115
      2          6           0       -1.349736   -0.024343   -0.290771
      3          8           0       -0.808878    1.236630   -0.478626
      4          7           0        0.547912    1.333859   -0.080917
      5         16           0        0.037138   -1.197151   -0.308965
      6          6           0        2.522072    0.014714    0.380915
      7          1           0        2.618615   -0.520582    1.325809
      8          1           0        3.046605   -0.559291   -0.384130
      9          1           0        2.987581    0.992780    0.474378
     10          1           0       -2.087944   -0.220132   -1.063697
     11          9           0       -2.008267   -0.089953    0.927661
 ---------------------------------------------------------------------

 SCF Done:  E(RHF) =  -742.585913778     A.U. after    2 cycles

 The electronic state is 1-A.
 Alpha  occ. eigenvalues --  -93.99412 -26.47080 -20.61822 -15.58308 -11.42890
 Alpha  occ. eigenvalues --  -11.34168 -11.27268  -8.27750  -6.25508  -6.25401
 Alpha  occ. eigenvalues --   -6.25144  -1.61227  -1.53678  -1.23298  -1.10692
 Alpha  occ. eigenvalues --   -1.01936  -0.91152  -0.81357  -0.75590  -0.72818
 Alpha  occ. eigenvalues --   -0.67082  -0.66384  -0.64005  -0.61384  -0.58965
 Alpha  occ. eigenvalues --   -0.58834  -0.55426  -0.51164  -0.49228  -0.46507
 Alpha  occ. eigenvalues --   -0.39590
 Alpha virt. eigenvalues --    0.03339   0.04035   0.05028   0.05444   0.07614
 Alpha virt. eigenvalues --    0.08353   0.09592   0.10155   0.11172   0.11761
 Alpha virt. eigenvalues --    0.13057   0.13819   0.14394   0.15555   0.15987

 Mulliken charges:
               1
     1  C   -1.315496
     2  C    1.190547
     3  O   -1.448329
     4  N    1.349478
     5  S    0.492076
     6  C   -0.305704
     7  H    0.266130
     8  H    0.245475
     9  H    0.181156
    10  H    0.059217
    11  F   -0.714548
 Sum of Mulliken charges =  -0.00000

 Dipole moment (field-independent basis, Debye):
    X=              1.9175    Y=             -2.6703    Z=             -0.8291  Tot=              3.3904

 Test job not archived.
 1\1\GINC-SE092\SP\RHF\Aug-CC-pVDZ\C3H4F1N1O1S1\OHZDE\09-Apr-2025\0\\#t
  hf aug-cc-pvdz iop(5/13=1,5/36=2,99/5=2) pseudo=read geom=check guess
 =(read,tcheck) scf=(maxcycle=1)\\title\\0,1\C,0,1.08616,0.183157,0.016
 115\C,0,-1.349736,-0.024343,-0.290771\O,0,-0.808878,1.23663,-0.478626\
 N,0,0.547912,1.333859,-0.080917\S,0,0.037138,-1.197151,-0.308965\C,0,2
 .522072,0.014714,0.380915\H,0,2.618615,-0.520582,1.325809\H,0,3.046605
 ,-0.559291,-0.38413\H,0,2.987581,0.99278,0.474378\H,0,-2.087944,-0.220
 132,-1.063697\F,0,-2.008267,-0.089953,0.927661\\Version=ES64L-G16RevC.

 Normal termination of Gaussian 16 at Wed Apr  9 02:18:19 2025.
