 Gaussian 16, Revision C.01,

 ----------------------------------------------------------------------
 #t hf aug-cc-pvdz symm=none int=(grid=ultrafine) guess=(read,tcheck) s
 table=(opt,rrhf)
 ----------------------------------------------------------------------
 -----
 title
 -----
 Symbolic Z-matrix:
 Charge =  0 Multiplicity = 1

 SCF Done:  E(RHF) =  -682.354654921     A.U. after   14 cycles
 Normal termination of Gaussian 16 at Wed Apr  9 02:18:02 2025.
 Gaussian 16:  ES64L-G16RevC.01  3-Jul-2019

 ----------------------------------------------------------------------
 #t hf aug-cc-pvdz iop(5/13=1,5/36=2,99/5=2) pseudo=read geom=check gue
 ss=(read,tcheck) scf=(maxcycle=1)
 ----------------------------------------------------------------------
 -----
 title
 -----
 Structure from the checkpoint file:  "CR20_13_mol3.chk"
 Charge =  0 Multiplicity = 1

                         Standard orientation:
 ---------------------------------------------------------------------
 Center     Atomic      Atomic             Coordinates (Angstroms)
 Number     Number       Type             X           Y           Z
 ---------------------------------------------------------------------
      1          6           0        0.326292    0.357313    0.208725
      2          6           0       -2.042568   -0.278709    0.065325
      3          8           0       -1.715471    1.029909   -0.380937
      4          7           0       -0.399820    1.381272   -0.006945
      5         16           0       -0.473962   -1.220509    0.043145
      6          6           0        1.780303    0.479862    0.541354
      7          1           0        1.949556    0.052326    1.532440
      8          1           0       -2.438330   -0.250978    1.083946
      9          1           0       -2.767427   -0.702966   -0.623847
     10          6           0        2.695656   -0.206573   -0.479171
     11          1           0        3.738560   -0.072638   -0.193033
     12          1           0        2.501003   -1.277813   -0.538442
     13          1           0        2.557795    0.216713   -1.473858
     14          1           0        2.006646    1.543976    0.601183
 ---------------------------------------------------------------------

 SCF Done:  E(RHF) =  -682.706311737     A.U. after    2 cycles

 The electronic state is 1-A.
 Alpha  occ. eigenvalues --  -93.97301 -20.59442 -15.56657 -11.33626 -11.32297
 Alpha  occ. eigenvalues --  -11.26253 -11.24432  -8.25565  -6.23339  -6.23237
 Alpha  occ. eigenvalues --   -6.22977  -1.52013  -1.21185  -1.09171  -1.05342
 Alpha  occ. eigenvalues --   -0.90238  -0.89175  -0.77495  -0.69985  -0.69196
 Alpha  occ. eigenvalues --   -0.64562  -0.62902  -0.58310  -0.56897  -0.55042
 Alpha  occ. eigenvalues --   -0.53289  -0.51677  -0.50206  -0.47333  -0.44155
 Alpha  occ. eigenvalues --   -0.36194
 Alpha virt. eigenvalues --    0.03532   0.03823   0.04358   0.04857   0.05422
 Alpha virt. eigenvalues --    0.06332   0.07176   0.08497   0.10630   0.11400
 Alpha virt. eigenvalues --    0.12178   0.12239   0.12421   0.13911   0.14707

 Mulliken charges:
               1
     1  C   -1.146618
     2  C    0.134339
     3  O   -1.407114
     4  N    1.425631
     5  S    0.466713
     6  C   -0.339894
     7  H    0.225873
     8  H    0.192873
     9  H    0.071162
    10  C   -0.289199
    11  H    0.115435
    12  H    0.171327
    13  H    0.181495
    14  H    0.197978
 Sum of Mulliken charges =  -0.00000

 Dipole moment (field-independent basis, Debye):
    X=              0.9864    Y=             -2.4251    Z=              0.9146  Tot=              2.7732

 Test job not archived.
 1\1\GINC-SE021\SP\RHF\Aug-CC-pVDZ\C4H7N1O1S1\OHZDE\09-Apr-2025\0\\#t h
 f aug-cc-pvdz iop(5/13=1,5/36=2,99/5=2) pseudo=read geom=check guess=(
 read,tcheck) scf=(maxcycle=1)\\title\\0,1\C,0,0.326292,0.357313,0.2087
 25\C,0,-2.042568,-0.278709,0.065325\O,0,-1.715471,1.029909,-0.380937\N
 ,0,-0.39982,1.381272,-0.006945\S,0,-0.473962,-1.220509,0.043145\C,0,1.
 780303,0.479862,0.541354\H,0,1.949556,0.052326,1.53244\H,0,-2.43833,-0
 .250978,1.083946\H,0,-2.767427,-0.702966,-0.623847\C,0,2.695656,-0.206
 573,-0.479171\H,0,3.73856,-0.072638,-0.193033\H,0,2.501003,-1.277813,-

 Normal termination of Gaussian 16 at Wed Apr  9 02:18:07 2025.
