 Gaussian 16, Revision C.01,

 ----------------------------------------------------------------------
 #t hf aug-cc-pvdz symm=none int=(grid=ultrafine) guess=(read,tcheck) s
 table=(opt,rrhf)
 ----------------------------------------------------------------------
 -----
 title
 -----
 Symbolic Z-matrix:
 Charge =  0 Multiplicity = 1

 SCF Done:  E(RHF) =  -721.405036570     A.U. after   15 cycles
 Normal termination of Gaussian 16 at Wed Apr  9 02:19:03 2025.
 Gaussian 16:  ES64L-G16RevC.01  3-Jul-2019

 ----------------------------------------------------------------------
 #t hf aug-cc-pvdz iop(5/13=1,5/36=2,99/5=2) pseudo=read geom=check gue
 ss=(read,tcheck) scf=(maxcycle=1)
 ----------------------------------------------------------------------
 -----
 title
 -----
 Structure from the checkpoint file:  "CR20_19_mol3.chk"
 Charge =  0 Multiplicity = 1

                         Standard orientation:
 ---------------------------------------------------------------------
 Center     Atomic      Atomic             Coordinates (Angstroms)
 Number     Number       Type             X           Y           Z
 ---------------------------------------------------------------------
      1          6           0        1.398503    0.145372   -0.070837
      2          6           0       -1.101738    0.050284    0.029240
      3          8           0       -0.486532    1.243956   -0.498891
      4          7           0        0.898466    1.298696   -0.284384
      5         16           0        0.267995   -1.208165   -0.034131
      6          6           0        2.865728   -0.050966    0.109629
      7          1           0        3.086660   -0.448741    1.100772
      8          1           0        3.248177   -0.761886   -0.624853
      9          1           0        3.376802    0.900595   -0.017489
     10          6           0       -1.537457    0.289765    1.469856
     11          1           0       -2.293680    1.076153    1.493205
     12          1           0       -1.960439   -0.618668    1.898732
     13          1           0       -0.692873    0.602078    2.081264
     14          6           0       -2.257911   -0.313384   -0.885008
     15          1           0       -2.760995   -1.212935   -0.531147
     16          1           0       -2.982195    0.502088   -0.887967
     17          1           0       -1.909137   -0.476982   -1.901876
 ---------------------------------------------------------------------

 SCF Done:  E(RHF) =  -721.799908661     A.U. after    2 cycles

 The electronic state is 1-A.
 Alpha  occ. eigenvalues --  -93.96554 -20.58629 -15.56116 -11.34281 -11.31962
 Alpha  occ. eigenvalues --  -11.25746 -11.24243 -11.23838  -8.24825  -6.22600
 Alpha  occ. eigenvalues --   -6.22481  -6.22246  -1.51428  -1.20694  -1.11575
 Alpha  occ. eigenvalues --   -1.00576  -0.99330  -0.96248  -0.82037  -0.75971
 Alpha  occ. eigenvalues --   -0.67403  -0.66926  -0.63777  -0.61686  -0.60462
 Alpha  occ. eigenvalues --   -0.59216  -0.56881  -0.56519  -0.54734  -0.52400
 Alpha  occ. eigenvalues --   -0.51584  -0.47688  -0.46499  -0.43339  -0.35716
 Alpha virt. eigenvalues --    0.03637   0.03811   0.04431   0.04898   0.05480
 Alpha virt. eigenvalues --    0.05877   0.05880   0.07624   0.08832   0.09152
 Alpha virt. eigenvalues --    0.10549   0.10807   0.12156   0.13130   0.13266

 Mulliken charges:
               1
     1  C   -1.310721
     2  C   -0.174903
     3  O   -1.663153
     4  N    1.310473
     5  S    0.567798
     6  C   -0.426984
     7  H    0.258250
     8  H    0.243915
     9  H    0.181695
    10  C   -0.195941
    11  H    0.236409
    12  H    0.217140
    13  H    0.181459
    14  C   -0.063284
    15  H    0.242523
    16  H    0.206665
    17  H    0.188658
 Sum of Mulliken charges =   0.00000

 Dipole moment (field-independent basis, Debye):
    X=             -0.2515    Y=             -2.3641    Z=              1.0829  Tot=              2.6124

 Test job not archived.
 1\1\GINC-SE159\SP\RHF\Aug-CC-pVDZ\C5H9N1O1S1\OHZDE\09-Apr-2025\0\\#t h
 f aug-cc-pvdz iop(5/13=1,5/36=2,99/5=2) pseudo=read geom=check guess=(
 read,tcheck) scf=(maxcycle=1)\\title\\0,1\C,0,1.398503,0.145372,-0.070
 837\C,0,-1.101738,0.050284,0.02924\O,0,-0.486532,1.243956,-0.498891\N,
 0,0.898466,1.298696,-0.284384\S,0,0.267995,-1.208165,-0.034131\C,0,2.8
 65728,-0.050966,0.109629\H,0,3.08666,-0.448741,1.100772\H,0,3.248177,-
 0.761886,-0.624853\H,0,3.376802,0.900595,-0.017489\C,0,-1.537457,0.289
 765,1.469856\H,0,-2.29368,1.076153,1.493205\H,0,-1.960439,-0.618668,1.

 Normal termination of Gaussian 16 at Wed Apr  9 02:19:12 2025.
