 Gaussian 16, Revision C.01,

 ----------------------------------------------------------------------
 #t hf aug-cc-pvdz symm=none int=(grid=ultrafine) guess=(read,tcheck) s
 table=(opt,rrhf)
 ----------------------------------------------------------------------
 -----
 title
 -----
 Symbolic Z-matrix:
 Charge =  0 Multiplicity = 1

 SCF Done:  E(RHF) =  -742.172361537     A.U. after   14 cycles
 Normal termination of Gaussian 16 at Wed Apr  9 02:17:44 2025.
 Gaussian 16:  ES64L-G16RevC.01  3-Jul-2019

 ----------------------------------------------------------------------
 #t hf aug-cc-pvdz iop(5/13=1,5/36=2,99/5=2) pseudo=read geom=check gue
 ss=(read,tcheck) scf=(maxcycle=1)
 ----------------------------------------------------------------------
 -----
 title
 -----
 Structure from the checkpoint file:  "CR20_14_mol3.chk"
 Charge =  0 Multiplicity = 1

                         Standard orientation:
 ---------------------------------------------------------------------
 Center     Atomic      Atomic             Coordinates (Angstroms)
 Number     Number       Type             X           Y           Z
 ---------------------------------------------------------------------
      1          6           0        0.366341    0.331324   -0.178300
      2          6           0       -1.932772   -0.281797    0.381738
      3          1           0       -2.852294   -0.616603   -0.089387
      4          8           0       -1.712426    1.077620    0.012420
      5          7           0       -0.345051    1.378985   -0.031050
      6         16           0       -0.482917   -1.214603   -0.240472
      7          6           0        1.839962    0.451015   -0.382400
      8          1           0        2.127804    0.042402   -1.353008
      9          1           0        2.127237    1.498607   -0.316430
     10          9           0        2.531704   -0.265649    0.592199
     11          1           0       -1.987839   -0.377014    1.468359
 ---------------------------------------------------------------------

 SCF Done:  E(RHF) =  -742.566703226     A.U. after    2 cycles

 The electronic state is 1-A.
 Alpha  occ. eigenvalues --  -93.98561 -26.46758 -20.61102 -15.58948 -11.35576
 Alpha  occ. eigenvalues --  -11.34798 -11.33687  -8.26820  -6.24593  -6.24484
 Alpha  occ. eigenvalues --   -6.24217  -1.58789  -1.53996  -1.22710  -1.10399
 Alpha  occ. eigenvalues --   -1.00257  -0.91269  -0.80662  -0.73525  -0.71935
 Alpha  occ. eigenvalues --   -0.71559  -0.68958  -0.64526  -0.61781  -0.57478
 Alpha  occ. eigenvalues --   -0.55549  -0.55019  -0.51769  -0.49523  -0.46094
 Alpha  occ. eigenvalues --   -0.37259
 Alpha virt. eigenvalues --    0.03492   0.04081   0.04941   0.05531   0.07321
 Alpha virt. eigenvalues --    0.08287   0.08730   0.09788   0.11565   0.11982
 Alpha virt. eigenvalues --    0.13193   0.13860   0.14357   0.15890   0.16340

 Mulliken charges:
               1
     1  C   -1.311244
     2  C    0.177747
     3  H    0.088145
     4  O   -1.395610
     5  N    1.378991
     6  S    0.472023
     7  C    0.789578
     8  H    0.165131
     9  H    0.132549
    10  F   -0.689613
    11  H    0.192302
 Sum of Mulliken charges =  -0.00000

 Dipole moment (field-independent basis, Debye):
    X=             -0.6050    Y=             -1.6903    Z=             -0.7452  Tot=              1.9438

 Test job not archived.
 1\1\GINC-SE115\SP\RHF\Aug-CC-pVDZ\C3H4F1N1O1S1\OHZDE\09-Apr-2025\0\\#t
  hf aug-cc-pvdz iop(5/13=1,5/36=2,99/5=2) pseudo=read geom=check guess
 =(read,tcheck) scf=(maxcycle=1)\\title\\0,1\C,0,0.366341,0.331324,-0.1
 783\C,0,-1.932772,-0.281797,0.381738\H,0,-2.852294,-0.616603,-0.089387
 \O,0,-1.712426,1.07762,0.01242\N,0,-0.345051,1.378985,-0.03105\S,0,-0.
 482917,-1.214603,-0.240472\C,0,1.839962,0.451015,-0.3824\H,0,2.127804,
 0.042402,-1.353008\H,0,2.127237,1.498607,-0.31643\F,0,2.531704,-0.2656
 49,0.592199\H,0,-1.987839,-0.377014,1.468359\\Version=ES64L-G16RevC.01

 Normal termination of Gaussian 16 at Wed Apr  9 02:17:49 2025.
