 Gaussian 16, Revision C.01,

 ----------------------------------------------------------------------
 #t hf aug-cc-pvdz symm=none int=(grid=ultrafine) guess=(read,tcheck) s
 table=(opt,rrhf)
 ----------------------------------------------------------------------
 -----
 title
 -----
 Symbolic Z-matrix:
 Charge =  0 Multiplicity = 1

 SCF Done:  E(RHF) =  -568.507456044     A.U. after   14 cycles
 Normal termination of Gaussian 16 at Wed Apr  9 02:17:13 2025.
 Gaussian 16:  ES64L-G16RevC.01  3-Jul-2019

 ----------------------------------------------------------------------
 #t hf aug-cc-pvdz iop(5/13=1,5/36=2,99/5=2) pseudo=read geom=check gue
 ss=(read,tcheck) scf=(maxcycle=1)
 ----------------------------------------------------------------------
 -----
 title
 -----
 Structure from the checkpoint file:  "CR20_13_mol1.chk"
 Charge =  0 Multiplicity = 1

                         Standard orientation:
 ---------------------------------------------------------------------
 Center     Atomic      Atomic             Coordinates (Angstroms)
 Number     Number       Type             X           Y           Z
 ---------------------------------------------------------------------
      1          6           0       -0.114333   -0.777314    0.000000
      2         16           0       -0.367106   -2.340737    0.000000
      3          7           0        0.000000    0.401172    0.000000
      4          6           0        0.799810    1.591603    0.000000
      5          1           0        1.445951    1.570224    0.881049
      6          1           0        1.445951    1.570224   -0.881049
      7          6           0       -0.055734    2.851447    0.000000
      8          1           0        0.587127    3.731737    0.000000
      9          1           0       -0.691895    2.888497   -0.883504
     10          1           0       -0.691895    2.888497    0.883504
 ---------------------------------------------------------------------

 SCF Done:  E(RHF) =  -568.743212066     A.U. after    2 cycles

 The electronic state is 1-A'.
 Alpha  occ. eigenvalues --  -93.93668 -15.54647 -11.37681 -11.31626 -11.25102
 Alpha  occ. eigenvalues --   -8.21967  -6.19874  -6.19432  -6.19409  -1.29920
 Alpha  occ. eigenvalues --   -1.09671  -1.04987  -0.92196  -0.76131  -0.68747
 Alpha  occ. eigenvalues --   -0.63702  -0.60664  -0.58458  -0.56831  -0.53460
 Alpha  occ. eigenvalues --   -0.52127  -0.37541  -0.36859
 Alpha virt. eigenvalues --    0.02824   0.04155   0.04310   0.04791   0.06588
 Alpha virt. eigenvalues --    0.07725   0.09321   0.10403   0.10920   0.11303
 Alpha virt. eigenvalues --    0.11666   0.12852   0.14609   0.15000   0.16406

 Mulliken charges:
               1
     1  C   -1.001747
     2  S    0.239844
     3  N    0.707850
     4  C   -0.360683
     5  H    0.078933
     6  H    0.078933
     7  C   -0.251540
     8  H    0.171438
     9  H    0.168486
    10  H    0.168486
 Sum of Mulliken charges =  -0.00000

 Dipole moment (field-independent basis, Debye):
    X=              1.4270    Y=              3.3434    Z=              0.0000  Tot=              3.6352

 Test job not archived.
 1\1\GINC-SE159\SP\RHF\Aug-CC-pVDZ\C3H5N1S1\OHZDE\09-Apr-2025\0\\#t hf
 aug-cc-pvdz iop(5/13=1,5/36=2,99/5=2) pseudo=read geom=check guess=(re
 ad,tcheck) scf=(maxcycle=1)\\title\\0,1\C,0,-0.114333,-0.777314,0.\S,0
 ,-0.367107,-2.340737,0.\N,0,0.,0.401172,0.\C,0,0.79981,1.591603,0.\H,0
 ,1.445951,1.570224,0.881049\H,0,1.445951,1.570224,-0.881049\C,0,-0.055
 733,2.851447,0.\H,0,0.587128,3.731737,0.\H,0,-0.691894,2.888497,-0.883
 504\H,0,-0.691894,2.888497,0.883504\\Version=ES64L-G16RevC.01\State=1-
 A'\HF=-568.7432121\RMSD=1.213e-02\Dipole=0.5614208,1.3154025,0.\Quadru

 Normal termination of Gaussian 16 at Wed Apr  9 02:17:17 2025.
