 Gaussian 16, Revision C.01,

 ----------------------------------------------------------------------
 #t hf aug-cc-pvdz symm=none int=(grid=ultrafine) guess=(read,tcheck) s
 table=(opt,rrhf)
 ----------------------------------------------------------------------
 -----
 title
 -----
 Symbolic Z-matrix:
 Charge =  0 Multiplicity = 1

 SCF Done:  E(RHF) =  -717.052020752     A.U. after   15 cycles
 Normal termination of Gaussian 16 at Wed Apr  9 02:18:12 2025.
 Gaussian 16:  ES64L-G16RevC.01  3-Jul-2019

 ----------------------------------------------------------------------
 #t hf aug-cc-pvdz iop(5/13=1,5/36=2,99/5=2) pseudo=read geom=check gue
 ss=(read,tcheck) scf=(maxcycle=1)
 ----------------------------------------------------------------------
 -----
 title
 -----
 Structure from the checkpoint file:  "CR20_20_mol3.chk"
 Charge =  0 Multiplicity = 1

                         Standard orientation:
 ---------------------------------------------------------------------
 Center     Atomic      Atomic             Coordinates (Angstroms)
 Number     Number       Type             X           Y           Z
 ---------------------------------------------------------------------
      1          6           0        0.000000    1.121289    0.000000
      2          6           0       -0.218304   -1.340504    0.000000
      3          8           0       -1.383087   -0.619211    0.000000
      4          7           0       -1.232135    0.773731    0.000000
      5         16           0        1.158472   -0.188411    0.000000
      6          6           0        0.398898    2.556510    0.000000
      7          1           0        0.996347    2.789860    0.881949
      8          1           0        0.996347    2.789860   -0.881949
      9          1           0       -0.495456    3.175668    0.000000
     10          8           0       -0.178338   -2.528377    0.000000
 ---------------------------------------------------------------------

 SCF Done:  E(RHF) =  -717.422798364     A.U. after    2 cycles

 The electronic state is 1-A'.
 Alpha  occ. eigenvalues --  -94.02051 -20.64933 -20.56732 -15.60305 -11.44491
 Alpha  occ. eigenvalues --  -11.35960 -11.28478  -8.30371  -6.28116  -6.28021
 Alpha  occ. eigenvalues --   -6.27765  -1.59790  -1.50654  -1.25035  -1.11924
 Alpha  occ. eigenvalues --   -1.03544  -0.88679  -0.80631  -0.71954  -0.70638
 Alpha  occ. eigenvalues --   -0.67481  -0.64151  -0.63243  -0.60193  -0.58767
 Alpha  occ. eigenvalues --   -0.55889  -0.52051  -0.48866  -0.45744  -0.40967
 Alpha virt. eigenvalues --    0.02650   0.04293   0.04827   0.06208   0.07726
 Alpha virt. eigenvalues --    0.08564   0.09114   0.10016   0.11036   0.12021
 Alpha virt. eigenvalues --    0.12098   0.13875   0.14092   0.14644   0.15201

 Mulliken charges:
               1
     1  C   -1.319226
     2  C    1.411171
     3  O   -1.340059
     4  N    1.325659
     5  S    0.588519
     6  C   -0.178767
     7  H    0.257992
     8  H    0.257992
     9  H    0.177477
    10  O   -1.180757
 Sum of Mulliken charges =   0.00000

 Dipole moment (field-independent basis, Debye):
    X=              3.0505    Y=              4.2655    Z=             -0.0000  Tot=              5.2441

 Test job not archived.
 1\1\GINC-SE195\SP\RHF\Aug-CC-pVDZ\C3H3N1O2S1\OHZDE\09-Apr-2025\0\\#t h
 f aug-cc-pvdz iop(5/13=1,5/36=2,99/5=2) pseudo=read geom=check guess=(
 read,tcheck) scf=(maxcycle=1)\\title\\0,1\C,0,0.,1.121289,0.\C,0,-0.21
 8304,-1.340504,0.\O,0,-1.383087,-0.619211,0.\N,0,-1.232135,0.773731,0.
 \S,0,1.158472,-0.188411,0.\C,0,0.398898,2.55651,0.\H,0,0.996347,2.7898
 6,0.881949\H,0,0.996347,2.78986,-0.881949\H,0,-0.495456,3.175668,0.\O,
 0,-0.178338,-2.528377,0.\\Version=ES64L-G16RevC.01\State=1-A'\HF=-717.
 4227984\RMSD=1.651e-02\Dipole=1.2001424,1.6781904,0.\Quadrupole=-1.435

 Normal termination of Gaussian 16 at Wed Apr  9 02:18:17 2025.
