 Gaussian 16, Revision C.01,

 ----------------------------------------------------------------------
 #t hf aug-cc-pvdz symm=none int=(grid=ultrafine) guess=(read,tcheck) s
 table=(opt,rrhf)
 ----------------------------------------------------------------------
 -----
 title
 -----
 Symbolic Z-matrix:
 Charge =  0 Multiplicity = 1

 SCF Done:  E(RHF) =  -212.778117174     A.U. after   12 cycles
 Normal termination of Gaussian 16 at Wed Apr  9 02:18:00 2025.
 Gaussian 16:  ES64L-G16RevC.01  3-Jul-2019

 ----------------------------------------------------------------------
 #t hf aug-cc-pvdz iop(5/13=1,5/36=2,99/5=2) pseudo=read geom=check gue
 ss=(read,tcheck) scf=(maxcycle=1)
 ----------------------------------------------------------------------
 -----
 title
 -----
 Structure from the checkpoint file:  "CR20_18_mol2.chk"
 Charge =  0 Multiplicity = 1

                         Standard orientation:
 ---------------------------------------------------------------------
 Center     Atomic      Atomic             Coordinates (Angstroms)
 Number     Number       Type             X           Y           Z
 ---------------------------------------------------------------------
      1          6           0        0.000000    0.400214   -0.000000
      2          1           0       -0.464362    1.390354    0.000000
      3          8           0        1.146369    0.135415   -0.000000
      4          9           0       -0.967399   -0.541663    0.000000
 ---------------------------------------------------------------------

 SCF Done:  E(RHF) =  -212.976848926     A.U. after    2 cycles

 The electronic state is 1-A'.
 Alpha  occ. eigenvalues --  -26.51068 -20.59375 -11.45142  -1.65306  -1.53031
 Alpha  occ. eigenvalues --   -0.91053  -0.78890  -0.72936  -0.71137  -0.62502
 Alpha  occ. eigenvalues --   -0.55365  -0.50409
 Alpha virt. eigenvalues --    0.03309   0.07667   0.08934   0.09046   0.13885
 Alpha virt. eigenvalues --    0.15137   0.21578   0.22941   0.24972   0.25474
 Alpha virt. eigenvalues --    0.29850   0.30412   0.32872   0.33778   0.38907

 Mulliken charges:
               1
     1  C    1.279753
     2  H    0.125385
     3  O   -0.819636
     4  F   -0.585501
 Sum of Mulliken charges =  -0.00000

 Dipole moment (field-independent basis, Debye):
    X=             -1.4804    Y=              1.7959    Z=              0.0000  Tot=              2.3274

 Test job not archived.
 1\1\GINC-SE054\SP\RHF\Aug-CC-pVDZ\C1H1F1O1\OHZDE\09-Apr-2025\0\\#t hf
 aug-cc-pvdz iop(5/13=1,5/36=2,99/5=2) pseudo=read geom=check guess=(re
 ad,tcheck) scf=(maxcycle=1)\\title\\0,1\C,0,0.,0.400214,0.\H,0,-0.4643
 62,1.390354,0.\O,0,1.146369,0.135415,0.\F,0,-0.967399,-0.541663,0.\\Ve
 rsion=ES64L-G16RevC.01\State=1-A'\HF=-212.9768489\RMSD=7.336e-03\Dipol
 e=-0.5824219,0.7065483,0.\Quadrupole=-2.1184139,1.2700259,0.848388,-1.
 0253111,0.,0.\PG=CS [SG(C1H1F1O1)]\\@

 Normal termination of Gaussian 16 at Wed Apr  9 02:18:02 2025.
