 Gaussian 16, Revision C.01,

 ----------------------------------------------------------------------
 #t hf aug-cc-pvdz symm=none int=(grid=ultrafine) guess=(read,tcheck) s
 table=(opt,rrhf)
 ----------------------------------------------------------------------
 -----
 title
 -----
 Symbolic Z-matrix:
 Charge =  0 Multiplicity = 1

 SCF Done:  E(RHF) =  -419.478282607     A.U. after   17 cycles
 Normal termination of Gaussian 16 at Wed Apr  9 02:18:18 2025.
 Gaussian 16:  ES64L-G16RevC.01  3-Jul-2019

 ----------------------------------------------------------------------
 #t hf aug-cc-pvdz iop(5/13=1,5/36=2,99/5=2) pseudo=read geom=check gue
 ss=(read,tcheck) scf=(maxcycle=1)
 ----------------------------------------------------------------------
 -----
 title
 -----
 Structure from the checkpoint file:  "CRBH20_8_mol1.chk"
 Charge =  0 Multiplicity = 1

                         Standard orientation:
 ---------------------------------------------------------------------
 Center     Atomic      Atomic             Coordinates (Angstroms)
 Number     Number       Type             X           Y           Z
 ---------------------------------------------------------------------
      1          6           0        1.179210    0.191454   -0.041007
      2          6           0       -1.572502   -0.031066    0.321914
      3          8           0       -1.047661   -0.969874   -0.215689
      4          7           0        0.837804   -1.049190    0.050219
      5          6           0        2.743131   -0.012823    0.047978
      6          1           0        3.056507    0.579077    0.904999
      7          1           0        3.076466   -1.040335    0.161728
      8          1           0        3.127237    0.398913   -0.882915
      9          1           0       -1.211695    0.535200    1.173465
     10          9           0       -2.761455    0.375981   -0.085654
     11          8           0        0.652776    1.295156   -0.148216
 ---------------------------------------------------------------------

 SCF Done:  E(RHF) =  -419.877570588     A.U. after    2 cycles

 The electronic state is 1-A.
 Alpha  occ. eigenvalues --  -26.53675 -20.62041 -20.52849 -15.60414 -11.47801
 Alpha  occ. eigenvalues --  -11.37215 -11.27348  -1.68776  -1.55126  -1.46766
 Alpha  occ. eigenvalues --   -1.24172  -0.99389  -0.93677  -0.82281  -0.77633
 Alpha  occ. eigenvalues --   -0.73925  -0.72705  -0.66146  -0.65800  -0.65229
 Alpha  occ. eigenvalues --   -0.62458  -0.59623  -0.57458  -0.55431  -0.52237
 Alpha  occ. eigenvalues --   -0.45226  -0.43395
 Alpha virt. eigenvalues --    0.03376   0.03497   0.05310   0.05739   0.06120
 Alpha virt. eigenvalues --    0.08423   0.08671   0.09027   0.11705   0.12599
 Alpha virt. eigenvalues --    0.13488   0.14266   0.15141   0.15492   0.15724

 Mulliken charges:
               1
     1  C    0.074345
     2  C    1.500490
     3  O   -0.942753
     4  N    0.696482
     5  C   -0.379293
     6  H    0.241138
     7  H    0.229891
     8  H    0.265290
     9  H    0.149479
    10  F   -0.596313
    11  O   -1.238754
 Sum of Mulliken charges =  -0.00000

 Dipole moment (field-independent basis, Debye):
    X=              0.8820    Y=              0.1180    Z=              1.9217  Tot=              2.1177

 Test job not archived.
 1\1\GINC-SE128\SP\RHF\Aug-CC-pVDZ\C3H4F1N1O2\OHZDE\09-Apr-2025\0\\#t h
 f aug-cc-pvdz iop(5/13=1,5/36=2,99/5=2) pseudo=read geom=check guess=(
 read,tcheck) scf=(maxcycle=1)\\title\\0,1\C,0,-1.17921,-0.191454,-0.04
 1007\C,0,1.572502,0.031066,0.321914\O,0,1.047661,0.969874,-0.215689\N,
 0,-0.837804,1.04919,0.050219\C,0,-2.743131,0.012823,0.047978\H,0,-3.05
 6507,-0.579077,0.904999\H,0,-3.076466,1.040335,0.161728\H,0,-3.127237,
 -0.398913,-0.882915\H,0,1.211695,-0.5352,1.173465\F,0,2.761455,-0.3759
 81,-0.085654\O,0,-0.652776,-1.295156,-0.148216\\Version=ES64L-G16RevC.

 Normal termination of Gaussian 16 at Wed Apr  9 02:18:22 2025.
