 Gaussian 16, Revision C.01,

 ----------------------------------------------------------------------
 #t hf aug-cc-pvdz symm=none int=(grid=ultrafine) guess=(read,tcheck) s
 table=(opt,rrhf)
 ----------------------------------------------------------------------
 -----
 title
 -----
 Symbolic Z-matrix:
 Charge =  0 Multiplicity = 1

 SCF Done:  E(RHF) =  -682.300639371     A.U. after   17 cycles
 Normal termination of Gaussian 16 at Wed Apr  9 02:18:28 2025.
 Gaussian 16:  ES64L-G16RevC.01  3-Jul-2019

 ----------------------------------------------------------------------
 #t hf aug-cc-pvdz iop(5/13=1,5/36=2,99/5=2) pseudo=read geom=check gue
 ss=(read,tcheck) scf=(maxcycle=1)
 ----------------------------------------------------------------------
 -----
 title
 -----
 Structure from the checkpoint file:  "CRBH20_15_mol1.chk"
 Charge =  0 Multiplicity = 1

                         Standard orientation:
 ---------------------------------------------------------------------
 Center     Atomic      Atomic             Coordinates (Angstroms)
 Number     Number       Type             X           Y           Z
 ---------------------------------------------------------------------
      1          6           0        1.198022   -0.139358   -0.033561
      2          6           0       -1.813149   -0.299587    0.327282
      3          8           0       -1.279483   -1.060943   -0.457368
      4          7           0        0.749291   -1.300306   -0.068345
      5         16           0        0.886121    1.491250   -0.117284
      6          6           0        2.711154   -0.705362    0.220093
      7          1           0        3.262081   -0.295739   -0.620507
      8          1           0        2.989383   -0.255310    1.167252
      9          1           0        2.825828   -1.784400    0.258963
     10          1           0       -1.301313   -0.018558    1.256912
     11          6           0       -3.171284    0.275461    0.107082
     12          1           0       -3.820256   -0.007400    0.939797
     13          1           0       -3.095366    1.365004    0.121022
     14          1           0       -3.595914   -0.060839   -0.834909
 ---------------------------------------------------------------------

 SCF Done:  E(RHF) =  -682.645158099     A.U. after    2 cycles

 The electronic state is 1-A.
 Alpha  occ. eigenvalues --  -93.90607 -20.56882 -15.61618 -11.36224 -11.35534
 Alpha  occ. eigenvalues --  -11.29838 -11.25743  -8.18806  -6.16721  -6.16316
 Alpha  occ. eigenvalues --   -6.16241  -1.49896  -1.29393  -1.04023  -1.01957
 Alpha  occ. eigenvalues --   -0.97808  -0.82630  -0.74408  -0.68661  -0.65568
 Alpha  occ. eigenvalues --   -0.64366  -0.63072  -0.61712  -0.60120  -0.57239
 Alpha  occ. eigenvalues --   -0.55571  -0.55221  -0.51825  -0.43780  -0.35698
 Alpha  occ. eigenvalues --   -0.34064
 Alpha virt. eigenvalues --    0.02875   0.03381   0.04367   0.04860   0.05433
 Alpha virt. eigenvalues --    0.05852   0.06156   0.07212   0.09607   0.10076
 Alpha virt. eigenvalues --    0.10329   0.11503   0.12245   0.13440   0.13632

 Mulliken charges:
               1
     1  C   -1.565789
     2  C    1.115614
     3  O   -1.112591
     4  N    1.002512
     5  S    0.017858
     6  C   -0.376876
     7  H    0.295604
     8  H    0.284956
     9  H    0.175986
    10  H    0.136930
    11  C   -0.621356
    12  H    0.235269
    13  H    0.258714
    14  H    0.153170
 Sum of Mulliken charges =  -0.00000

 Dipole moment (field-independent basis, Debye):
    X=             -0.5466    Y=             -0.8310    Z=              2.0458  Tot=              2.2748

 Test job not archived.
 1\1\GINC-SE366\SP\RHF\Aug-CC-pVDZ\C4H7N1O1S1\OHZDE\09-Apr-2025\0\\#t h
 f aug-cc-pvdz iop(5/13=1,5/36=2,99/5=2) pseudo=read geom=check guess=(
 read,tcheck) scf=(maxcycle=1)\\title\\0,1\C,0,1.198022,-0.139358,-0.03
 3561\C,0,-1.813149,-0.299587,0.327282\O,0,-1.279483,-1.060943,-0.45736
 8\N,0,0.749291,-1.300306,-0.068345\S,0,0.886121,1.49125,-0.117284\C,0,
 2.711154,-0.705362,0.220093\H,0,3.262081,-0.295739,-0.620507\H,0,2.989
 383,-0.25531,1.167252\H,0,2.825828,-1.7844,0.258963\H,0,-1.301313,-0.0
 18558,1.256912\C,0,-3.171284,0.275461,0.107082\H,0,-3.820256,-0.0074,0

 Normal termination of Gaussian 16 at Wed Apr  9 02:18:33 2025.
