 Gaussian 16, Revision C.01,

 ----------------------------------------------------------------------
 #t hf aug-cc-pvdz symm=none int=(grid=ultrafine) guess=(read,tcheck) s
 table=(opt,rrhf)
 ----------------------------------------------------------------------
 -----
 title
 -----
 Symbolic Z-matrix:
 Charge =  0 Multiplicity = 1

 SCF Done:  E(RHF) =  -698.327566258     A.U. after   17 cycles
 Normal termination of Gaussian 16 at Wed Apr  9 02:18:31 2025.
 Gaussian 16:  ES64L-G16RevC.01  3-Jul-2019

 ----------------------------------------------------------------------
 #t hf aug-cc-pvdz iop(5/13=1,5/36=2,99/5=2) pseudo=read geom=check gue
 ss=(read,tcheck) scf=(maxcycle=1)
 ----------------------------------------------------------------------
 -----
 title
 -----
 Structure from the checkpoint file:  "CRBH20_17_mol1.chk"
 Charge =  0 Multiplicity = 1

                         Standard orientation:
 ---------------------------------------------------------------------
 Center     Atomic      Atomic             Coordinates (Angstroms)
 Number     Number       Type             X           Y           Z
 ---------------------------------------------------------------------
      1          6           0        1.186682   -0.155656   -0.036925
      2          6           0       -1.881065   -0.202354    0.301269
      3          8           0       -1.350246   -0.951306   -0.513911
      4          7           0        0.652258   -1.279304   -0.078969
      5         16           0        1.016781    1.493697   -0.137678
      6          6           0        2.640539   -0.844929    0.270911
      7          1           0        3.249870   -0.486447   -0.552529
      8          1           0        2.922921   -0.410839    1.224233
      9          1           0        2.668315   -1.929363    0.319121
     10          1           0       -1.359577    0.149742    1.195280
     11          7           0       -3.142812    0.235833    0.182404
     12          1           0       -3.673946    0.009188   -0.642796
     13          1           0       -3.517190    0.900942    0.835248
 ---------------------------------------------------------------------

 SCF Done:  E(RHF) =  -698.685210290     A.U. after    2 cycles

 The electronic state is 1-A.
 Alpha  occ. eigenvalues --  -93.90015 -20.54169 -15.60928 -15.55364 -11.38250
 Alpha  occ. eigenvalues --  -11.34925 -11.29266  -8.18213  -6.16129  -6.15726
 Alpha  occ. eigenvalues --   -6.15647  -1.48380  -1.28814  -1.24943  -1.01461
 Alpha  occ. eigenvalues --   -0.97210  -0.89679  -0.80498  -0.72573  -0.71884
 Alpha  occ. eigenvalues --   -0.64649  -0.64288  -0.62438  -0.60453  -0.58813
 Alpha  occ. eigenvalues --   -0.54996  -0.54700  -0.46103  -0.44885  -0.35139
 Alpha  occ. eigenvalues --   -0.33484
 Alpha virt. eigenvalues --    0.02338   0.03503   0.04765   0.05368   0.05624
 Alpha virt. eigenvalues --    0.06365   0.06882   0.09120   0.09891   0.11274
 Alpha virt. eigenvalues --    0.12161   0.12773   0.13191   0.13823   0.14848

 Mulliken charges:
               1
     1  C   -1.532270
     2  C    0.231099
     3  O   -1.116827
     4  N    0.999551
     5  S    0.035663
     6  C   -0.421238
     7  H    0.286563
     8  H    0.278396
     9  H    0.173582
    10  H    0.129037
    11  N    0.790121
    12  H    0.064268
    13  H    0.082056
 Sum of Mulliken charges =  -0.00000

 Dipole moment (field-independent basis, Debye):
    X=             -1.8645    Y=             -0.4695    Z=              2.2500  Tot=              2.9597

 Test job not archived.
 1\1\GINC-SE080\SP\RHF\Aug-CC-pVDZ\C3H6N2O1S1\OHZDE\09-Apr-2025\0\\#t h
 f aug-cc-pvdz iop(5/13=1,5/36=2,99/5=2) pseudo=read geom=check guess=(
 read,tcheck) scf=(maxcycle=1)\\title\\0,1\C,0,1.186682,-0.155656,-0.03
 6925\C,0,-1.881065,-0.202354,0.301269\O,0,-1.350246,-0.951306,-0.51391
 1\N,0,0.652258,-1.279304,-0.078969\S,0,1.016781,1.493697,-0.137678\C,0
 ,2.640539,-0.844929,0.270911\H,0,3.24987,-0.486447,-0.552529\H,0,2.922
 921,-0.410839,1.224233\H,0,2.668315,-1.929363,0.319121\H,0,-1.359577,0
 .149742,1.19528\N,0,-3.142812,0.235833,0.182404\H,0,-3.673946,0.009188

 Normal termination of Gaussian 16 at Wed Apr  9 02:18:35 2025.
