 Gaussian 16, Revision C.01,

 ----------------------------------------------------------------------
 #t hf aug-cc-pvdz symm=none int=(grid=ultrafine) guess=(read,tcheck) s
 table=(opt,rrhf)
 ----------------------------------------------------------------------
 -----
 title
 -----
 Symbolic Z-matrix:
 Charge = -1 Multiplicity = 1

 SCF Done:  E(RHF) =  -958.700327124     A.U. after   11 cycles

 1\1\GINC-SE455\Stability\RHF\Aug-CC-pVDZ\C1H3Cl2\OHZDE\09-Apr-2025\0\\
 #t hf aug-cc-pvdz symm=none int=(grid=ultrafine) guess=(read,tcheck) s
 table=(opt,rrhf)\\title\\-1,1\Cl,0,0.,0.,-2.2180723\C,0,0.,0.,-0.39966
 594\H,0,-0.51253194,0.88773136,-0.05771427\H,0,-0.51253194,-0.88773136
 ,-0.05771427\H,0,1.02506388,0.,-0.05771427\Cl,0,0.,0.,2.79088105\\Vers
 ion=ES64L-G16RevC.01\HF=-958.7003271\RMSD=7.202e-09\Dipole=0.,0.,-3.36
 5306\Quadrupole=11.1220226,11.1220226,-22.2440451,0.,0.,0.\PG=Unknown\
 \@

 Normal termination of Gaussian 16 at Wed Apr  9 02:19:01 2025.
 Gaussian 16:  ES64L-G16RevC.01  3-Jul-2019

 ----------------------------------------------------------------------
 #t hf aug-cc-pvdz iop(5/13=1,5/36=2,99/5=2) pseudo=read geom=check gue
 ss=(read,tcheck) scf=(maxcycle=1)
 ----------------------------------------------------------------------
 -----
 title
 -----
 Structure from the checkpoint file:  "DBH24_16_mol1.chk"
 Charge = -1 Multiplicity = 1

                         Standard orientation:
 ---------------------------------------------------------------------
 Center     Atomic      Atomic             Coordinates (Angstroms)
 Number     Number       Type             X           Y           Z
 ---------------------------------------------------------------------
      1         17           0        0.000000    0.000000   -2.384738
      2          6           0        0.000000    0.000000   -0.566331
      3          1           0       -0.000000    1.025064   -0.224380
      4          1           0       -0.887731   -0.512532   -0.224380
      5          1           0        0.887731   -0.512532   -0.224380
      6         17           0        0.000000    0.000000    2.624216
 ---------------------------------------------------------------------

 SCF Done:  E(RHF) =  -958.903805466     A.U. after    2 cycles

 The electronic state is 1-A1.
 Alpha  occ. eigenvalues -- -105.42926-105.26155 -11.15700 -10.47765 -10.30670
 Alpha  occ. eigenvalues --   -7.64694  -7.64358  -7.64358  -7.47412  -7.47399
 Alpha  occ. eigenvalues --   -7.47399  -0.95822  -0.76762  -0.70784  -0.47996
 Alpha  occ. eigenvalues --   -0.47996  -0.41826  -0.31980  -0.31980  -0.18384
 Alpha  occ. eigenvalues --   -0.18194  -0.18194
 Alpha virt. eigenvalues --    0.15223   0.16674   0.16674   0.18474   0.25698
 Alpha virt. eigenvalues --    0.27009   0.27009   0.27547   0.27547   0.29490
 Alpha virt. eigenvalues --    0.32822   0.33689   0.33689   0.35650   0.40847

 Mulliken charges:
               1
     1  Cl  -0.267298
     2  C   -0.382873
     3  H    0.211625
     4  H    0.211625
     5  H    0.211625
     6  Cl  -0.984704
 Sum of Mulliken charges =  -1.00000

 Dipole moment (field-independent basis, Debye):
    X=             -0.0000    Y=              0.0000    Z=             -8.5390  Tot=              8.5390

 Test job not archived.
 1\1\GINC-SE455\SP\RHF\Aug-CC-pVDZ\C1H3Cl2(1-)\OHZDE\09-Apr-2025\0\\#t
 hf aug-cc-pvdz iop(5/13=1,5/36=2,99/5=2) pseudo=read geom=check guess=
 (read,tcheck) scf=(maxcycle=1)\\title\\-1,1\Cl,0,0.,0.,-2.2180723\C,0,
 0.,0.,-0.39966594\H,0,-0.51253194,0.88773136,-0.05771427\H,0,-0.512531
 94,-0.88773136,-0.05771427\H,0,1.02506388,0.,-0.05771427\Cl,0,0.,0.,2.
 79088105\\Version=ES64L-G16RevC.01\State=1-A1\HF=-958.9038055\RMSD=4.4
 87e-03\Dipole=0.,0.,-3.3594884\Quadrupole=10.3382468,10.3382468,-20.67
 64936,0.,0.,0.\PG=C03V [C3(Cl1C1Cl1),3SGV(H1)]\\@

 Normal termination of Gaussian 16 at Wed Apr  9 02:19:02 2025.
