 Gaussian 16, Revision C.01,

 ----------------------------------------------------------------------
 #t hf aug-cc-pvdz symm=none int=(grid=ultrafine) guess=(read,tcheck) s
 table=(opt,rrhf)
 ----------------------------------------------------------------------
 -----
 title
 -----
 Symbolic Z-matrix:
 Charge = -1 Multiplicity = 1

 SCF Done:  E(RHF) =  -214.446336283     A.U. after   13 cycles
 Normal termination of Gaussian 16 at Wed Apr  9 02:19:32 2025.
 Gaussian 16:  ES64L-G16RevC.01  3-Jul-2019

 ----------------------------------------------------------------------
 #t hf aug-cc-pvdz iop(5/13=1,5/36=2,99/5=2) pseudo=read geom=check gue
 ss=(read,tcheck) scf=(maxcycle=1)
 ----------------------------------------------------------------------
 -----
 title
 -----
 Structure from the checkpoint file:  "DBH24_18_mol3.chk"
 Charge = -1 Multiplicity = 1

                         Standard orientation:
 ---------------------------------------------------------------------
 Center     Atomic      Atomic             Coordinates (Angstroms)
 Number     Number       Type             X           Y           Z
 ---------------------------------------------------------------------
      1          9           0        1.850617   -0.013179   -0.000128
      2          6           0        0.090857    0.010586    0.000269
      3          1           0        0.040907    1.079548   -0.011749
      4          1           0        0.037163   -0.528013   -0.922943
      5          1           0        0.037486   -0.507463    0.935130
      6          8           0       -1.892804    0.103266   -0.000118
      7          1           0       -2.173823   -0.815113    0.000039
 ---------------------------------------------------------------------

 SCF Done:  E(RHF) =  -214.664032781     A.U. after    2 cycles

 The electronic state is 1-A.
 Alpha  occ. eigenvalues --  -26.13587 -20.25391 -11.12983  -1.20943  -1.08749
 Alpha  occ. eigenvalues --   -0.73721  -0.44164  -0.44081  -0.34878  -0.31160
 Alpha  occ. eigenvalues --   -0.28973  -0.28375  -0.18543  -0.16983
 Alpha virt. eigenvalues --    0.16243   0.17146   0.17265   0.18303   0.26602
 Alpha virt. eigenvalues --    0.28537   0.29437   0.32130   0.36455   0.38872
 Alpha virt. eigenvalues --    0.40451   0.43844   0.43875   0.44000   0.48321

 Mulliken charges:
               1
     1  F   -0.859995
     2  C    0.288870
     3  H    0.144931
     4  H    0.163435
     5  H    0.164631
     6  O   -1.147576
     7  H    0.245704
 Sum of Mulliken charges =  -1.00000

 Dipole moment (field-independent basis, Debye):
    X=              0.7445    Y=             -1.3414    Z=              0.0015  Tot=              1.5341

 Test job not archived.
 1\1\GINC-SE029\SP\RHF\Aug-CC-pVDZ\C1H4F1O1(1-)\OHZDE\09-Apr-2025\0\\#t
  hf aug-cc-pvdz iop(5/13=1,5/36=2,99/5=2) pseudo=read geom=check guess
 =(read,tcheck) scf=(maxcycle=1)\\title\\-1,1\F,0,1.85061737,-0.013179,
 -0.000128\C,0,0.09085708,0.01058598,0.000269\H,0,0.04090704,1.07954797
 ,-0.011749\H,0,0.037163,-0.52801302,-0.92294327\H,0,0.03748601,-0.5074
 6295,0.93513022\O,0,-1.89280338,0.10326629,-0.000118\H,0,-2.17382294,-
 0.81511282,0.000039\\Version=ES64L-G16RevC.01\State=1-A\HF=-214.664032
 8\RMSD=5.566e-03\Dipole=0.2928951,-0.5277508,0.0005958\Quadrupole=-13.

 Normal termination of Gaussian 16 at Wed Apr  9 02:19:33 2025.
