 Gaussian 16, Revision C.01,

 ----------------------------------------------------------------------
 #t hf aug-cc-pvdz symm=none int=(grid=ultrafine) guess=(read,tcheck) s
 table=(opt,rrhf)
 ----------------------------------------------------------------------
 -----
 title
 -----
 Symbolic Z-matrix:
 Charge = -1 Multiplicity = 1

 SCF Done:  E(RHF) =  -958.676712470     A.U. after   11 cycles

 1\1\GINC-SE462\Stability\RHF\Aug-CC-pVDZ\C1H3Cl2\OHZDE\09-Apr-2025\0\\
 #t hf aug-cc-pvdz symm=none int=(grid=ultrafine) guess=(read,tcheck) s
 table=(opt,rrhf)\\title\\-1,1\Cl,0,0.000025,0.019526,2.32250057\C,0,0.
 000513,0.000486,-0.000089\H,0,0.76127963,-0.75073313,0.00637701\H,0,-1
 .03045091,-0.28272404,0.002147\H,0,0.27072812,1.03492775,-0.00869703\C
 l,0,-0.000297,-0.01978403,-2.32245823\\Version=ES64L-G16RevC.01\HF=-95
 8.6767125\RMSD=7.699e-09\Dipole=0.0006926,0.0006502,-0.0007218\Quadrup
 ole=9.962072,9.9598278,-19.9218998,-0.0000124,-0.0016601,-0.2527885\PG

 Normal termination of Gaussian 16 at Wed Apr  9 02:19:01 2025.
 Gaussian 16:  ES64L-G16RevC.01  3-Jul-2019

 ----------------------------------------------------------------------
 #t hf aug-cc-pvdz iop(5/13=1,5/36=2,99/5=2) pseudo=read geom=check gue
 ss=(read,tcheck) scf=(maxcycle=1)
 ----------------------------------------------------------------------
 -----
 title
 -----
 Structure from the checkpoint file:  "DBH24_16_mol2.chk"
 Charge = -1 Multiplicity = 1

                         Standard orientation:
 ---------------------------------------------------------------------
 Center     Atomic      Atomic             Coordinates (Angstroms)
 Number     Number       Type             X           Y           Z
 ---------------------------------------------------------------------
      1         17           0        2.322582   -0.000129    0.000143
      2          6           0       -0.000085    0.000479   -0.000520
      3          1           0        0.000077   -0.762122   -0.749905
      4          1           0       -0.000320   -0.267206    1.034586
      5          1           0        0.000081    1.030777   -0.286259
      6         17           0       -2.322543   -0.000126    0.000133
 ---------------------------------------------------------------------

 SCF Done:  E(RHF) =  -958.881114311     A.U. after    2 cycles

 The electronic state is 1-A.
 Alpha  occ. eigenvalues -- -105.32406-105.32402 -11.18977 -10.37092 -10.37088
 Alpha  occ. eigenvalues --   -7.53903  -7.53898  -7.53765  -7.53765  -7.53761
 Alpha  occ. eigenvalues --   -7.53761  -0.85886  -0.78237  -0.73704  -0.49373
 Alpha  occ. eigenvalues --   -0.49373  -0.30822  -0.24861  -0.24860  -0.23925
 Alpha  occ. eigenvalues --   -0.23924  -0.21359
 Alpha virt. eigenvalues --    0.15834   0.16786   0.16788   0.20120   0.25440
 Alpha virt. eigenvalues --    0.27854   0.27859   0.28794   0.29591   0.29591
 Alpha virt. eigenvalues --    0.30385   0.32192   0.32195   0.32611   0.40574

 Mulliken charges:
               1
     1  Cl  -0.738960
     2  C   -0.332554
     3  H    0.270111
     4  H    0.270178
     5  H    0.270040
     6  Cl  -0.738814
 Sum of Mulliken charges =  -1.00000

 Dipole moment (field-independent basis, Debye):
    X=             -0.0018    Y=              0.0016    Z=             -0.0018  Tot=              0.0030

 Test job not archived.
 1\1\GINC-SE462\SP\RHF\Aug-CC-pVDZ\C1H3Cl2(1-)\OHZDE\09-Apr-2025\0\\#t
 hf aug-cc-pvdz iop(5/13=1,5/36=2,99/5=2) pseudo=read geom=check guess=
 (read,tcheck) scf=(maxcycle=1)\\title\\-1,1\Cl,0,0.000025,0.019526,2.3
 2250057\C,0,0.000513,0.000486,-0.000089\H,0,0.76127963,-0.75073313,0.0
 0637701\H,0,-1.03045091,-0.28272404,0.002147\H,0,0.27072812,1.03492775
 ,-0.00869703\Cl,0,-0.000297,-0.01978403,-2.32245823\\Version=ES64L-G16
 RevC.01\State=1-A\HF=-958.8811143\RMSD=4.314e-03\Dipole=0.0006901,0.00
 06476,-0.0007213\Quadrupole=9.9021654,9.89994,-19.8021054,-0.0000126,-

 Normal termination of Gaussian 16 at Wed Apr  9 02:19:04 2025.
