 Gaussian 16, Revision C.01,

 ----------------------------------------------------------------------
 #t hf aug-cc-pvdz symm=none int=(grid=ultrafine) guess=(read,tcheck) s
 table=opt
 ----------------------------------------------------------------------
 -----
 title
 -----
 Symbolic Z-matrix:
 Charge =  0 Multiplicity = 2

 SCF Done:  E(UHF) =  -399.179558468     A.U. after   15 cycles
 Normal termination of Gaussian 16 at Wed Apr  9 02:19:00 2025.
 Gaussian 16:  ES64L-G16RevC.01  3-Jul-2019

 ----------------------------------------------------------------------
 #t hf aug-cc-pvdz iop(5/13=1,5/36=2,99/5=2) pseudo=read geom=check gue
 ss=(read,tcheck) scf=(maxcycle=1)
 ----------------------------------------------------------------------
 -----
 title
 -----
 Structure from the checkpoint file:  "DBH24_12_mol3.chk"
 Charge =  0 Multiplicity = 2

                         Standard orientation:
 ---------------------------------------------------------------------
 Center     Atomic      Atomic             Coordinates (Angstroms)
 Number     Number       Type             X           Y           Z
 ---------------------------------------------------------------------
      1          1           0        1.262098   -0.220096    0.000000
      2         16           0        0.000000    0.223154    0.000000
      3          1           0       -0.500576   -1.115447    0.000000
      4          1           0       -0.761522   -2.234916    0.000000
 ---------------------------------------------------------------------

 SCF Done:  E(UHF) =  -399.243771517     A.U. after    2 cycles

 The electronic state is 2-A'.
 Alpha  occ. eigenvalues --  -93.96770  -8.24859  -6.23262  -6.22513  -6.22225
 Alpha  occ. eigenvalues --   -1.02955  -0.66045  -0.54425  -0.43026  -0.39639
 Alpha virt. eigenvalues --    0.04296   0.06137   0.06915   0.11844   0.11978
 Alpha virt. eigenvalues --    0.14607   0.19232   0.22810   0.24214   0.25611
 Alpha virt. eigenvalues --    0.27154   0.31253   0.37039   0.41438   0.41555

  Beta  occ. eigenvalues --  -93.96398  -8.24430  -6.22336  -6.21991  -6.21596
  Beta  occ. eigenvalues --   -0.99729  -0.59523  -0.51239  -0.38859
  Beta virt. eigenvalues --    0.00156   0.05007   0.06839   0.07940   0.12145
  Beta virt. eigenvalues --    0.12406   0.15342   0.19640   0.24168   0.25616
  Beta virt. eigenvalues --    0.27563   0.30048   0.31232   0.39523   0.42787

 Mulliken charges and spin densities:
               1          2
     1  H    0.268664  -0.027822
     2  S   -0.480221   0.385446
     3  H    0.100141   0.018261
     4  H    0.111416   0.624115
 Sum of Mulliken charges =  -0.00000   1.00000

 Dipole moment (field-independent basis, Debye):
    X=              0.5045    Y=             -1.0827    Z=              0.0000  Tot=              1.1945
                          Isotropic Fermi Contact Couplings
        Atom                 a.u.       MegaHertz       Gauss      10(-4) cm-1
     1  H(1)              -0.00400     -17.87641      -6.37875      -5.96293
     2  S(33)              0.08287      28.46322      10.15639       9.49431
     3  H(1)              -0.05795    -259.03331     -92.42953     -86.40421
     4  H(1)               0.24161    1079.98300     385.36479     360.24355
 --------------------------------------------------------
       Center         ----  Spin Dipole Couplings  ----
                      3XX-RR        3YY-RR        3ZZ-RR
 --------------------------------------------------------

 Normal termination of Gaussian 16 at Wed Apr  9 02:19:01 2025.
