 Gaussian 16, Revision C.01,

 ----------------------------------------------------------------------
 #t hf aug-cc-pvdz symm=none int=(grid=ultrafine) guess=(read,tcheck) s
 table=(opt,rrhf)
 ----------------------------------------------------------------------
 -----
 title
 -----
 Symbolic Z-matrix:
 Charge = -1 Multiplicity = 1

 SCF Done:  E(RHF) =  -598.570027708     A.U. after   13 cycles
 Normal termination of Gaussian 16 at Wed Apr  9 02:19:09 2025.
 Gaussian 16:  ES64L-G16RevC.01  3-Jul-2019

 ----------------------------------------------------------------------
 #t hf aug-cc-pvdz iop(5/13=1,5/36=2,99/5=2) pseudo=read geom=check gue
 ss=(read,tcheck) scf=(maxcycle=1)
 ----------------------------------------------------------------------
 -----
 title
 -----
 Structure from the checkpoint file:  "DBH24_17_mol2.chk"
 Charge = -1 Multiplicity = 1

                         Standard orientation:
 ---------------------------------------------------------------------
 Center     Atomic      Atomic             Coordinates (Angstroms)
 Number     Number       Type             X           Y           Z
 ---------------------------------------------------------------------
      1          9           0        0.000000    0.000000   -2.537928
      2          6           0        0.000000    0.000000   -0.488372
      3          1           0       -0.000000    1.062085   -0.614972
      4          1           0       -0.919793   -0.531043   -0.614972
      5          1           0        0.919793   -0.531043   -0.614972
      6         17           0        0.000000    0.000000    1.624500
 ---------------------------------------------------------------------

 SCF Done:  E(RHF) =  -598.787701480     A.U. after    2 cycles

 The electronic state is 1-A1.
 Alpha  occ. eigenvalues -- -105.34154 -26.08957 -11.15618 -10.38929  -7.55770
 Alpha  occ. eigenvalues --   -7.55577  -7.55577  -1.14971  -0.85022  -0.73453
 Alpha  occ. eigenvalues --   -0.46278  -0.46278  -0.32215  -0.26156  -0.26156
 Alpha  occ. eigenvalues --   -0.24474  -0.24474  -0.21902
 Alpha virt. eigenvalues --    0.16325   0.17196   0.17196   0.21550   0.28619
 Alpha virt. eigenvalues --    0.28619   0.28799   0.30012   0.30012   0.31094
 Alpha virt. eigenvalues --    0.36631   0.42423   0.42423   0.43403   0.49250

 Mulliken charges:
               1
     1  F   -0.913322
     2  C   -0.219744
     3  H    0.248603
     4  H    0.248603
     5  H    0.248603
     6  Cl  -0.612742
 Sum of Mulliken charges =  -1.00000

 Dipole moment (field-independent basis, Debye):
    X=             -0.0000    Y=              0.0000    Z=              3.6759  Tot=              3.6759

 Test job not archived.
 1\1\GINC-SE165\SP\RHF\Aug-CC-pVDZ\C1H3Cl1F1(1-)\OHZDE\09-Apr-2025\0\\#
 t hf aug-cc-pvdz iop(5/13=1,5/36=2,99/5=2) pseudo=read geom=check gues
 s=(read,tcheck) scf=(maxcycle=1)\\title\\-1,1\F,0,0.,0.,-1.99680875\C,
 0,0.,0.,0.0527475\H,0,-0.53104256,0.9197927,-0.07385285\H,0,-0.5310425
 6,-0.9197927,-0.07385285\H,0,1.06208512,0.,-0.07385285\Cl,0,0.,0.,2.16
 561981\\Version=ES64L-G16RevC.01\State=1-A1\HF=-598.7877015\RMSD=4.613
 e-03\Dipole=0.,0.,1.4462154\Quadrupole=8.6371658,8.6371658,-17.2743316
 ,0.,0.,0.\PG=C03V [C3(F1C1Cl1),3SGV(H1)]\\@

 Normal termination of Gaussian 16 at Wed Apr  9 02:19:13 2025.
