 Gaussian 16, Revision C.01,

 ----------------------------------------------------------------------
 #t hf aug-cc-pvdz symm=none int=(grid=ultrafine) guess=(read,tcheck) s
 table=(opt,rrhf)
 ----------------------------------------------------------------------
 -----
 title
 -----
 Symbolic Z-matrix:
 Charge =  0 Multiplicity = 1

 SCF Done:  E(RHF) =  -575.158955456     A.U. after   15 cycles
 Normal termination of Gaussian 16 at Wed Apr  9 02:30:11 2025.
 Gaussian 16:  ES64L-G16RevC.01  3-Jul-2019

 ----------------------------------------------------------------------
 #t hf aug-cc-pvdz iop(5/13=1,5/36=2,99/5=2) pseudo=read geom=check gue
 ss=(read,tcheck) scf=(maxcycle=1)
 ----------------------------------------------------------------------
 -----
 title
 -----
 Structure from the checkpoint file:  "DCONF_48_-130_mol1.chk"
 Charge =  0 Multiplicity = 1

                         Standard orientation:
 ---------------------------------------------------------------------
 Center     Atomic      Atomic             Coordinates (Angstroms)
 Number     Number       Type             X           Y           Z
 ---------------------------------------------------------------------
      1          6           0        1.547256    0.863748    0.728939
      2          1           0        1.002576    1.628234    1.274213
      3          6           0        2.942160    0.868683    0.677238
      4          1           0        3.511030    1.644197    1.183021
      5          6           0        3.587644   -0.146782   -0.034105
      6          1           0        4.670458   -0.186348   -0.106394
      7          6           0        2.804633   -1.123594   -0.659011
      8          1           0        3.272784   -1.929256   -1.221336
      9          7           0        1.461186   -1.142153   -0.623118
     10          6           0        0.846617   -0.156124    0.064313
     11          6           0       -2.692479   -1.488242    0.376069
     12          1           0       -3.185796   -2.427658    0.608153
     13          6           0       -1.297202   -1.415448    0.375291
     14          1           0       -0.692576   -2.291751    0.593278
     15          6           0       -0.633311   -0.209635    0.090561
     16          6           0       -1.424200    0.900588   -0.224882
     17          6           0       -2.814704    0.854963   -0.237496
     18          1           0       -3.372318    1.749394   -0.497384
     19          6           0       -3.452234   -0.351860    0.069146
     20          1           0       -4.537452   -0.400924    0.063995
     21          9           0       -0.820232    2.070155   -0.543568
 ---------------------------------------------------------------------

 SCF Done:  E(RHF) =  -575.730234709     A.U. after    2 cycles

 The electronic state is 1-A.
 Alpha  occ. eigenvalues --  -26.47733 -15.51022 -11.34054 -11.29472 -11.28535
 Alpha  occ. eigenvalues --  -11.27044 -11.26054 -11.25962 -11.25703 -11.25464
 Alpha  occ. eigenvalues --  -11.25254 -11.25190 -11.24979  -1.60593  -1.26062
 Alpha  occ. eigenvalues --   -1.16458  -1.09162  -1.07119  -1.02324  -1.00735
 Alpha  occ. eigenvalues --   -0.89131  -0.88230  -0.84780  -0.83110  -0.75217
 Alpha  occ. eigenvalues --   -0.72382  -0.70650  -0.69163  -0.68144  -0.67061
 Alpha  occ. eigenvalues --   -0.65140  -0.62520  -0.61364  -0.60056  -0.59317
 Alpha  occ. eigenvalues --   -0.56628  -0.55374  -0.53430  -0.51485  -0.51162
 Alpha  occ. eigenvalues --   -0.45861  -0.40584  -0.38161  -0.34993  -0.32943
 Alpha virt. eigenvalues --    0.03295   0.03398   0.03809   0.04148   0.04404
 Alpha virt. eigenvalues --    0.05800   0.06363   0.06526   0.06787   0.08776
 Alpha virt. eigenvalues --    0.09278   0.10086   0.10415   0.11109   0.11390

 Mulliken charges:
               1
     1  C    1.088385
     2  H   -0.258850
     3  C   -0.290808
     4  H   -0.164916
     5  C    0.848874
     6  H   -0.188241
     7  C   -0.909293
     8  H   -0.226532
     9  N    1.647920
    10  C   -2.670008
    11  C   -0.106826
    12  H   -0.217760
    13  C    0.048210
    14  H   -0.248484
    15  C    1.690760
    16  C    1.310384
    17  C   -0.151924
    18  H   -0.198947
    19  C    0.259731
    20  H   -0.202176
    21  F   -1.059499
 Sum of Mulliken charges =   0.00000

 Dipole moment (field-independent basis, Debye):
    X=              0.5907    Y=              0.4544    Z=              1.4877  Tot=              1.6639

 Test job not archived.
 1\1\GINC-SE132\SP\RHF\Aug-CC-pVDZ\C11H8F1N1\OHZDE\09-Apr-2025\0\\#t hf
  aug-cc-pvdz iop(5/13=1,5/36=2,99/5=2) pseudo=read geom=check guess=(r
 ead,tcheck) scf=(maxcycle=1)\\title\\0,1\C,0,21.7566,-34.0164,0.8809\H
 ,0,22.2414,-34.6587,1.6095\C,0,20.3656,-33.9206,0.8146\H,0,19.7394,-34
 .4928,1.4938\C,0,19.7995,-33.0705,-0.1397\H,0,18.723,-32.9625,-0.2333\
 C,0,20.6546,-32.3521,-0.9826\H,0,20.2493,-31.6807,-1.7372\N,0,21.9953,
 -32.4346,-0.9357\C,0,22.5328,-33.2599,-0.0124\C,0,26.1718,-32.1854,-0.
 0052\H,0,26.7425,-31.2613,-0.0135\C,0,24.7753,-32.142,-0.005\H,0,24.24

 Normal termination of Gaussian 16 at Wed Apr  9 02:30:28 2025.
