 Gaussian 16, Revision C.01,

 ----------------------------------------------------------------------
 #t hf aug-cc-pvdz symm=none int=(grid=ultrafine) guess=(read,tcheck) s
 table=(opt,rrhf)
 ----------------------------------------------------------------------
 -----
 title
 -----
 Symbolic Z-matrix:
 Charge =  0 Multiplicity = 1

 SCF Done:  E(RHF) =  -575.150563828     A.U. after   17 cycles
 Normal termination of Gaussian 16 at Wed Apr  9 02:30:18 2025.
 Gaussian 16:  ES64L-G16RevC.01  3-Jul-2019

 ----------------------------------------------------------------------
 #t hf aug-cc-pvdz iop(5/13=1,5/36=2,99/5=2) pseudo=read geom=check gue
 ss=(read,tcheck) scf=(maxcycle=1)
 ----------------------------------------------------------------------
 -----
 title
 -----
 Structure from the checkpoint file:  "DCONF_48_0_mol1.chk"
 Charge =  0 Multiplicity = 1

                         Standard orientation:
 ---------------------------------------------------------------------
 Center     Atomic      Atomic             Coordinates (Angstroms)
 Number     Number       Type             X           Y           Z
 ---------------------------------------------------------------------
      1          6           0        1.641464   -1.346389   -0.000174
      2          1           0        1.180477   -2.326622   -0.000396
      3          6           0        3.033281   -1.257410   -0.000112
      4          1           0        3.636988   -2.160984   -0.000246
      5          6           0        3.629996    0.005335    0.000077
      6          1           0        4.709193    0.125375    0.000103
      7          6           0        2.788716    1.120952    0.000141
      8          1           0        3.205611    2.126672    0.000259
      9          7           0        1.449352    1.051959    0.000120
     10          6           0        0.867608   -0.167055   -0.000031
     11          6           0       -2.693513   -1.557616    0.000101
     12          1           0       -3.159962   -2.538502    0.000176
     13          6           0       -1.302168   -1.457025    0.000171
     14          1           0       -0.729992   -2.377763    0.000309
     15          6           0       -0.622169   -0.217708   -0.000115
     16          6           0       -1.449851    0.925419   -0.000025
     17          6           0       -2.842863    0.844259   -0.000081
     18          1           0       -3.405695    1.772979   -0.000109
     19          6           0       -3.475703   -0.398222    0.000026
     20          1           0       -4.560320   -0.456796    0.000040
     21          9           0       -0.941171    2.167188   -0.000094
 ---------------------------------------------------------------------

 SCF Done:  E(RHF) =  -575.722022495     A.U. after    2 cycles

 The electronic state is 1-A.
 Alpha  occ. eigenvalues --  -26.46415 -15.50342 -11.34151 -11.30016 -11.28341
 Alpha  occ. eigenvalues --  -11.27051 -11.26688 -11.26152 -11.26117 -11.25371
 Alpha  occ. eigenvalues --  -11.25156 -11.25117 -11.25094  -1.59789  -1.25775
 Alpha  occ. eigenvalues --   -1.16452  -1.09156  -1.07187  -1.02157  -1.00825
 Alpha  occ. eigenvalues --   -0.89590  -0.88095  -0.84382  -0.83091  -0.75116
 Alpha  occ. eigenvalues --   -0.72242  -0.71216  -0.68582  -0.67277  -0.66371
 Alpha  occ. eigenvalues --   -0.65858  -0.61914  -0.61875  -0.59538  -0.58693
 Alpha  occ. eigenvalues --   -0.56940  -0.55538  -0.53058  -0.52238  -0.51189
 Alpha  occ. eigenvalues --   -0.44787  -0.40912  -0.39359  -0.34811  -0.31867
 Alpha virt. eigenvalues --    0.02999   0.03103   0.03591   0.04239   0.04825
 Alpha virt. eigenvalues --    0.05324   0.06217   0.06969   0.07825   0.09154
 Alpha virt. eigenvalues --    0.09580   0.10682   0.11000   0.11066   0.11367

 Mulliken charges:
               1
     1  C    1.697313
     2  H   -0.222189
     3  C   -0.530618
     4  H   -0.248428
     5  C    0.909794
     6  H   -0.193096
     7  C   -0.976729
     8  H   -0.241332
     9  N    1.798956
    10  C   -3.379778
    11  C   -0.324028
    12  H   -0.296866
    13  C    0.157765
    14  H   -0.251646
    15  C    2.201034
    16  C    1.193898
    17  C    0.061129
    18  H   -0.233962
    19  C    0.183368
    20  H   -0.214290
    21  F   -1.090293
 Sum of Mulliken charges =  -0.00000

 Dipole moment (field-independent basis, Debye):
    X=              0.6116    Y=             -3.1471    Z=             -0.0001  Tot=              3.2060

 Test job not archived.
 1\1\GINC-SE292\SP\RHF\Aug-CC-pVDZ\C11H8F1N1\OHZDE\09-Apr-2025\0\\#t hf
  aug-cc-pvdz iop(5/13=1,5/36=2,99/5=2) pseudo=read geom=check guess=(r
 ead,tcheck) scf=(maxcycle=1)\\title\\0,1\C,0,21.8465,-31.9674,-0.0029\
 H,0,22.4039,-31.0386,-0.0022\C,0,20.4528,-31.9157,-0.0036\H,0,19.9432,
 -30.9559,-0.0034\C,0,19.7319,-33.1119,-0.0046\H,0,18.6461,-33.1226,-0.
 0052\C,0,20.4565,-34.3066,-0.0049\H,0,19.9404,-35.2652,-0.0057\N,0,21.
 796,-34.3729,-0.0042\C,0,22.4976,-33.2187,-0.0032\C,0,26.1807,-32.194,
 -0.0003\H,0,26.7436,-31.2651,0.0007\C,0,24.7863,-32.1539,-0.001\H,0,24

 Normal termination of Gaussian 16 at Wed Apr  9 02:30:34 2025.
