 Gaussian 16, Revision C.01,

 ----------------------------------------------------------------------
 #t hf aug-cc-pvdz symm=none int=(grid=ultrafine) guess=(read,tcheck) s
 table=(opt,rrhf)
 ----------------------------------------------------------------------
 -----
 title
 -----
 Symbolic Z-matrix:
 Charge =  0 Multiplicity = 1

 SCF Done:  E(RHF) =  -774.183605101     A.U. after   16 cycles
 Normal termination of Gaussian 16 at Wed Apr  9 02:26:31 2025.
 Gaussian 16:  ES64L-G16RevC.01  3-Jul-2019

 ----------------------------------------------------------------------
 #t hf aug-cc-pvdz iop(5/13=1,5/36=2,99/5=2) pseudo=read geom=check gue
 ss=(read,tcheck) scf=(maxcycle=1)
 ----------------------------------------------------------------------
 -----
 title
 -----
 Structure from the checkpoint file:  "DCONF_42_0_mol2.chk"
 Charge =  0 Multiplicity = 1

                         Standard orientation:
 ---------------------------------------------------------------------
 Center     Atomic      Atomic             Coordinates (Angstroms)
 Number     Number       Type             X           Y           Z
 ---------------------------------------------------------------------
      1          6           0        1.989793   -0.097798   -0.021305
      2          7           0        0.958417    0.815543   -0.023590
      3          1           0        1.152284    1.808613   -0.013211
      4          7           0       -1.296957    1.461305   -0.012829
      5          6           0       -2.554807    0.912898    0.003198
      6          1           0       -3.417994    1.567768    0.003001
      7          6           0       -2.600855   -0.460987    0.016952
      8          1           0       -3.470652   -1.103946    0.028664
      9         16           0       -1.010979   -1.117254    0.009889
     10          6           0       -0.397712    0.500021   -0.008849
     11          8           0        1.781308   -1.303536   -0.032912
     12          6           0        3.374049    0.508293    0.036029
     13          1           0        3.397137    1.542871   -0.314089
     14          1           0        4.044463   -0.100554   -0.571461
     15          1           0        3.726943    0.477110    1.070955
 ---------------------------------------------------------------------

 SCF Done:  E(RHF) =  -774.620451790     A.U. after    2 cycles

 The electronic state is 1-A.
 Alpha  occ. eigenvalues --  -93.99068 -20.53381 -15.56698 -15.50566 -11.38675
 Alpha  occ. eigenvalues --  -11.35920 -11.27669 -11.26701 -11.26279  -8.27197
 Alpha  occ. eigenvalues --   -6.24932  -6.24837  -6.24613  -1.47970  -1.31707
 Alpha  occ. eigenvalues --   -1.24715  -1.09514  -1.05430  -0.99214  -0.88724
 Alpha  occ. eigenvalues --   -0.82999  -0.80214  -0.72188  -0.70362  -0.66474
 Alpha  occ. eigenvalues --   -0.65922  -0.61959  -0.60720  -0.58849  -0.58319
 Alpha  occ. eigenvalues --   -0.54635  -0.52140  -0.47728  -0.47378  -0.44234
 Alpha  occ. eigenvalues --   -0.40929  -0.33014
 Alpha virt. eigenvalues --    0.02844   0.04056   0.04608   0.04812   0.04974
 Alpha virt. eigenvalues --    0.06433   0.08929   0.09210   0.09452   0.10858
 Alpha virt. eigenvalues --    0.11133   0.11777   0.12500   0.12985   0.13417

 Mulliken charges:
               1
     1  C    0.713325
     2  N    0.789328
     3  H    0.113131
     4  N    0.912513
     5  C    0.047884
     6  H   -0.111935
     7  C   -0.041856
     8  H   -0.168473
     9  S    0.787220
    10  C   -2.099261
    11  O   -1.306330
    12  C   -0.273162
    13  H    0.126681
    14  H    0.223164
    15  H    0.287772
 Sum of Mulliken charges =  -0.00000

 Dipole moment (field-independent basis, Debye):
    X=              1.3396    Y=              1.4579    Z=              0.1326  Tot=              1.9843

 Test job not archived.
 1\1\GINC-SE188\SP\RHF\Aug-CC-pVDZ\C5H6N2O1S1\OHZDE\09-Apr-2025\0\\#t h
 f aug-cc-pvdz iop(5/13=1,5/36=2,99/5=2) pseudo=read geom=check guess=(
 read,tcheck) scf=(maxcycle=1)\\title\\0,1\C,0,29.0229,-15.5453,0.0014\
 N,0,29.3072,-16.8933,-0.0001\H,0,28.5601,-17.5754,0.0214\N,0,30.7341,-
 18.7555,-0.0007\C,0,32.0712,-19.0643,0.0002\H,0,32.3744,-20.1045,-0.00
 04\C,0,32.9267,-17.9882,0.0003\H,0,34.0084,-17.9899,-0.001\S,0,32.0406
 ,-16.514,-0.0007\C,0,30.5845,-17.4477,0.001\O,0,29.9084,-14.7011,-0.02
 35\C,0,27.5508,-15.2073,0.0754\H,0,26.9118,-16.0256,-0.2645\H,0,27.367

 Normal termination of Gaussian 16 at Wed Apr  9 02:26:38 2025.
