 Gaussian 16, Revision C.01,

 ----------------------------------------------------------------------
 #t hf aug-cc-pvdz symm=none int=(grid=ultrafine) guess=(read,tcheck) s
 table=(opt,rrhf)
 ----------------------------------------------------------------------
 -----
 title
 -----
 Symbolic Z-matrix:
 Charge =  0 Multiplicity = 1

 SCF Done:  E(RHF) =  -681.469428665     A.U. after   13 cycles
 Normal termination of Gaussian 16 at Wed Apr  9 02:20:21 2025.
 Gaussian 16:  ES64L-G16RevC.01  3-Jul-2019

 ----------------------------------------------------------------------
 #t hf aug-cc-pvdz iop(5/13=1,5/36=2,99/5=2) pseudo=read geom=check gue
 ss=(read,tcheck) scf=(maxcycle=1)
 ----------------------------------------------------------------------
 -----
 title
 -----
 Structure from the checkpoint file:  "DCONF_16_0_mol2.chk"
 Charge =  0 Multiplicity = 1

                         Standard orientation:
 ---------------------------------------------------------------------
 Center     Atomic      Atomic             Coordinates (Angstroms)
 Number     Number       Type             X           Y           Z
 ---------------------------------------------------------------------
      1          6           0       -1.127561    1.397710   -0.406050
      2          1           0       -0.434391    2.193223   -0.130338
      3          1           0       -1.290426    1.370363   -1.482413
      4          1           0       -2.070194    1.515487    0.130254
      5         16           0       -0.439962   -0.161448    0.098898
      6          8           0       -0.168634   -0.078535    1.526411
      7          7           0        1.003563   -0.188291   -0.755488
      8          1           0        1.070753   -1.093113   -1.213258
      9          8           0       -1.260498   -1.223325   -0.462235
     10          6           0        2.221606    0.179198   -0.020110
     11          1           0        2.145518    1.217817    0.306801
     12          1           0        2.403069   -0.450858    0.854470
     13          1           0        3.058904    0.101716   -0.715916
 ---------------------------------------------------------------------

 SCF Done:  E(RHF) =  -681.829822004     A.U. after    2 cycles

 The electronic state is 1-A.
 Alpha  occ. eigenvalues --  -94.21005 -20.53754 -20.53737 -15.54414 -11.28738
 Alpha  occ. eigenvalues --  -11.28600  -8.46005  -6.44125  -6.43948  -6.43822
 Alpha  occ. eigenvalues --   -1.55806  -1.43742  -1.24749  -1.06396  -0.96766
 Alpha  occ. eigenvalues --   -0.85264  -0.74065  -0.70794  -0.68749  -0.65119
 Alpha  occ. eigenvalues --   -0.63278  -0.61197  -0.60025  -0.57575  -0.52352
 Alpha  occ. eigenvalues --   -0.48946  -0.47140  -0.45978  -0.45600
 Alpha virt. eigenvalues --    0.02993   0.04030   0.04729   0.05681   0.05909
 Alpha virt. eigenvalues --    0.06043   0.07714   0.10026   0.12158   0.12412
 Alpha virt. eigenvalues --    0.13847   0.14555   0.15200   0.15586   0.15917

 Mulliken charges:
               1
     1  C   -0.655491
     2  H    0.240067
     3  H    0.248055
     4  H    0.268615
     5  S    3.102947
     6  O   -1.507201
     7  N   -0.317371
     8  H    0.220380
     9  O   -1.535155
    10  C   -0.413118
    11  H    0.119317
    12  H    0.152285
    13  H    0.076671
 Sum of Mulliken charges =  -0.00000

 Dipole moment (field-independent basis, Debye):
    X=              2.2236    Y=              2.7566    Z=             -1.9983  Tot=              4.0665

 Test job not archived.
 1\1\GINC-SE341\SP\RHF\Aug-CC-pVDZ\C2H7N1O2S1\OHZDE\09-Apr-2025\0\\#t h
 f aug-cc-pvdz iop(5/13=1,5/36=2,99/5=2) pseudo=read geom=check guess=(
 read,tcheck) scf=(maxcycle=1)\\title\\0,1\C,0,-1.1153,-1.3956,-0.6123\
 H,0,-0.8192,-0.7875,0.2432\H,0,-0.4646,-1.2189,-1.4674\H,0,-2.1587,-1.
 2055,-0.8677\S,0,-1.0003,-3.1112,-0.1626\O,0,-1.8241,-3.3098,1.0207\N,
 0,0.622,-3.2478,0.2423\H,0,0.9893,-4.0639,-0.2392\O,0,-1.1846,-3.9096,
 -1.3644\C,0,0.9577,-3.221,1.6727\H,0,0.678,-2.2521,2.0903\H,0,0.4596,-
 4.0067,2.2466\H,0,2.0407,-3.3278,1.7559\\Version=ES64L-G16RevC.01\Stat

 Normal termination of Gaussian 16 at Wed Apr  9 02:20:25 2025.
