 Gaussian 16, Revision C.01,

 ----------------------------------------------------------------------
 #t hf aug-cc-pvdz symm=none int=(grid=ultrafine) guess=(read,tcheck) s
 table=(opt,rrhf)
 ----------------------------------------------------------------------
 -----
 title
 -----
 Symbolic Z-matrix:
 Charge =  0 Multiplicity = 1

 SCF Done:  E(RHF) =  -911.019730347     A.U. after   16 cycles
 Normal termination of Gaussian 16 at Wed Apr  9 02:27:59 2025.
 Gaussian 16:  ES64L-G16RevC.01  3-Jul-2019

 ----------------------------------------------------------------------
 #t hf aug-cc-pvdz iop(5/13=1,5/36=2,99/5=2) pseudo=read geom=check gue
 ss=(read,tcheck) scf=(maxcycle=1)
 ----------------------------------------------------------------------
 -----
 title
 -----
 Structure from the checkpoint file:  "DCONF_30_110_mol1.chk"
 Charge =  0 Multiplicity = 1

                         Standard orientation:
 ---------------------------------------------------------------------
 Center     Atomic      Atomic             Coordinates (Angstroms)
 Number     Number       Type             X           Y           Z
 ---------------------------------------------------------------------
      1          6           0        2.809734   -0.938652    0.536165
      2          1           0        3.442506   -1.730292    0.928220
      3          6           0        1.459898   -1.197656    0.273476
      4          1           0        1.023590   -2.175849    0.451797
      5          6           0        0.658866   -0.168942   -0.235637
      6         16           0       -1.058585   -0.496447   -0.592115
      7          7           0       -1.925640    0.351122    0.560540
      8          6           0       -1.697907   -0.089533    1.940185
      9          1           0       -1.751442   -1.177147    1.992140
     10          1           0       -0.726406    0.255672    2.326242
     11          1           0       -2.494215    0.332366    2.558483
     12          6           0       -1.949870    1.809331    0.432300
     13          1           0       -2.072315    2.084018   -0.615553
     14          1           0       -2.813942    2.174464    0.993970
     15          1           0       -1.041188    2.273996    0.843326
     16          6           0        1.192159    1.094462   -0.527025
     17          1           0        0.573865    1.854953   -0.993736
     18          6           0        2.541370    1.340838   -0.252330
     19          1           0        2.965770    2.316070   -0.474768
     20          6           0        3.348828    0.328558    0.282463
     21          1           0        4.398277    0.523066    0.485854
     22          8           0       -1.368261    0.116997   -1.872230
     23          8           0       -1.290004   -1.906555   -0.333206
 ---------------------------------------------------------------------

 SCF Done:  E(RHF) =  -911.608257948     A.U. after    2 cycles

 The electronic state is 1-A.
 Alpha  occ. eigenvalues --  -94.20813 -20.53459 -20.53349 -15.53969 -11.28631
 Alpha  occ. eigenvalues --  -11.28010 -11.27854 -11.27850 -11.27536 -11.27424
 Alpha  occ. eigenvalues --  -11.26964 -11.26820  -8.45723  -6.43858  -6.43654
 Alpha  occ. eigenvalues --   -6.43564  -1.55616  -1.43575  -1.26052  -1.18229
 Alpha  occ. eigenvalues --   -1.06478  -1.04275  -0.98881  -0.97672  -0.88669
 Alpha  occ. eigenvalues --   -0.86313  -0.80877  -0.75237  -0.72579  -0.69540
 Alpha  occ. eigenvalues --   -0.68383  -0.66586  -0.66253  -0.64487  -0.62688
 Alpha  occ. eigenvalues --   -0.62156  -0.58603  -0.57764  -0.55771  -0.55435
 Alpha  occ. eigenvalues --   -0.53855  -0.53272  -0.50299  -0.48942  -0.46661
 Alpha  occ. eigenvalues --   -0.46028  -0.43755  -0.37570  -0.36917
 Alpha virt. eigenvalues --    0.02618   0.03102   0.03439   0.04313   0.04818
 Alpha virt. eigenvalues --    0.05283   0.06350   0.06476   0.06952   0.07497
 Alpha virt. eigenvalues --    0.07876   0.08626   0.09505   0.10085   0.11488

 Mulliken charges:
               1
     1  C    0.419555
     2  H   -0.215219
     3  C   -0.501743
     4  H   -0.288768
     5  C    0.711614
     6  S    3.877902
     7  N    0.035818
     8  C   -0.535485
     9  H    0.101552
    10  H    0.258248
    11  H    0.111361
    12  C   -0.513690
    13  H    0.111785
    14  H    0.056423
    15  H    0.306811
    16  C   -0.282760
    17  H   -0.301382
    18  C    0.371373
    19  H   -0.234824
    20  C    0.092110
    21  H   -0.202755
    22  O   -1.657234
    23  O   -1.720693
 Sum of Mulliken charges =  -0.00000

 Dipole moment (field-independent basis, Debye):
    X=              3.4710    Y=              3.0557    Z=              3.8466  Tot=              6.0151

 Test job not archived.
 1\1\GINC-SE054\SP\RHF\Aug-CC-pVDZ\C8H11N1O2S1\OHZDE\09-Apr-2025\0\\#t
 hf aug-cc-pvdz iop(5/13=1,5/36=2,99/5=2) pseudo=read geom=check guess=
 (read,tcheck) scf=(maxcycle=1)\\title\\0,1\C,0,3.7766,-2.34,-1.894\H,0
 ,4.397,-2.3322,-2.7861\C,0,2.5815,-1.6123,-1.8757\H,0,2.2542,-1.0351,-
 2.7352\C,0,1.7956,-1.6286,-0.7176\S,0,0.2802,-0.6873,-0.679\N,0,-0.951
 5,-1.8194,-0.6849\C,0,-1.0104,-2.6494,-1.892\H,0,-0.9243,-2.0181,-2.77
 66\H,0,-0.2205,-3.4162,-1.9018\H,0,-1.9844,-3.1449,-1.9062\C,0,-1.1447
 ,-2.5953,0.5415\H,0,-1.0432,-1.9428,1.4089\H,0,-2.162,-2.9954,0.5206\H

 Normal termination of Gaussian 16 at Wed Apr  9 02:28:19 2025.
