 Gaussian 16, Revision C.01,

 ----------------------------------------------------------------------
 #t hf aug-cc-pvdz symm=none int=(grid=ultrafine) guess=(read,tcheck) s
 table=(opt,rrhf)
 ----------------------------------------------------------------------
 -----
 title
 -----
 Symbolic Z-matrix:
 Charge =  0 Multiplicity = 1

 SCF Done:  E(RHF) =  -812.894498839     A.U. after   16 cycles
 Normal termination of Gaussian 16 at Wed Apr  9 02:30:47 2025.
 Gaussian 16:  ES64L-G16RevC.01  3-Jul-2019

 ----------------------------------------------------------------------
 #t hf aug-cc-pvdz iop(5/13=1,5/36=2,99/5=2) pseudo=read geom=check gue
 ss=(read,tcheck) scf=(maxcycle=1)
 ----------------------------------------------------------------------
 -----
 title
 -----
 Structure from the checkpoint file:  "DCONF_56_-80_mol1.chk"
 Charge =  0 Multiplicity = 1

                         Standard orientation:
 ---------------------------------------------------------------------
 Center     Atomic      Atomic             Coordinates (Angstroms)
 Number     Number       Type             X           Y           Z
 ---------------------------------------------------------------------
      1          6           0        1.393386   -0.922187    0.779859
      2          1           0        0.846580   -1.646180    1.377012
      3          6           0        2.788261   -0.944778    0.704235
      4          1           0        3.360244   -1.698550    1.238162
      5          6           0        3.426779    0.027166   -0.070152
      6          1           0        4.508668    0.054772   -0.160759
      7          6           0        2.641648    0.976647   -0.735005
      8          1           0        3.107314    1.745091   -1.348727
      9          7           0        1.299729    1.013895   -0.675162
     10          6           0        0.696931    0.073904    0.080337
     11          7           0       -1.437120    0.978615    0.949128
     12          6           0       -2.786715    0.824187    0.777815
     13          1           0       -3.471561    1.434379    1.355355
     14          6           0       -3.168586   -0.129646   -0.144704
     15          1           0       -4.169014   -0.417468   -0.439754
     16         16           0       -1.780972   -0.858555   -0.828663
     17          6           0       -0.779196    0.147585    0.160875
 ---------------------------------------------------------------------

 SCF Done:  E(RHF) =  -813.368164082     A.U. after    2 cycles

 The electronic state is 1-A.
 Alpha  occ. eigenvalues --  -93.99285 -15.51921 -15.51407 -11.32041 -11.30406
 Alpha  occ. eigenvalues --  -11.29193 -11.27827 -11.27825 -11.27457 -11.26295
 Alpha  occ. eigenvalues --  -11.26118  -8.27522  -6.25271  -6.25185  -6.24976
 Alpha  occ. eigenvalues --   -1.29196  -1.26144  -1.10011  -1.09633  -1.07257
 Alpha  occ. eigenvalues --   -1.00183  -0.89397  -0.88412  -0.82372  -0.78654
 Alpha  occ. eigenvalues --   -0.72872  -0.70750  -0.69490  -0.65489  -0.62103
 Alpha  occ. eigenvalues --   -0.60871  -0.59699  -0.57519  -0.56120  -0.54899
 Alpha  occ. eigenvalues --   -0.51951  -0.47512  -0.46140  -0.41614  -0.40779
 Alpha  occ. eigenvalues --   -0.36630  -0.34567
 Alpha virt. eigenvalues --    0.03032   0.03610   0.03753   0.04533   0.04894
 Alpha virt. eigenvalues --    0.06361   0.06679   0.07381   0.08547   0.08990
 Alpha virt. eigenvalues --    0.09949   0.10094   0.10655   0.11647   0.11722

 Mulliken charges:
               1
     1  C    1.001879
     2  H   -0.197558
     3  C   -0.236460
     4  H   -0.159039
     5  C    0.821969
     6  H   -0.183645
     7  C   -0.896103
     8  H   -0.201497
     9  N    1.463916
    10  C   -1.027789
    11  N    1.071282
    12  C   -0.125306
    13  H   -0.111910
    14  C   -0.008085
    15  H   -0.136137
    16  S    0.519761
    17  C   -1.595279
 Sum of Mulliken charges =  -0.00000

 Dipole moment (field-independent basis, Debye):
    X=              1.1849    Y=             -2.9958    Z=              0.0516  Tot=              3.2221

 Test job not archived.
 1\1\GINC-SE054\SP\RHF\Aug-CC-pVDZ\C8H6N2S1\OHZDE\09-Apr-2025\0\\#t hf
 aug-cc-pvdz iop(5/13=1,5/36=2,99/5=2) pseudo=read geom=check guess=(re
 ad,tcheck) scf=(maxcycle=1)\\title\\0,1\C,0,30.1245,-21.0942,-0.0078\H
 ,0,30.7007,-20.1735,-0.0001\C,0,28.7275,-21.0797,0.0015\H,0,28.1829,-2
 0.1396,0.0076\C,0,28.0511,-22.3022,0.0072\H,0,26.966,-22.3462,0.0161\C
 ,0,28.8021,-23.4837,0.0018\H,0,28.3063,-24.4523,0.0028\N,0,30.1454,-23
 .5178,-0.0081\C,0,30.7853,-22.3311,-0.0075\N,0,32.9824,-22.5959,1.1016
 \C,0,34.3159,-22.616,0.7918\H,0,35.0444,-22.777,1.5781\C,0,34.625,-22.

 Normal termination of Gaussian 16 at Wed Apr  9 02:30:58 2025.
