 Gaussian 16, Revision C.01,

 ----------------------------------------------------------------------
 #t hf aug-cc-pvdz symm=none int=(grid=ultrafine) guess=(read,tcheck) s
 table=(opt,rrhf)
 ----------------------------------------------------------------------
 -----
 title
 -----
 Symbolic Z-matrix:
 Charge =  0 Multiplicity = 1

 SCF Done:  E(RHF) =  -681.457527963     A.U. after   13 cycles
 Normal termination of Gaussian 16 at Wed Apr  9 02:20:21 2025.
 Gaussian 16:  ES64L-G16RevC.01  3-Jul-2019

 ----------------------------------------------------------------------
 #t hf aug-cc-pvdz iop(5/13=1,5/36=2,99/5=2) pseudo=read geom=check gue
 ss=(read,tcheck) scf=(maxcycle=1)
 ----------------------------------------------------------------------
 -----
 title
 -----
 Structure from the checkpoint file:  "DCONF_16_10_mol1.chk"
 Charge =  0 Multiplicity = 1

                         Standard orientation:
 ---------------------------------------------------------------------
 Center     Atomic      Atomic             Coordinates (Angstroms)
 Number     Number       Type             X           Y           Z
 ---------------------------------------------------------------------
      1          6           0       -0.284648    1.602274   -0.351767
      2          1           0        0.164896    1.717822   -1.338226
      3          1           0        0.313735    2.074639    0.426167
      4          1           0       -1.290634    2.024710   -0.347764
      5         16           0       -0.520761   -0.124108    0.035681
      6          8           0       -1.220137   -0.776909   -1.061798
      7          7           0        1.024161   -0.804347    0.078165
      8          1           0        1.045498   -1.482605   -0.679226
      9          8           0       -1.064329   -0.146081    1.380714
     10          6           0        2.215768    0.050399    0.038915
     11          1           0        2.247325    0.681124    0.929641
     12          1           0        2.286275    0.677307   -0.857509
     13          1           0        3.084958   -0.608961    0.074651
 ---------------------------------------------------------------------

 SCF Done:  E(RHF) =  -681.817907638     A.U. after    2 cycles

 The electronic state is 1-A.
 Alpha  occ. eigenvalues --  -94.21181 -20.53877 -20.53076 -15.54541 -11.30111
 Alpha  occ. eigenvalues --  -11.29330  -8.46163  -6.44265  -6.44091  -6.44022
 Alpha  occ. eigenvalues --   -1.55702  -1.43455  -1.24982  -1.06274  -0.98339
 Alpha  occ. eigenvalues --   -0.85274  -0.74175  -0.71555  -0.68853  -0.65596
 Alpha  occ. eigenvalues --   -0.63527  -0.61532  -0.60931  -0.58674  -0.51637
 Alpha  occ. eigenvalues --   -0.50041  -0.47246  -0.46082  -0.44415
 Alpha virt. eigenvalues --    0.02550   0.03644   0.04375   0.04806   0.06005
 Alpha virt. eigenvalues --    0.06613   0.07843   0.10201   0.11302   0.12068
 Alpha virt. eigenvalues --    0.13700   0.14659   0.15154   0.15301   0.16108

 Mulliken charges:
               1
     1  C   -0.718133
     2  H    0.267612
     3  H    0.266783
     4  H    0.166910
     5  S    3.136641
     6  O   -1.523203
     7  N   -0.182463
     8  H    0.221617
     9  O   -1.511653
    10  C   -0.486937
    11  H    0.150912
    12  H    0.185300
    13  H    0.026615
 Sum of Mulliken charges =  -0.00000

 Dipole moment (field-independent basis, Debye):
    X=              4.4657    Y=              3.2051    Z=             -1.9363  Tot=              5.8279

 Test job not archived.
 1\1\GINC-SE398\SP\RHF\Aug-CC-pVDZ\C2H7N1O2S1\OHZDE\09-Apr-2025\0\\#t h
 f aug-cc-pvdz iop(5/13=1,5/36=2,99/5=2) pseudo=read geom=check guess=(
 read,tcheck) scf=(maxcycle=1)\\title\\0,1\C,0,-1.166,-1.375,-0.6078\H,
 0,-0.5455,-1.1256,-1.4688\H,0,-0.9327,-0.7536,0.2558\H,0,-2.2211,-1.26
 61,-0.8635\S,0,-0.9837,-3.0975,-0.1765\O,0,-1.1824,-3.9187,-1.3622\N,0
 ,0.634,-3.2952,0.2654\H,0,1.0296,-3.9319,-0.4218\O,0,-1.8042,-3.2876,1
 .0049\C,0,1.5041,-2.1284,0.4486\H,0,1.1392,-1.5226,1.2805\H,0,1.605,-1
 .5019,-0.4452\H,0,2.4906,-2.5042,0.7263\\Version=ES64L-G16RevC.01\Stat

 Normal termination of Gaussian 16 at Wed Apr  9 02:20:25 2025.
