 Gaussian 16, Revision C.01,

 ----------------------------------------------------------------------
 #t hf aug-cc-pvdz symm=none int=(grid=ultrafine) guess=(read,tcheck) s
 table=(opt,rrhf)
 ----------------------------------------------------------------------
 -----
 title
 -----
 Symbolic Z-matrix:
 Charge =  0 Multiplicity = 1

 SCF Done:  E(RHF) =  -812.901762795     A.U. after   17 cycles
 Normal termination of Gaussian 16 at Wed Apr  9 02:29:53 2025.
 Gaussian 16:  ES64L-G16RevC.01  3-Jul-2019

 ----------------------------------------------------------------------
 #t hf aug-cc-pvdz iop(5/13=1,5/36=2,99/5=2) pseudo=read geom=check gue
 ss=(read,tcheck) scf=(maxcycle=1)
 ----------------------------------------------------------------------
 -----
 title
 -----
 Structure from the checkpoint file:  "DCONF_56_-140_mol1.chk"
 Charge =  0 Multiplicity = 1

                         Standard orientation:
 ---------------------------------------------------------------------
 Center     Atomic      Atomic             Coordinates (Angstroms)
 Number     Number       Type             X           Y           Z
 ---------------------------------------------------------------------
      1          6           0       -1.478502    1.216938   -0.370163
      2          1           0       -0.995863    2.146074   -0.656693
      3          6           0       -2.866254    1.087781   -0.318784
      4          1           0       -3.508824    1.924904   -0.577582
      5          6           0       -3.412220   -0.143150    0.062503
      6          1           0       -4.486536   -0.292367    0.114677
      7          6           0       -2.541091   -1.188865    0.385805
      8          1           0       -2.929824   -2.157590    0.693068
      9          7           0       -1.201647   -1.081223    0.359221
     10          6           0       -0.690823    0.106335   -0.025021
     11          7           0        1.414150    1.312815    0.398447
     12          6           0        2.762821    1.095113    0.385788
     13          1           0        3.436471    1.887942    0.690620
     14          6           0        3.157861   -0.168530   -0.012428
     15          1           0        4.163115   -0.559500   -0.098553
     16         16           0        1.787875   -1.122631   -0.379453
     17          6           0        0.772865    0.226292   -0.007361
 ---------------------------------------------------------------------

 SCF Done:  E(RHF) =  -813.375290849     A.U. after    2 cycles

 The electronic state is 1-A.
 Alpha  occ. eigenvalues --  -93.99013 -15.51933 -15.51498 -11.31812 -11.30258
 Alpha  occ. eigenvalues --  -11.29186 -11.27745 -11.27625 -11.27416 -11.25998
 Alpha  occ. eigenvalues --  -11.25901  -8.27231  -6.24973  -6.24885  -6.24680
 Alpha  occ. eigenvalues --   -1.29231  -1.26210  -1.10047  -1.09325  -1.07251
 Alpha  occ. eigenvalues --   -1.00070  -0.89301  -0.88555  -0.81977  -0.78541
 Alpha  occ. eigenvalues --   -0.72928  -0.70467  -0.69019  -0.65427  -0.61829
 Alpha  occ. eigenvalues --   -0.60850  -0.59984  -0.57727  -0.55926  -0.54699
 Alpha  occ. eigenvalues --   -0.51778  -0.48089  -0.45982  -0.41355  -0.41012
 Alpha  occ. eigenvalues --   -0.38282  -0.32507
 Alpha virt. eigenvalues --    0.03109   0.03751   0.03876   0.04365   0.04669
 Alpha virt. eigenvalues --    0.05034   0.06810   0.07886   0.08306   0.09868
 Alpha virt. eigenvalues --    0.10032   0.10385   0.10765   0.11715   0.12057

 Mulliken charges:
               1
     1  C    1.049612
     2  H   -0.203392
     3  C   -0.212267
     4  H   -0.157561
     5  C    0.763311
     6  H   -0.185886
     7  C   -0.824730
     8  H   -0.202023
     9  N    1.531024
    10  C   -1.031443
    11  N    1.251932
    12  C   -0.212663
    13  H   -0.127615
    14  C   -0.025977
    15  H   -0.139838
    16  S    0.586681
    17  C   -1.859164
 Sum of Mulliken charges =  -0.00000

 Dipole moment (field-independent basis, Debye):
    X=             -1.2685    Y=              0.2725    Z=             -1.0754  Tot=              1.6852

 Test job not archived.
 1\1\GINC-SE333\SP\RHF\Aug-CC-pVDZ\C8H6N2S1\OHZDE\09-Apr-2025\0\\#t hf
 aug-cc-pvdz iop(5/13=1,5/36=2,99/5=2) pseudo=read geom=check guess=(re
 ad,tcheck) scf=(maxcycle=1)\\title\\0,1\C,0,30.1281,-21.092,-0.0128\H,
 0,30.7123,-20.1771,-0.0127\C,0,28.7336,-21.0809,0.0078\H,0,28.1888,-20
 .1408,0.0151\C,0,28.0525,-22.3035,0.0086\H,0,26.9675,-22.3453,0.0217\C
 ,0,28.8011,-23.4852,-0.001\H,0,28.3056,-24.4539,0.0062\N,0,30.1447,-23
 .5189,-0.004\C,0,30.7864,-22.3328,-0.0203\N,0,32.9947,-21.5399,0.7284\
 C,0,34.3131,-21.8874,0.6416\H,0,35.0581,-21.2981,1.1641\C,0,34.5837,-2

 Normal termination of Gaussian 16 at Wed Apr  9 02:30:03 2025.
