 Gaussian 16, Revision C.01,

 ----------------------------------------------------------------------
 #t hf aug-cc-pvdz symm=none int=(grid=ultrafine) guess=(read,tcheck) s
 table=(opt,rrhf)
 ----------------------------------------------------------------------
 -----
 title
 -----
 Symbolic Z-matrix:
 Charge =  0 Multiplicity = 1

 SCF Done:  E(RHF) =  -681.459884639     A.U. after   13 cycles
 Normal termination of Gaussian 16 at Wed Apr  9 02:20:25 2025.
 Gaussian 16:  ES64L-G16RevC.01  3-Jul-2019

 ----------------------------------------------------------------------
 #t hf aug-cc-pvdz iop(5/13=1,5/36=2,99/5=2) pseudo=read geom=check gue
 ss=(read,tcheck) scf=(maxcycle=1)
 ----------------------------------------------------------------------
 -----
 title
 -----
 Structure from the checkpoint file:  "DCONF_16_20_mol1.chk"
 Charge =  0 Multiplicity = 1

                         Standard orientation:
 ---------------------------------------------------------------------
 Center     Atomic      Atomic             Coordinates (Angstroms)
 Number     Number       Type             X           Y           Z
 ---------------------------------------------------------------------
      1          6           0       -0.320895    1.592370   -0.399622
      2          1           0        0.330619    2.085465    0.320347
      3          1           0        0.058221    1.682363   -1.418307
      4          1           0       -1.324922    2.015005   -0.335738
      5         16           0       -0.515896   -0.125754    0.046893
      6          8           0       -0.934601   -0.111310    1.436145
      7          7           0        1.020669   -0.808761   -0.026421
      8          1           0        1.035635   -1.391272   -0.859639
      9          8           0       -1.300878   -0.806677   -0.971061
     10          6           0        2.206684    0.052030    0.033424
     11          1           0        2.283225    0.760827   -0.799084
     12          1           0        2.213539    0.597757    0.979558
     13          1           0        3.082434   -0.599256    0.024045
 ---------------------------------------------------------------------

 SCF Done:  E(RHF) =  -681.820316639     A.U. after    2 cycles

 The electronic state is 1-A.
 Alpha  occ. eigenvalues --  -94.21175 -20.53905 -20.53109 -15.54638 -11.30030
 Alpha  occ. eigenvalues --  -11.29259  -8.46149  -6.44258  -6.44080  -6.44001
 Alpha  occ. eigenvalues --   -1.55758  -1.43545  -1.25120  -1.06170  -0.98299
 Alpha  occ. eigenvalues --   -0.85380  -0.74354  -0.71385  -0.69011  -0.65582
 Alpha  occ. eigenvalues --   -0.63714  -0.61457  -0.60860  -0.58546  -0.51252
 Alpha  occ. eigenvalues --   -0.50046  -0.47393  -0.46086  -0.44748
 Alpha virt. eigenvalues --    0.02517   0.03643   0.04324   0.04756   0.06001
 Alpha virt. eigenvalues --    0.06517   0.07926   0.10472   0.11275   0.11929
 Alpha virt. eigenvalues --    0.13771   0.14618   0.15121   0.15354   0.16052

 Mulliken charges:
               1
     1  C   -0.699027
     2  H    0.256460
     3  H    0.269776
     4  H    0.170451
     5  S    3.098680
     6  O   -1.511594
     7  N   -0.178797
     8  H    0.235163
     9  O   -1.515301
    10  C   -0.489613
    11  H    0.177557
    12  H    0.154433
    13  H    0.031813
 Sum of Mulliken charges =  -0.00000

 Dipole moment (field-independent basis, Debye):
    X=              4.3369    Y=              3.2852    Z=             -2.2354  Tot=              5.8820

 Test job not archived.
 1\1\GINC-SE345\SP\RHF\Aug-CC-pVDZ\C2H7N1O2S1\OHZDE\09-Apr-2025\0\\#t h
 f aug-cc-pvdz iop(5/13=1,5/36=2,99/5=2) pseudo=read geom=check guess=(
 read,tcheck) scf=(maxcycle=1)\\title\\0,1\C,0,-1.1703,-1.3742,-0.6072\
 H,0,-0.9506,-0.755,0.2613\H,0,-0.5357,-1.1209,-1.4573\H,0,-2.2213,-1.2
 648,-0.8796\S,0,-0.9836,-3.0975,-0.1774\O,0,-1.8003,-3.2834,1.0075\N,0
 ,0.6278,-3.3009,0.2641\H,0,1.072,-3.8061,-0.4983\O,0,-1.1759,-3.918,-1
 .3631\C,0,1.4293,-2.1383,0.6605\H,0,1.5513,-1.3919,-0.1328\H,0,0.9803,
 -1.6683,1.5383\H,0,2.4142,-2.5064,0.9532\\Version=ES64L-G16RevC.01\Sta

 Normal termination of Gaussian 16 at Wed Apr  9 02:20:30 2025.
