 Gaussian 16, Revision C.01,

 ----------------------------------------------------------------------
 #t hf aug-cc-pvdz symm=none int=(grid=ultrafine) guess=(read,tcheck) s
 table=(opt,rrhf)
 ----------------------------------------------------------------------
 -----
 title
 -----
 Symbolic Z-matrix:
 Charge =  0 Multiplicity = 1

 SCF Done:  E(RHF) =  -575.159608523     A.U. after   15 cycles
 Normal termination of Gaussian 16 at Wed Apr  9 02:29:34 2025.
 Gaussian 16:  ES64L-G16RevC.01  3-Jul-2019

 ----------------------------------------------------------------------
 #t hf aug-cc-pvdz iop(5/13=1,5/36=2,99/5=2) pseudo=read geom=check gue
 ss=(read,tcheck) scf=(maxcycle=1)
 ----------------------------------------------------------------------
 -----
 title
 -----
 Structure from the checkpoint file:  "DCONF_48_140_mol1.chk"
 Charge =  0 Multiplicity = 1

                         Standard orientation:
 ---------------------------------------------------------------------
 Center     Atomic      Atomic             Coordinates (Angstroms)
 Number     Number       Type             X           Y           Z
 ---------------------------------------------------------------------
      1          6           0       -1.546364    0.941403    0.604441
      2          1           0       -1.001340    1.760116    1.062031
      3          6           0       -2.941879    0.936891    0.573617
      4          1           0       -3.504790    1.759813    1.005965
      5          6           0       -3.596144   -0.148986   -0.014304
      6          1           0       -4.679768   -0.197570   -0.064662
      7          6           0       -2.818782   -1.186426   -0.540536
      8          1           0       -3.292240   -2.050944   -1.002119
      9          7           0       -1.475737   -1.197706   -0.523384
     10          6           0       -0.850458   -0.139436    0.036506
     11          6           0        2.670192   -1.518518    0.334246
     12          1           0        3.146596   -2.471911    0.543575
     13          6           0        1.276489   -1.426948    0.314736
     14          1           0        0.656775   -2.300671    0.494625
     15          6           0        0.629225   -0.205037    0.055841
     16          6           0        1.441995    0.906279   -0.199383
     17          6           0        2.831778    0.842095   -0.189397
     18          1           0        3.403539    1.739359   -0.405064
     19          6           0        3.450294   -0.381921    0.084677
     20          1           0        4.534660   -0.444169    0.097234
     21          9           0        0.865405    2.097060   -0.492285
 ---------------------------------------------------------------------

 SCF Done:  E(RHF) =  -575.730904778     A.U. after    2 cycles

 The electronic state is 1-A.
 Alpha  occ. eigenvalues --  -26.47822 -15.50968 -11.34114 -11.29532 -11.28540
 Alpha  occ. eigenvalues --  -11.27007 -11.26075 -11.26021 -11.25622 -11.25456
 Alpha  occ. eigenvalues --  -11.25226 -11.25137 -11.24950  -1.60688  -1.26068
 Alpha  occ. eigenvalues --   -1.16443  -1.09141  -1.07124  -1.02304  -1.00747
 Alpha  occ. eigenvalues --   -0.89129  -0.88365  -0.84609  -0.83149  -0.75246
 Alpha  occ. eigenvalues --   -0.72359  -0.70750  -0.69192  -0.68069  -0.67092
 Alpha  occ. eigenvalues --   -0.65158  -0.62460  -0.61477  -0.59991  -0.59198
 Alpha  occ. eigenvalues --   -0.56756  -0.55381  -0.53437  -0.51487  -0.51155
 Alpha  occ. eigenvalues --   -0.45862  -0.40646  -0.38523  -0.34984  -0.32585
 Alpha virt. eigenvalues --    0.03300   0.03395   0.03820   0.04177   0.04408
 Alpha virt. eigenvalues --    0.05912   0.06175   0.06519   0.06899   0.08839
 Alpha virt. eigenvalues --    0.09288   0.10043   0.10410   0.11062   0.11331

 Mulliken charges:
               1
     1  C    1.125042
     2  H   -0.257764
     3  C   -0.303243
     4  H   -0.168298
     5  C    0.854375
     6  H   -0.187708
     7  C   -0.963538
     8  H   -0.232137
     9  N    1.697081
    10  C   -2.702313
    11  C   -0.106746
    12  H   -0.218780
    13  C    0.017468
    14  H   -0.260217
    15  C    1.770309
    16  C    1.259316
    17  C   -0.113873
    18  H   -0.205523
    19  C    0.256081
    20  H   -0.201709
    21  F   -1.057823
 Sum of Mulliken charges =   0.00000

 Dipole moment (field-independent basis, Debye):
    X=             -0.5758    Y=              0.5220    Z=              1.3053  Tot=              1.5191

 Test job not archived.
 1\1\GINC-SE460\SP\RHF\Aug-CC-pVDZ\C11H8F1N1\OHZDE\09-Apr-2025\0\\#t hf
  aug-cc-pvdz iop(5/13=1,5/36=2,99/5=2) pseudo=read geom=check guess=(r
 ead,tcheck) scf=(maxcycle=1)\\title\\0,1\C,0,21.7458,-34.1034,-0.7992\
 H,0,22.2198,-34.8495,-1.428\C,0,20.3567,-33.9701,-0.7666\H,0,19.7271,-
 34.6181,-1.3705\C,0,19.7967,-32.983,0.0488\H,0,18.7218,-32.8416,0.1099
 \C,0,20.6582,-32.1685,0.7917\H,0,20.2597,-31.3858,1.4345\N,0,21.9963,-
 32.2844,0.776\C,0,22.5295,-33.2481,-0.0059\C,0,26.1707,-32.1865,0.0066
 \H,0,26.7398,-31.2614,0.014\C,0,24.7745,-32.1441,0.0068\H,0,24.2445,-3

 Normal termination of Gaussian 16 at Wed Apr  9 02:29:50 2025.
