 Gaussian 16, Revision C.01,

 ----------------------------------------------------------------------
 #t hf aug-cc-pvdz symm=none int=(grid=ultrafine) guess=(read,tcheck) s
 table=(opt,rrhf)
 ----------------------------------------------------------------------
 -----
 title
 -----
 Symbolic Z-matrix:
 Charge =  0 Multiplicity = 1

 SCF Done:  E(RHF) =  -1153.54883500     A.U. after   15 cycles
 Normal termination of Gaussian 16 at Wed Apr  9 02:23:28 2025.
 Gaussian 16:  ES64L-G16RevC.01  3-Jul-2019

 ----------------------------------------------------------------------
 #t hf aug-cc-pvdz iop(5/13=1,5/36=2,99/5=2) pseudo=read geom=check gue
 ss=(read,tcheck) scf=(maxcycle=1)
 ----------------------------------------------------------------------
 -----
 title
 -----
 Structure from the checkpoint file:  "DCONF_29_-100_mol1.chk"
 Charge =  0 Multiplicity = 1

                         Standard orientation:
 ---------------------------------------------------------------------
 Center     Atomic      Atomic             Coordinates (Angstroms)
 Number     Number       Type             X           Y           Z
 ---------------------------------------------------------------------
      1          6           0        2.740971   -0.142952    0.069648
      2          1           0        3.747511   -0.539585    0.096363
      3          6           0        2.338657    1.181874    0.081949
      4          1           0        3.009595    2.032013    0.121352
      5          7           0        0.991464    1.388646    0.027241
      6          6           0        0.372062    0.225072   -0.014731
      7         16           0        1.381624   -1.171710   -0.034033
      8         16           0       -1.402455    0.063916   -0.176664
      9          6           0       -1.917866   -0.249365    1.500458
     10          1           0       -1.446110   -1.168745    1.848186
     11          1           0       -3.003519   -0.366058    1.467651
     12          1           0       -1.643696    0.607318    2.117962
     13          8           0       -1.610671   -1.168327   -0.931885
     14          8           0       -1.948539    1.337258   -0.604989
 ---------------------------------------------------------------------

 SCF Done:  E(RHF) =  -1154.02798229     A.U. after    2 cycles

 The electronic state is 1-A.
 Alpha  occ. eigenvalues --  -94.20856 -94.02653 -20.54471 -20.54428 -15.55396
 Alpha  occ. eigenvalues --  -11.35194 -11.30814 -11.30479 -11.29631  -8.46083
 Alpha  occ. eigenvalues --   -8.30818  -6.44195  -6.44002  -6.43928  -6.28555
 Alpha  occ. eigenvalues --   -6.28472  -6.28264  -1.55923  -1.44188  -1.32164
 Alpha  occ. eigenvalues --   -1.13021  -1.09567  -1.03948  -0.91723  -0.85125
 Alpha  occ. eigenvalues --   -0.78534  -0.74804  -0.68753  -0.67766  -0.67059
 Alpha  occ. eigenvalues --   -0.63146  -0.62163  -0.61104  -0.60045  -0.54945
 Alpha  occ. eigenvalues --   -0.52022  -0.49876  -0.49514  -0.46776  -0.45099
 Alpha  occ. eigenvalues --   -0.43959  -0.37832
 Alpha virt. eigenvalues --    0.02594   0.03426   0.03972   0.04061   0.05332
 Alpha virt. eigenvalues --    0.05552   0.07662   0.09492   0.10020   0.10447
 Alpha virt. eigenvalues --    0.10908   0.11439   0.12510   0.12833   0.13202

 Mulliken charges:
               1
     1  C   -0.099254
     2  H   -0.122863
     3  C   -0.089323
     4  H   -0.094942
     5  N    0.936727
     6  C   -1.824524
     7  S    0.624144
     8  S    3.786431
     9  C   -0.745401
    10  H    0.248884
    11  H    0.237459
    12  H    0.247124
    13  O   -1.557727
    14  O   -1.546737
 Sum of Mulliken charges =  -0.00000

 Dipole moment (field-independent basis, Debye):
    X=              3.7664    Y=             -2.0623    Z=              4.0756  Tot=              5.9202

 Test job not archived.
 1\1\GINC-SE024\SP\RHF\Aug-CC-pVDZ\C4H5N1O2S2\OHZDE\09-Apr-2025\0\\#t h
 f aug-cc-pvdz iop(5/13=1,5/36=2,99/5=2) pseudo=read geom=check guess=(
 read,tcheck) scf=(maxcycle=1)\\title\\0,1\C,0,2.0288,-24.6278,-0.9033\
 H,0,0.9847,-24.6433,-1.1875\C,0,2.8202,-25.6824,-0.4806\H,0,2.4818,-26
 .7065,-0.375\N,0,4.1173,-25.3688,-0.198\C,0,4.3077,-24.0786,-0.3941\S,
 0,2.9476,-23.1896,-0.9689\S,0,5.9004,-23.2837,-0.2137\C,0,5.784,-22.54
 52,1.4042\H,0,4.9596,-21.8317,1.4074\H,0,6.7336,-22.0322,1.5728\H,0,5.
 6403,-23.3362,2.1418\O,0,5.9014,-22.1961,-1.188\O,0,6.9303,-24.3044,-0

 Normal termination of Gaussian 16 at Wed Apr  9 02:23:35 2025.
