 Gaussian 16, Revision C.01,

 ----------------------------------------------------------------------
 #t hf aug-cc-pvdz symm=none int=(grid=ultrafine) guess=(read,tcheck) s
 table=(opt,rrhf)
 ----------------------------------------------------------------------
 -----
 title
 -----
 Symbolic Z-matrix:
 Charge =  0 Multiplicity = 1

 SCF Done:  E(RHF) =  -681.464704516     A.U. after   13 cycles
 Normal termination of Gaussian 16 at Wed Apr  9 02:20:53 2025.
 Gaussian 16:  ES64L-G16RevC.01  3-Jul-2019

 ----------------------------------------------------------------------
 #t hf aug-cc-pvdz iop(5/13=1,5/36=2,99/5=2) pseudo=read geom=check gue
 ss=(read,tcheck) scf=(maxcycle=1)
 ----------------------------------------------------------------------
 -----
 title
 -----
 Structure from the checkpoint file:  "DCONF_16_40_mol1.chk"
 Charge =  0 Multiplicity = 1

                         Standard orientation:
 ---------------------------------------------------------------------
 Center     Atomic      Atomic             Coordinates (Angstroms)
 Number     Number       Type             X           Y           Z
 ---------------------------------------------------------------------
      1          6           0       -0.459413    1.584921   -0.410233
      2          1           0       -0.234735    1.669032   -1.474560
      3          1           0        0.273522    2.113401    0.198561
      4          1           0       -1.457528    1.974940   -0.205481
      5         16           0       -0.500722   -0.136199    0.067147
      6          8           0       -1.415647   -0.845436   -0.810196
      7          7           0        1.013879   -0.754504   -0.270453
      8          1           0        1.008119   -1.123735   -1.216908
      9          8           0       -0.659213   -0.137088    1.509825
     10          6           0        2.193702    0.067293    0.012669
     11          1           0        2.146394    0.406460    1.049618
     12          1           0        2.295261    0.933085   -0.652352
     13          1           0        3.076512   -0.565555   -0.091699
 ---------------------------------------------------------------------

 SCF Done:  E(RHF) =  -681.825105356     A.U. after    2 cycles

 The electronic state is 1-A.
 Alpha  occ. eigenvalues --  -94.21158 -20.53816 -20.53285 -15.54691 -11.29729
 Alpha  occ. eigenvalues --  -11.29087  -8.46114  -6.44236  -6.44053  -6.43954
 Alpha  occ. eigenvalues --   -1.55846  -1.43694  -1.25302  -1.06020  -0.98095
 Alpha  occ. eigenvalues --   -0.85633  -0.74738  -0.70947  -0.69276  -0.65580
 Alpha  occ. eigenvalues --   -0.63758  -0.61373  -0.60707  -0.58315  -0.50654
 Alpha  occ. eigenvalues --   -0.49781  -0.47670  -0.46176  -0.45251
 Alpha virt. eigenvalues --    0.02493   0.03669   0.04240   0.04726   0.05985
 Alpha virt. eigenvalues --    0.06502   0.07950   0.10640   0.11165   0.11977
 Alpha virt. eigenvalues --    0.13821   0.14463   0.15192   0.15487   0.15985

 Mulliken charges:
               1
     1  C   -0.667579
     2  H    0.257295
     3  H    0.243278
     4  H    0.197779
     5  S    3.034018
     6  O   -1.502115
     7  N   -0.171729
     8  H    0.220115
     9  O   -1.519738
    10  C   -0.453826
    11  H    0.161764
    12  H    0.152732
    13  H    0.048007
 Sum of Mulliken charges =  -0.00000

 Dipole moment (field-independent basis, Debye):
    X=              3.8946    Y=              3.5617    Z=             -2.5468  Tot=              5.8600

 Test job not archived.
 1\1\GINC-SE051\SP\RHF\Aug-CC-pVDZ\C2H7N1O2S1\OHZDE\09-Apr-2025\0\\#t h
 f aug-cc-pvdz iop(5/13=1,5/36=2,99/5=2) pseudo=read geom=check guess=(
 read,tcheck) scf=(maxcycle=1)\\title\\0,1\C,0,-1.1695,-1.3767,-0.6149\
 H,0,-0.5047,-1.1328,-1.4449\H,0,-0.9684,-0.7556,0.2574\H,0,-2.2101,-1.
 2567,-0.9199\S,0,-0.9853,-3.0986,-0.1756\O,0,-1.1689,-3.9097,-1.3665\N
 ,0,0.6131,-3.3035,0.2642\H,0,1.1442,-3.5642,-0.5617\O,0,-1.7918,-3.285
 4,1.0165\C,0,1.2691,-2.2599,1.0567\H,0,0.6586,-2.0501,1.9375\H,0,1.442
 9,-1.3309,0.5009\H,0,2.2276,-2.6521,1.4005\\Version=ES64L-G16RevC.01\S

 Normal termination of Gaussian 16 at Wed Apr  9 02:20:58 2025.
