 Gaussian 16, Revision C.01,

 ----------------------------------------------------------------------
 #t hf aug-cc-pvdz symm=none int=(grid=ultrafine) guess=(read,tcheck) s
 table=(opt,rrhf)
 ----------------------------------------------------------------------
 -----
 title
 -----
 Symbolic Z-matrix:
 Charge =  0 Multiplicity = 1

 SCF Done:  E(RHF) =  -703.109066879     A.U. after   16 cycles
 Normal termination of Gaussian 16 at Wed Apr  9 02:22:17 2025.
 Gaussian 16:  ES64L-G16RevC.01  3-Jul-2019

 ----------------------------------------------------------------------
 #t hf aug-cc-pvdz iop(5/13=1,5/36=2,99/5=2) pseudo=read geom=check gue
 ss=(read,tcheck) scf=(maxcycle=1)
 ----------------------------------------------------------------------
 -----
 title
 -----
 Structure from the checkpoint file:  "DCONF_24_-70_mol1.chk"
 Charge =  0 Multiplicity = 1

                         Standard orientation:
 ---------------------------------------------------------------------
 Center     Atomic      Atomic             Coordinates (Angstroms)
 Number     Number       Type             X           Y           Z
 ---------------------------------------------------------------------
      1          8           0       -1.999230   -0.935643   -0.935724
      2          6           0       -2.532297    0.733714    0.709826
      3          1           0       -2.396868    0.379626    1.737460
      4          1           0       -3.568749    0.590477    0.400295
      5          1           0       -2.271122    1.796451    0.698959
      6          6           0       -1.603876   -0.063867   -0.176827
      7          6           0        0.560525    1.334734   -0.312761
      8          1           0        0.072000    2.265197   -0.584011
      9          6           0        1.964497    1.151973   -0.256703
     10          1           0        2.694719    1.927272   -0.460356
     11          6           0        2.307370   -0.144029    0.087196
     12          1           0        3.297513   -0.551012    0.247702
     13         16           0        0.927877   -1.130955    0.313372
     14          6           0       -0.142833    0.182877    0.021234
 ---------------------------------------------------------------------

 SCF Done:  E(RHF) =  -703.475947975     A.U. after    2 cycles

 The electronic state is 1-A.
 Alpha  occ. eigenvalues --  -93.99200 -20.54517 -11.35781 -11.28614 -11.28322
 Alpha  occ. eigenvalues --  -11.26785 -11.25997 -11.25342  -8.27379  -6.25143
 Alpha  occ. eigenvalues --   -6.25043  -6.24838  -1.47157  -1.20344  -1.05112
 Alpha  occ. eigenvalues --   -1.02207  -0.98970  -0.84803  -0.78303  -0.74017
 Alpha  occ. eigenvalues --   -0.70391  -0.63749  -0.63228  -0.61735  -0.58475
 Alpha  occ. eigenvalues --   -0.56892  -0.56134  -0.53449  -0.50184  -0.49341
 Alpha  occ. eigenvalues --   -0.42683  -0.36611  -0.34270
 Alpha virt. eigenvalues --    0.03074   0.03445   0.03978   0.04993   0.05794
 Alpha virt. eigenvalues --    0.06573   0.07400   0.08914   0.09967   0.10707
 Alpha virt. eigenvalues --    0.11142   0.12210   0.12935   0.13141   0.13578

 Mulliken charges:
               1
     1  O   -1.360729
     2  C   -0.520526
     3  H    0.297035
     4  H    0.141084
     5  H    0.212377
     6  C    0.899172
     7  C    0.390636
     8  H   -0.171841
     9  C    0.308458
    10  H   -0.104781
    11  C   -0.480541
    12  H   -0.133629
    13  S    0.712734
    14  C   -0.189450
 Sum of Mulliken charges =  -0.00000

 Dipole moment (field-independent basis, Debye):
    X=              1.4342    Y=              2.7068    Z=              1.6600  Tot=              3.4842

 Test job not archived.
 1\1\GINC-SE128\SP\RHF\Aug-CC-pVDZ\C6H6O1S1\OHZDE\09-Apr-2025\0\\#t hf
 aug-cc-pvdz iop(5/13=1,5/36=2,99/5=2) pseudo=read geom=check guess=(re
 ad,tcheck) scf=(maxcycle=1)\\title\\0,1\O,0,21.5884,-4.4675,1.0092\C,0
 ,20.9648,-5.6097,-1.012\H,0,21.2314,-5.0534,-1.9171\H,0,19.9365,-5.383
 7,-0.7255\H,0,21.0742,-6.6735,-1.2446\C,0,21.9195,-5.191,0.0823\C,0,23
 .8505,-6.8997,-0.0215\H,0,23.2171,-7.7809,-0.0046\C,0,25.2661,-6.9276,
 0.0331\H,0,25.8626,-7.832,0.0782\C,0,25.8124,-5.656,0.0268\H,0,26.8592
 ,-5.3806,0.0148\S,0,24.6063,-4.443,-0.0194\C,0,23.3434,-5.6076,-0.1013

 Normal termination of Gaussian 16 at Wed Apr  9 02:22:23 2025.
