 Gaussian 16, Revision C.01,

 ----------------------------------------------------------------------
 #t hf aug-cc-pvdz symm=none int=(grid=ultrafine) guess=(read,tcheck) s
 table=(opt,rrhf)
 ----------------------------------------------------------------------
 -----
 title
 -----
 Symbolic Z-matrix:
 Charge =  0 Multiplicity = 1

 SCF Done:  E(RHF) =  -681.467035454     A.U. after   13 cycles
 Normal termination of Gaussian 16 at Wed Apr  9 02:20:22 2025.
 Gaussian 16:  ES64L-G16RevC.01  3-Jul-2019

 ----------------------------------------------------------------------
 #t hf aug-cc-pvdz iop(5/13=1,5/36=2,99/5=2) pseudo=read geom=check gue
 ss=(read,tcheck) scf=(maxcycle=1)
 ----------------------------------------------------------------------
 -----
 title
 -----
 Structure from the checkpoint file:  "DCONF_16_170_mol1.chk"
 Charge =  0 Multiplicity = 1

                         Standard orientation:
 ---------------------------------------------------------------------
 Center     Atomic      Atomic             Coordinates (Angstroms)
 Number     Number       Type             X           Y           Z
 ---------------------------------------------------------------------
      1          6           0        1.695915    0.971971   -0.257031
      2          1           0        1.544528    1.459744   -1.218786
      3          1           0        1.712444    1.691731    0.561852
      4          1           0        2.618288    0.389044   -0.257069
      5         16           0        0.380894   -0.190151    0.018444
      6          8           0        0.229409   -1.056168   -1.137825
      7          7           0       -0.943328    0.856688   -0.001544
      8          1           0       -0.888188    1.427303    0.841516
      9          8           0        0.580796   -0.767177    1.343710
     10          6           0       -2.238726    0.146604   -0.027684
     11          1           0       -2.312167   -0.409239   -0.962176
     12          1           0       -2.366637   -0.540567    0.815599
     13          1           0       -3.024047    0.902888   -0.004016
 ---------------------------------------------------------------------

 SCF Done:  E(RHF) =  -681.827790625     A.U. after    2 cycles

 The electronic state is 1-A.
 Alpha  occ. eigenvalues --  -94.20904 -20.53681 -20.53603 -15.54772 -11.29057
 Alpha  occ. eigenvalues --  -11.28310  -8.45954  -6.44047  -6.43879  -6.43798
 Alpha  occ. eigenvalues --   -1.55662  -1.43411  -1.24930  -1.06932  -0.95703
 Alpha  occ. eigenvalues --   -0.85428  -0.74703  -0.69788  -0.69000  -0.65375
 Alpha  occ. eigenvalues --   -0.62883  -0.60758  -0.59787  -0.57582  -0.52527
 Alpha  occ. eigenvalues --   -0.49345  -0.47633  -0.46092  -0.44703
 Alpha virt. eigenvalues --    0.02835   0.03990   0.04740   0.05450   0.05965
 Alpha virt. eigenvalues --    0.06296   0.07278   0.10835   0.11718   0.12477
 Alpha virt. eigenvalues --    0.13590   0.14194   0.15098   0.16054   0.16358

 Mulliken charges:
               1
     1  C   -0.633733
     2  H    0.264468
     3  H    0.220187
     4  H    0.266828
     5  S    3.204002
     6  O   -1.587812
     7  N   -0.363048
     8  H    0.234655
     9  O   -1.542734
    10  C   -0.460922
    11  H    0.171159
    12  H    0.160109
    13  H    0.066842
 Sum of Mulliken charges =  -0.00000

 Dipole moment (field-independent basis, Debye):
    X=             -0.3886    Y=              4.0718    Z=              0.3698  Tot=              4.1070

 Test job not archived.
 1\1\GINC-SE080\SP\RHF\Aug-CC-pVDZ\C2H7N1O2S1\OHZDE\09-Apr-2025\0\\#t h
 f aug-cc-pvdz iop(5/13=1,5/36=2,99/5=2) pseudo=read geom=check guess=(
 read,tcheck) scf=(maxcycle=1)\\title\\0,1\C,0,-1.0853,-1.4007,-0.6377\
 H,0,-0.8536,-0.7863,0.231\H,0,-0.3906,-1.2175,-1.4579\H,0,-2.1092,-1.2
 295,-0.9737\S,0,-1.,-3.1142,-0.1769\O,0,-1.7887,-3.3493,1.02\N,0,0.616
 8,-3.2087,0.2994\H,0,1.1842,-3.113,-0.5422\O,0,-1.245,-3.9012,-1.381\C
 ,0,0.9465,-4.4837,0.9692\H,0,0.3809,-4.545,1.8987\H,0,0.7268,-5.3607,0
 .3509\H,0,2.0111,-4.461,1.2045\\Version=ES64L-G16RevC.01\State=1-A\HF=

 Normal termination of Gaussian 16 at Wed Apr  9 02:20:26 2025.
