 Gaussian 16, Revision C.01,

 ----------------------------------------------------------------------
 #t hf aug-cc-pvdz symm=none int=(grid=ultrafine) guess=(read,tcheck) s
 table=(opt,rrhf)
 ----------------------------------------------------------------------
 -----
 title
 -----
 Symbolic Z-matrix:
 Charge =  0 Multiplicity = 1

 SCF Done:  E(RHF) =  -758.168062939     A.U. after   16 cycles
 Normal termination of Gaussian 16 at Wed Apr  9 02:25:49 2025.
 Gaussian 16:  ES64L-G16RevC.01  3-Jul-2019

 ----------------------------------------------------------------------
 #t hf aug-cc-pvdz iop(5/13=1,5/36=2,99/5=2) pseudo=read geom=check gue
 ss=(read,tcheck) scf=(maxcycle=1)
 ----------------------------------------------------------------------
 -----
 title
 -----
 Structure from the checkpoint file:  "DCONF_38_0_mol2.chk"
 Charge =  0 Multiplicity = 1

                         Standard orientation:
 ---------------------------------------------------------------------
 Center     Atomic      Atomic             Coordinates (Angstroms)
 Number     Number       Type             X           Y           Z
 ---------------------------------------------------------------------
      1          6           0        2.015703   -0.094713   -0.029936
      2          7           0        0.987940    0.820080   -0.040971
      3          1           0        1.217159    1.797713    0.070869
      4          6           0       -1.396864    1.446389   -0.033630
      5          1           0       -1.216279    2.515960   -0.067890
      6          6           0       -2.680123    0.842548    0.003749
      7          1           0       -3.613578    1.393811    0.000237
      8          6           0       -2.606387   -0.534903    0.035667
      9          1           0       -3.421283   -1.246659    0.057460
     10         16           0       -0.985575   -1.108523    0.025766
     11          6           0       -0.377679    0.507569   -0.021922
     12          8           0        1.811387   -1.300117   -0.083465
     13          6           0        3.401681    0.505937    0.072920
     14          1           0        3.426503    1.570382   -0.172223
     15          1           0        4.064284   -0.038625   -0.601407
     16          1           0        3.767747    0.367199    1.094136
 ---------------------------------------------------------------------

 SCF Done:  E(RHF) =  -758.592147113     A.U. after    2 cycles

 The electronic state is 1-A.
 Alpha  occ. eigenvalues --  -93.97749 -20.52287 -15.56008 -11.37675 -11.31684
 Alpha  occ. eigenvalues --  -11.26186 -11.25828 -11.24598 -11.24100  -8.25835
 Alpha  occ. eigenvalues --   -6.23585  -6.23483  -6.23266  -1.46915  -1.27767
 Alpha  occ. eigenvalues --   -1.17388  -1.04104  -1.00984  -0.97137  -0.86069
 Alpha  occ. eigenvalues --   -0.81264  -0.76124  -0.72111  -0.69231  -0.65183
 Alpha  occ. eigenvalues --   -0.63719  -0.60379  -0.58441  -0.58040  -0.56868
 Alpha  occ. eigenvalues --   -0.54198  -0.51681  -0.49162  -0.46299  -0.43024
 Alpha  occ. eigenvalues --   -0.35390  -0.30754
 Alpha virt. eigenvalues --    0.02438   0.03693   0.04079   0.04796   0.05048
 Alpha virt. eigenvalues --    0.06153   0.07730   0.08981   0.09732   0.10037
 Alpha virt. eigenvalues --    0.11733   0.12138   0.12803   0.13395   0.13541

 Mulliken charges:
               1
     1  C    0.523039
     2  N    1.030866
     3  H    0.062989
     4  C    1.054387
     5  H   -0.239559
     6  C    0.341011
     7  H   -0.116575
     8  C   -0.457441
     9  H   -0.155911
    10  S    0.804514
    11  C   -1.810833
    12  O   -1.331540
    13  C   -0.327602
    14  H    0.112614
    15  H    0.231202
    16  H    0.278838
 Sum of Mulliken charges =  -0.00000

 Dipole moment (field-independent basis, Debye):
    X=              1.0008    Y=              3.8899    Z=              0.3399  Tot=              4.0309

 Test job not archived.
 1\1\GINC-SE195\SP\RHF\Aug-CC-pVDZ\C6H7N1O1S1\OHZDE\09-Apr-2025\0\\#t h
 f aug-cc-pvdz iop(5/13=1,5/36=2,99/5=2) pseudo=read geom=check guess=(
 read,tcheck) scf=(maxcycle=1)\\title\\0,1\C,0,29.0938,-3.4194,0.034\N,
 0,29.439,-4.7513,0.022\H,0,28.7072,-5.4358,0.1514\C,0,31.0726,-6.5981,
 0.0051\H,0,30.3272,-7.3867,-0.0109\C,0,32.4754,-6.8098,0.0156\H,0,32.9
 445,-7.7871,0.0071\C,0,33.1806,-5.6239,0.0283\H,0,34.2539,-5.4855,0.02
 82\S,0,32.1525,-4.2458,0.0327\C,0,30.7479,-5.251,0.0173\O,0,29.9327,-2
 .5315,-0.0401\C,0,27.6102,-3.1473,0.1651\H,0,26.9929,-4.0192,-0.064\H,

 Normal termination of Gaussian 16 at Wed Apr  9 02:25:57 2025.
