 Gaussian 16, Revision C.01,

 ----------------------------------------------------------------------
 #t hf aug-cc-pvdz symm=none int=(grid=ultrafine) guess=(read,tcheck) s
 table=(opt,rrhf)
 ----------------------------------------------------------------------
 -----
 title
 -----
 Symbolic Z-matrix:
 Charge =  0 Multiplicity = 1

 SCF Done:  E(RHF) =  -217.134270429     A.U. after   11 cycles
 Normal termination of Gaussian 16 at Wed Apr  9 02:30:10 2025.
 Gaussian 16:  ES64L-G16RevC.01  3-Jul-2019

 ----------------------------------------------------------------------
 #t hf aug-cc-pvdz iop(5/13=1,5/36=2,99/5=2) pseudo=read geom=check gue
 ss=(read,tcheck) scf=(maxcycle=1)
 ----------------------------------------------------------------------
 -----
 title
 -----
 Structure from the checkpoint file:  "DCONF_7_0_mol1.chk"
 Charge =  0 Multiplicity = 1

                         Standard orientation:
 ---------------------------------------------------------------------
 Center     Atomic      Atomic             Coordinates (Angstroms)
 Number     Number       Type             X           Y           Z
 ---------------------------------------------------------------------
      1          9           0        1.237444   -0.771968   -0.000016
      2          6           0        0.886088    0.581645   -0.000004
      3          1           0        1.344827    1.020717    0.889069
      4          1           0        1.344733    1.020810   -0.888942
      5          6           0       -0.642727    0.769825    0.000003
      6          1           0       -0.930299    1.356232    0.877907
      7          1           0       -0.930331    1.356335   -0.877904
      8          6           0       -1.424582   -0.547250   -0.000035
      9          1           0       -1.190383   -1.147058    0.881685
     10          1           0       -1.190552   -1.146989   -0.881627
     11          1           0       -2.497663   -0.337650    0.000179
 ---------------------------------------------------------------------

 SCF Done:  E(RHF) =  -217.359500959     A.U. after    2 cycles

 The electronic state is 1-A.
 Alpha  occ. eigenvalues --  -26.43565 -11.31521 -11.23979 -11.22573  -1.55620
 Alpha  occ. eigenvalues --   -1.05842  -0.93619  -0.81403  -0.69458  -0.68121
 Alpha  occ. eigenvalues --   -0.64254  -0.60568  -0.55352  -0.53433  -0.51542
 Alpha  occ. eigenvalues --   -0.48787  -0.47228
 Alpha virt. eigenvalues --    0.03662   0.04242   0.04270   0.04953   0.07076
 Alpha virt. eigenvalues --    0.07292   0.07991   0.11118   0.12546   0.14511
 Alpha virt. eigenvalues --    0.15087   0.15767   0.16479   0.16801   0.17297

 Mulliken charges:
               1
     1  F   -0.736100
     2  C    0.673368
     3  H    0.101413
     4  H    0.101213
     5  C   -0.650166
     6  H    0.150339
     7  H    0.150492
     8  C   -0.247057
     9  H    0.172023
    10  H    0.171613
    11  H    0.112861
 Sum of Mulliken charges =  -0.00000

 Dipole moment (field-independent basis, Debye):
    X=             -0.7038    Y=              1.7247    Z=             -0.0000  Tot=              1.8628

 Test job not archived.
 1\1\GINC-SE073\SP\RHF\Aug-CC-pVDZ\C3H7F1\OHZDE\09-Apr-2025\0\\#t hf au
 g-cc-pvdz iop(5/13=1,5/36=2,99/5=2) pseudo=read geom=check guess=(read
 ,tcheck) scf=(maxcycle=1)\\title\\0,1\F,0,13.2416,-26.4694,0.005\C,0,1
 4.3978,-25.6827,0.0001\H,0,14.3396,-25.0521,-0.8902\H,0,14.3446,-25.04
 82,0.8878\C,0,15.6718,-26.5485,-0.0015\H,0,16.2721,-26.2988,-0.8816\H,
 0,16.277,-26.2949,0.8742\C,0,15.3921,-28.0544,0.0026\H,0,14.8183,-28.3
 532,-0.8769\H,0,14.8233,-28.3494,0.8864\H,0,16.3374,-28.6038,0.001\\Ve
 rsion=ES64L-G16RevC.01\State=1-A\HF=-217.359501\RMSD=8.030e-03\Dipole=

 Normal termination of Gaussian 16 at Wed Apr  9 02:30:13 2025.
