 Gaussian 16, Revision C.01,

 ----------------------------------------------------------------------
 #t hf aug-cc-pvdz symm=none int=(grid=ultrafine) guess=(read,tcheck) s
 table=(opt,rrhf)
 ----------------------------------------------------------------------
 -----
 title
 -----
 Symbolic Z-matrix:
 Charge =  0 Multiplicity = 1

 SCF Done:  E(RHF) =  -1153.54503249     A.U. after   16 cycles
 Normal termination of Gaussian 16 at Wed Apr  9 02:23:33 2025.
 Gaussian 16:  ES64L-G16RevC.01  3-Jul-2019

 ----------------------------------------------------------------------
 #t hf aug-cc-pvdz iop(5/13=1,5/36=2,99/5=2) pseudo=read geom=check gue
 ss=(read,tcheck) scf=(maxcycle=1)
 ----------------------------------------------------------------------
 -----
 title
 -----
 Structure from the checkpoint file:  "DCONF_29_-130_mol1.chk"
 Charge =  0 Multiplicity = 1

                         Standard orientation:
 ---------------------------------------------------------------------
 Center     Atomic      Atomic             Coordinates (Angstroms)
 Number     Number       Type             X           Y           Z
 ---------------------------------------------------------------------
      1          6           0       -2.745759   -0.183030   -0.023090
      2          1           0       -3.743409   -0.602066   -0.012296
      3          6           0       -2.368281    1.144689   -0.109386
      4          1           0       -3.056228    1.979914   -0.169569
      5          7           0       -1.023637    1.378742   -0.115134
      6          6           0       -0.377003    0.232719   -0.047595
      7         16           0       -1.361268   -1.180140    0.073701
      8         16           0        1.408080    0.155372    0.136122
      9          6           0        1.873036   -0.980831   -1.156531
     10          1           0        1.561788   -0.570167   -2.118013
     11          1           0        2.961681   -1.055718   -1.108841
     12          1           0        1.420824   -1.954702   -0.966103
     13          8           0        1.949725    1.463237   -0.178957
     14          8           0        1.672758   -0.504918    1.409357
 ---------------------------------------------------------------------

 SCF Done:  E(RHF) =  -1154.02388415     A.U. after    2 cycles

 The electronic state is 1-A.
 Alpha  occ. eigenvalues --  -94.20931 -94.02743 -20.54425 -20.54420 -15.55375
 Alpha  occ. eigenvalues --  -11.35435 -11.30970 -11.30563 -11.29788  -8.46144
 Alpha  occ. eigenvalues --   -8.30956  -6.44253  -6.44061  -6.43997  -6.28701
 Alpha  occ. eigenvalues --   -6.28617  -6.28403  -1.55906  -1.44107  -1.32216
 Alpha  occ. eigenvalues --   -1.13197  -1.09723  -1.03940  -0.91829  -0.85193
 Alpha  occ. eigenvalues --   -0.78528  -0.74888  -0.68598  -0.67870  -0.67211
 Alpha  occ. eigenvalues --   -0.63102  -0.62487  -0.61231  -0.60214  -0.55084
 Alpha  occ. eigenvalues --   -0.52200  -0.49737  -0.49288  -0.46856  -0.45157
 Alpha  occ. eigenvalues --   -0.44159  -0.37772
 Alpha virt. eigenvalues --    0.02548   0.03333   0.04066   0.04202   0.05050
 Alpha virt. eigenvalues --    0.05416   0.08009   0.09652   0.10139   0.10387
 Alpha virt. eigenvalues --    0.10852   0.11373   0.12111   0.12658   0.13094

 Mulliken charges:
               1
     1  C   -0.194705
     2  H   -0.123640
     3  C   -0.025213
     4  H   -0.086864
     5  N    0.894855
     6  C   -1.807467
     7  S    0.680350
     8  S    3.726990
     9  C   -0.721932
    10  H    0.254054
    11  H    0.232596
    12  H    0.265117
    13  O   -1.560433
    14  O   -1.533708
 Sum of Mulliken charges =  -0.00000

 Dipole moment (field-independent basis, Debye):
    X=             -3.8721    Y=             -4.0504    Z=             -3.1137  Tot=              6.4105

 Test job not archived.
 1\1\GINC-SE229\SP\RHF\Aug-CC-pVDZ\C4H5N1O2S2\OHZDE\09-Apr-2025\0\\#t h
 f aug-cc-pvdz iop(5/13=1,5/36=2,99/5=2) pseudo=read geom=check guess=(
 read,tcheck) scf=(maxcycle=1)\\title\\0,1\C,0,2.0282,-24.6376,-0.9186\
 H,0,0.9837,-24.6575,-1.2008\C,0,2.8266,-25.6827,-0.4907\H,0,2.4969,-26
 .7099,-0.3875\N,0,4.1167,-25.3564,-0.1873\C,0,4.2985,-24.0642,-0.3696\
 S,0,2.9335,-23.1888,-0.9613\S,0,5.9186,-23.3011,-0.231\C,0,5.5989,-21.
 9292,0.8616\H,0,5.2267,-22.3129,1.8125\H,0,6.5607,-21.431,1.0022\H,0,4
 .8879,-21.2479,0.3931\O,0,6.7996,-24.2353,0.443\O,0,6.2369,-22.7462,-1

 Normal termination of Gaussian 16 at Wed Apr  9 02:23:40 2025.
