 Gaussian 16, Revision C.01,

 ----------------------------------------------------------------------
 #t hf aug-cc-pvdz symm=none int=(grid=ultrafine) guess=(read,tcheck) s
 table=(opt,rrhf)
 ----------------------------------------------------------------------
 -----
 title
 -----
 Symbolic Z-matrix:
 Charge =  0 Multiplicity = 1

 SCF Done:  E(RHF) =  -796.902932782     A.U. after   17 cycles
 Normal termination of Gaussian 16 at Wed Apr  9 02:29:37 2025.
 Gaussian 16:  ES64L-G16RevC.01  3-Jul-2019

 ----------------------------------------------------------------------
 #t hf aug-cc-pvdz iop(5/13=1,5/36=2,99/5=2) pseudo=read geom=check gue
 ss=(read,tcheck) scf=(maxcycle=1)
 ----------------------------------------------------------------------
 -----
 title
 -----
 Structure from the checkpoint file:  "DCONF_55_-120_mol1.chk"
 Charge =  0 Multiplicity = 1

                         Standard orientation:
 ---------------------------------------------------------------------
 Center     Atomic      Atomic             Coordinates (Angstroms)
 Number     Number       Type             X           Y           Z
 ---------------------------------------------------------------------
      1          6           0       -1.430858    1.145376   -0.506486
      2          1           0       -0.917215    2.018074   -0.900829
      3          6           0       -2.826308    1.067354   -0.517921
      4          1           0       -3.408802    1.886746   -0.930733
      5          6           0       -3.474049   -0.059524    0.005733
      6          1           0       -4.559115   -0.117861   -0.004578
      7          6           0       -2.720401   -1.109318    0.544316
      8          1           0       -3.219425   -1.977261    0.967025
      9          6           0       -1.323685   -1.033569    0.563927
     10          1           0       -0.735951   -1.835201    1.005267
     11          6           0       -0.672371    0.086413    0.020297
     12          7           0        1.442543    1.183457    0.679729
     13          6           0        2.794419    0.987627    0.590454
     14          1           0        3.468943    1.708785    1.037945
     15          6           0        3.192473   -0.156793   -0.071835
     16          1           0        4.198223   -0.508874   -0.259844
     17         16           0        1.817442   -1.014537   -0.618763
     18          6           0        0.793527    0.201433    0.076161
 ---------------------------------------------------------------------

 SCF Done:  E(RHF) =  -797.365006143     A.U. after    2 cycles

 The electronic state is 1-A.
 Alpha  occ. eigenvalues --  -93.99162 -15.51273 -11.32184 -11.27881 -11.27402
 Alpha  occ. eigenvalues --  -11.26495 -11.25747 -11.25525 -11.25501 -11.25371
 Alpha  occ. eigenvalues --  -11.25294  -8.27404  -6.25153  -6.25067  -6.24860
 Alpha  occ. eigenvalues --   -1.28664  -1.16354  -1.09551  -1.06044  -1.02434
 Alpha  occ. eigenvalues --   -0.98857  -0.86466  -0.84754  -0.81638  -0.77012
 Alpha  occ. eigenvalues --   -0.72475  -0.69401  -0.65554  -0.64799  -0.61390
 Alpha  occ. eigenvalues --   -0.60814  -0.59105  -0.57564  -0.52592  -0.52136
 Alpha  occ. eigenvalues --   -0.51477  -0.51371  -0.46655  -0.41346  -0.37151
 Alpha  occ. eigenvalues --   -0.35317  -0.32872
 Alpha virt. eigenvalues --    0.03370   0.03519   0.03770   0.04486   0.04820
 Alpha virt. eigenvalues --    0.06055   0.06785   0.06962   0.08037   0.09572
 Alpha virt. eigenvalues --    0.10095   0.10213   0.10936   0.11298   0.11670

 Mulliken charges:
               1
     1  C   -0.219204
     2  H   -0.242471
     3  C    0.092617
     4  H   -0.212826
     5  C    0.037828
     6  H   -0.208949
     7  C    0.145611
     8  H   -0.215546
     9  C   -0.060516
    10  H   -0.247256
    11  C    2.611570
    12  N    1.230066
    13  C   -0.223434
    14  H   -0.125845
    15  C   -0.017909
    16  H   -0.144419
    17  S    0.512078
    18  C   -2.711395
 Sum of Mulliken charges =   0.00000

 Dipole moment (field-independent basis, Debye):
    X=             -0.0705    Y=             -1.3782    Z=             -0.7940  Tot=              1.5922

 Test job not archived.
 1\1\GINC-SE127\SP\RHF\Aug-CC-pVDZ\C9H7N1S1\OHZDE\09-Apr-2025\0\\#t hf
 aug-cc-pvdz iop(5/13=1,5/36=2,99/5=2) pseudo=read geom=check guess=(re
 ad,tcheck) scf=(maxcycle=1)\\title\\0,1\C,0,21.8298,-21.141,-0.0049\H,
 0,22.3957,-20.2133,0.0033\C,0,20.4322,-21.1297,0.0043\H,0,19.9007,-20.
 1818,0.0147\C,0,19.7171,-22.3348,0.0061\H,0,18.6305,-22.3233,0.013\C,0
 ,20.4055,-23.5539,0.0012\H,0,19.8548,-24.4906,0.02\C,0,21.8043,-23.570
 9,-0.0017\H,0,22.3425,-24.5157,0.0211\C,0,22.5223,-22.3634,-0.0246\N,0
 ,24.7118,-21.7851,0.9668\C,0,26.0468,-21.9953,0.7489\H,0,26.7721,-21.5

 Normal termination of Gaussian 16 at Wed Apr  9 02:29:49 2025.
