 Gaussian 16, Revision C.01,

 ----------------------------------------------------------------------
 #t hf aug-cc-pvdz symm=none int=(grid=ultrafine) guess=(read,tcheck) s
 table=(opt,rrhf)
 ----------------------------------------------------------------------
 -----
 title
 -----
 Symbolic Z-matrix:
 Charge =  0 Multiplicity = 1

 SCF Done:  E(RHF) =  -774.174943358     A.U. after   16 cycles
 Normal termination of Gaussian 16 at Wed Apr  9 02:25:29 2025.
 Gaussian 16:  ES64L-G16RevC.01  3-Jul-2019

 ----------------------------------------------------------------------
 #t hf aug-cc-pvdz iop(5/13=1,5/36=2,99/5=2) pseudo=read geom=check gue
 ss=(read,tcheck) scf=(maxcycle=1)
 ----------------------------------------------------------------------
 -----
 title
 -----
 Structure from the checkpoint file:  "DCONF_42_-110_mol1.chk"
 Charge =  0 Multiplicity = 1

                         Standard orientation:
 ---------------------------------------------------------------------
 Center     Atomic      Atomic             Coordinates (Angstroms)
 Number     Number       Type             X           Y           Z
 ---------------------------------------------------------------------
      1          6           0       -1.986868   -0.148713    0.140727
      2          7           0       -0.999145    0.473724   -0.634384
      3          1           0       -1.245063    1.384154   -1.006656
      4          7           0        1.035685    1.423931    0.182396
      5          6           0        2.329754    1.049182    0.433010
      6          1           0        3.032845    1.781039    0.812138
      7          6           0        2.624192   -0.276071    0.191294
      8          1           0        3.557973   -0.797428    0.353228
      9         16           0        1.233942   -1.086257   -0.394245
     10          6           0        0.354608    0.390580   -0.269570
     11          8           0       -1.738607   -1.071606    0.893136
     12          6           0       -3.372045    0.419967   -0.076393
     13          1           0       -3.534614    0.693833   -1.121827
     14          1           0       -4.110703   -0.318325    0.234136
     15          1           0       -3.488288    1.316424    0.541325
 ---------------------------------------------------------------------

 SCF Done:  E(RHF) =  -774.611155818     A.U. after    2 cycles

 The electronic state is 1-A.
 Alpha  occ. eigenvalues --  -93.99263 -20.53228 -15.55469 -15.51504 -11.38192
 Alpha  occ. eigenvalues --  -11.35476 -11.28009 -11.27371 -11.26291  -8.27518
 Alpha  occ. eigenvalues --   -6.25259  -6.25172  -6.24952  -1.47760  -1.31394
 Alpha  occ. eigenvalues --   -1.24245  -1.10083  -1.04735  -0.99352  -0.86938
 Alpha  occ. eigenvalues --   -0.82410  -0.80550  -0.72754  -0.70225  -0.66454
 Alpha  occ. eigenvalues --   -0.65023  -0.61926  -0.60135  -0.58478  -0.58331
 Alpha  occ. eigenvalues --   -0.54551  -0.52120  -0.48183  -0.46506  -0.44623
 Alpha  occ. eigenvalues --   -0.41057  -0.34188
 Alpha virt. eigenvalues --    0.03044   0.03962   0.04610   0.04801   0.04999
 Alpha virt. eigenvalues --    0.06600   0.08079   0.08698   0.09397   0.10535
 Alpha virt. eigenvalues --    0.10926   0.11830   0.12113   0.12579   0.13596

 Mulliken charges:
               1
     1  C    1.161944
     2  N    0.835732
     3  H    0.192227
     4  N    0.908136
     5  C   -0.134792
     6  H   -0.111185
     7  C   -0.013214
     8  H   -0.143784
     9  S    0.809245
    10  C   -2.383033
    11  O   -1.270799
    12  C   -0.502028
    13  H    0.208919
    14  H    0.166172
    15  H    0.276459
 Sum of Mulliken charges =  -0.00000

 Dipole moment (field-independent basis, Debye):
    X=             -0.5640    Y=              1.0766    Z=             -1.7112  Tot=              2.0989

 Test job not archived.
 1\1\GINC-SE334\SP\RHF\Aug-CC-pVDZ\C5H6N2O1S1\OHZDE\09-Apr-2025\0\\#t h
 f aug-cc-pvdz iop(5/13=1,5/36=2,99/5=2) pseudo=read geom=check guess=(
 read,tcheck) scf=(maxcycle=1)\\title\\0,1\C,0,28.8364,-16.1753,-1.1228
 \N,0,29.3095,-16.8578,0.006\H,0,28.6199,-17.4097,0.5038\N,0,30.7425,-1
 8.7701,-0.0072\C,0,32.0806,-19.0653,0.0071\H,0,32.3981,-20.1011,0.0062
 \C,0,32.9308,-17.9797,0.\H,0,34.012,-17.973,-0.0307\S,0,32.024,-16.527
 2,-0.0029\C,0,30.5769,-17.463,-0.0029\O,0,29.5815,-15.738,-1.979\C,0,2
 7.3317,-16.0186,-1.1468\H,0,26.93,-15.8431,-0.1457\H,0,27.0725,-15.188

 Normal termination of Gaussian 16 at Wed Apr  9 02:25:36 2025.
