 Gaussian 16, Revision C.01,

 ----------------------------------------------------------------------
 #t hf aug-cc-pvdz symm=none int=(grid=ultrafine) guess=(read,tcheck) s
 table=(opt,rrhf)
 ----------------------------------------------------------------------
 -----
 title
 -----
 Symbolic Z-matrix:
 Charge =  0 Multiplicity = 1

 SCF Done:  E(RHF) =  -256.175828831     A.U. after   12 cycles
 Normal termination of Gaussian 16 at Wed Apr  9 02:31:21 2025.
 Gaussian 16:  ES64L-G16RevC.01  3-Jul-2019

 ----------------------------------------------------------------------
 #t hf aug-cc-pvdz iop(5/13=1,5/36=2,99/5=2) pseudo=read geom=check gue
 ss=(read,tcheck) scf=(maxcycle=1)
 ----------------------------------------------------------------------
 -----
 title
 -----
 Structure from the checkpoint file:  "DCONF_8_110_mol1.chk"
 Charge =  0 Multiplicity = 1

                         Standard orientation:
 ---------------------------------------------------------------------
 Center     Atomic      Atomic             Coordinates (Angstroms)
 Number     Number       Type             X           Y           Z
 ---------------------------------------------------------------------
      1          6           0       -0.027358    0.007086    0.553052
      2          1           0        0.228336    0.454411    1.521127
      3          1           0       -0.119969   -1.071539    0.720136
      4          6           0        1.100343    0.292732   -0.440164
      5          1           0        1.182798    1.376636   -0.587052
      6          1           0        0.836396   -0.138710   -1.413385
      7          6           0        2.443846   -0.265451    0.026686
      8          1           0        2.729921    0.168176    0.990681
      9          1           0        3.239140   -0.046629   -0.691554
     10          1           0        2.388437   -1.351588    0.150644
     11          6           0       -1.389754    0.522108    0.090350
     12          1           0       -1.303287    1.145869   -0.804477
     13          1           0       -1.902246    1.087847    0.872420
     14          9           0       -2.226887   -0.551480   -0.237566
 ---------------------------------------------------------------------

 SCF Done:  E(RHF) =  -256.444960838     A.U. after    2 cycles

 The electronic state is 1-A.
 Alpha  occ. eigenvalues --  -26.43473 -11.31445 -11.23601 -11.23578 -11.22854
 Alpha  occ. eigenvalues --   -1.55405  -1.08368  -0.98639  -0.87331  -0.81086
 Alpha  occ. eigenvalues --   -0.68891  -0.67659  -0.64512  -0.62882  -0.58125
 Alpha  occ. eigenvalues --   -0.55639  -0.54114  -0.51214  -0.48816  -0.48145
 Alpha  occ. eigenvalues --   -0.47171
 Alpha virt. eigenvalues --    0.03619   0.03782   0.03857   0.04923   0.06353
 Alpha virt. eigenvalues --    0.06729   0.07130   0.08117   0.09110   0.12082
 Alpha virt. eigenvalues --    0.12765   0.13593   0.14882   0.16048   0.16346

 Mulliken charges:
               1
     1  C   -0.274447
     2  H    0.098536
     3  H    0.170060
     4  C   -0.422214
     5  H    0.146904
     6  H    0.133600
     7  C   -0.387663
     8  H    0.180175
     9  H    0.125162
    10  H    0.173466
    11  C    0.667832
    12  H    0.050696
    13  H    0.070885
    14  F   -0.732992
 Sum of Mulliken charges =  -0.00000

 Dipole moment (field-independent basis, Debye):
    X=              1.4579    Y=              1.3316    Z=              0.4546  Tot=              2.0262

 Test job not archived.
 1\1\GINC-SE366\SP\RHF\Aug-CC-pVDZ\C4H9F1\OHZDE\09-Apr-2025\0\\#t hf au
 g-cc-pvdz iop(5/13=1,5/36=2,99/5=2) pseudo=read geom=check guess=(read
 ,tcheck) scf=(maxcycle=1)\\title\\0,1\C,0,0.0312,-0.0327,-0.006\H,0,0.
 0224,-0.6789,-0.892\H,0,0.0466,-0.6955,0.866\C,0,-1.2391,0.8194,0.0007
 \H,0,-1.24,1.4687,-0.8834\H,0,-1.2217,1.4789,0.8769\C,0,-2.51,-0.0286,
 0.0158\H,0,-2.5506,-0.6819,-0.8621\H,0,-3.4077,0.5962,0.0138\H,0,-2.54
 03,-0.6627,0.9075\C,0,1.317,0.7929,0.0178\H,0,1.115,1.8594,-0.1202\H,0
 ,2.031,0.4631,-0.741\F,0,1.9584,0.6538,1.2548\\Version=ES64L-G16RevC.0

 Normal termination of Gaussian 16 at Wed Apr  9 02:31:24 2025.
