 Gaussian 16, Revision C.01,

 ----------------------------------------------------------------------
 #t hf aug-cc-pvdz symm=none int=(grid=ultrafine) guess=(read,tcheck) s
 table=(opt,rrhf)
 ----------------------------------------------------------------------
 -----
 title
 -----
 Symbolic Z-matrix:
 Charge =  0 Multiplicity = 1

 SCF Done:  E(RHF) =  -217.137960385     A.U. after   12 cycles
 Normal termination of Gaussian 16 at Wed Apr  9 02:30:11 2025.
 Gaussian 16:  ES64L-G16RevC.01  3-Jul-2019

 ----------------------------------------------------------------------
 #t hf aug-cc-pvdz iop(5/13=1,5/36=2,99/5=2) pseudo=read geom=check gue
 ss=(read,tcheck) scf=(maxcycle=1)
 ----------------------------------------------------------------------
 -----
 title
 -----
 Structure from the checkpoint file:  "DCONF_7_100_mol1.chk"
 Charge =  0 Multiplicity = 1

                         Standard orientation:
 ---------------------------------------------------------------------
 Center     Atomic      Atomic             Coordinates (Angstroms)
 Number     Number       Type             X           Y           Z
 ---------------------------------------------------------------------
      1          9           0        1.625105   -0.472414   -0.212999
      2          6           0        0.717448    0.372546    0.437680
      3          1           0        1.224672    1.333579    0.555674
      4          1           0        0.522949   -0.055502    1.425404
      5          6           0       -0.558214    0.505578   -0.387875
      6          1           0       -0.305110    0.275139   -1.426806
      7          1           0       -0.882743    1.552083   -0.366299
      8          6           0       -1.696950   -0.382488    0.115284
      9          1           0       -1.396467   -1.434779    0.121085
     10          1           0       -1.979634   -0.104758    1.135214
     11          1           0       -2.583317   -0.287851   -0.517823
 ---------------------------------------------------------------------

 SCF Done:  E(RHF) =  -217.363465102     A.U. after    2 cycles

 The electronic state is 1-A.
 Alpha  occ. eigenvalues --  -26.43520 -11.31484 -11.23933 -11.23240  -1.55457
 Alpha  occ. eigenvalues --   -1.06616  -0.93324  -0.82571  -0.68901  -0.68047
 Alpha  occ. eigenvalues --   -0.64129  -0.60034  -0.57595  -0.54148  -0.50476
 Alpha  occ. eigenvalues --   -0.48729  -0.48449
 Alpha virt. eigenvalues --    0.03641   0.04049   0.04189   0.05246   0.07026
 Alpha virt. eigenvalues --    0.07508   0.07673   0.11154   0.12229   0.14361
 Alpha virt. eigenvalues --    0.15000   0.15785   0.16410   0.17089   0.17605

 Mulliken charges:
               1
     1  F   -0.724254
     2  C    0.637684
     3  H    0.054661
     4  H    0.095477
     5  C   -0.436139
     6  H    0.183533
     7  H    0.143738
     8  C   -0.391577
     9  H    0.160122
    10  H    0.163055
    11  H    0.113700
 Sum of Mulliken charges =   0.00000

 Dipole moment (field-independent basis, Debye):
    X=             -1.4843    Y=              1.1514    Z=              0.6948  Tot=              2.0029

 Test job not archived.
 1\1\GINC-SE460\SP\RHF\Aug-CC-pVDZ\C3H7F1\OHZDE\09-Apr-2025\0\\#t hf au
 g-cc-pvdz iop(5/13=1,5/36=2,99/5=2) pseudo=read geom=check guess=(read
 ,tcheck) scf=(maxcycle=1)\\title\\0,1\F,0,13.2551,-26.4762,0.005\C,0,1
 4.4034,-25.6746,0.0001\H,0,14.3464,-25.053,0.8974\H,0,14.3511,-25.0343
 ,-0.8853\C,0,15.6527,-26.5497,-0.0015\H,0,15.3753,-27.5226,0.4145\H,0,
 16.3888,-26.1119,0.6822\C,0,16.2824,-26.6985,-1.3871\H,0,15.5643,-27.1
 189,-2.0979\H,0,16.6075,-25.7258,-1.7685\H,0,17.1542,-27.3577,-1.358\\
 Version=ES64L-G16RevC.01\State=1-A\HF=-217.3634651\RMSD=8.284e-03\Dipo

 Normal termination of Gaussian 16 at Wed Apr  9 02:30:14 2025.
