 Gaussian 16, Revision C.01,

 ----------------------------------------------------------------------
 #t hf aug-cc-pvdz symm=none int=(grid=ultrafine) guess=(read,tcheck) s
 table=(opt,rrhf)
 ----------------------------------------------------------------------
 -----
 title
 -----
 Symbolic Z-matrix:
 Charge =  0 Multiplicity = 1

 SCF Done:  E(RHF) =  -217.139459310     A.U. after   12 cycles
 Normal termination of Gaussian 16 at Wed Apr  9 02:30:10 2025.
 Gaussian 16:  ES64L-G16RevC.01  3-Jul-2019

 ----------------------------------------------------------------------
 #t hf aug-cc-pvdz iop(5/13=1,5/36=2,99/5=2) pseudo=read geom=check gue
 ss=(read,tcheck) scf=(maxcycle=1)
 ----------------------------------------------------------------------
 -----
 title
 -----
 Structure from the checkpoint file:  "DCONF_7_-150_mol1.chk"
 Charge =  0 Multiplicity = 1

                         Standard orientation:
 ---------------------------------------------------------------------
 Center     Atomic      Atomic             Coordinates (Angstroms)
 Number     Number       Type             X           Y           Z
 ---------------------------------------------------------------------
      1          9           0        1.828614   -0.152395   -0.196417
      2          6           0        0.637362    0.470379    0.187843
      3          1           0        0.797508    0.911320    1.175534
      4          1           0        0.456651    1.270585   -0.536874
      5          6           0       -0.510456   -0.527938    0.173460
      6          1           0       -0.286159   -1.264247   -0.605097
      7          1           0       -0.559659   -1.066970    1.123931
      8          6           0       -1.844828    0.149594   -0.145419
      9          1           0       -1.817663    0.601420   -1.141201
     10          1           0       -2.075244    0.939140    0.577561
     11          1           0       -2.665430   -0.571902   -0.121407
 ---------------------------------------------------------------------

 SCF Done:  E(RHF) =  -217.365094163     A.U. after    2 cycles

 The electronic state is 1-A.
 Alpha  occ. eigenvalues --  -26.43589 -11.31470 -11.23906 -11.23685  -1.55554
 Alpha  occ. eigenvalues --   -1.06922  -0.93171  -0.82830  -0.69621  -0.67061
 Alpha  occ. eigenvalues --   -0.64634  -0.61041  -0.57051  -0.53427  -0.51291
 Alpha  occ. eigenvalues --   -0.48866  -0.48607
 Alpha virt. eigenvalues --    0.03601   0.04025   0.04175   0.05142   0.07153
 Alpha virt. eigenvalues --    0.07443   0.07736   0.11104   0.12334   0.14993
 Alpha virt. eigenvalues --    0.15432   0.15494   0.16529   0.16924   0.17193

 Mulliken charges:
               1
     1  F   -0.731183
     2  C    0.684048
     3  H    0.094812
     4  H    0.056329
     5  C   -0.583351
     6  H    0.202829
     7  H    0.157583
     8  C   -0.335805
     9  H    0.150541
    10  H    0.184971
    11  H    0.119226
 Sum of Mulliken charges =  -0.00000

 Dipole moment (field-independent basis, Debye):
    X=             -1.8919    Y=              0.6384    Z=              0.4836  Tot=              2.0545

 Test job not archived.
 1\1\GINC-SE334\SP\RHF\Aug-CC-pVDZ\C3H7F1\OHZDE\09-Apr-2025\0\\#t hf au
 g-cc-pvdz iop(5/13=1,5/36=2,99/5=2) pseudo=read geom=check guess=(read
 ,tcheck) scf=(maxcycle=1)\\title\\0,1\F,0,13.2553,-26.4747,0.005\C,0,1
 4.404,-25.6778,0.0001\H,0,14.3487,-25.022,-0.8731\H,0,14.3642,-25.0688
 ,0.9088\C,0,15.6519,-26.5479,-0.0015\H,0,15.4015,-27.4698,0.5333\H,0,1
 5.9197,-26.8296,-1.0239\C,0,16.8218,-25.8595,0.7047\H,0,16.5794,-25.67
 13,1.7546\H,0,17.0626,-24.8994,0.2363\H,0,17.7204,-26.4806,0.669\\Vers
 ion=ES64L-G16RevC.01\State=1-A\HF=-217.3650942\RMSD=8.058e-03\Dipole=0

 Normal termination of Gaussian 16 at Wed Apr  9 02:30:13 2025.
