 Gaussian 16, Revision C.01,

 ----------------------------------------------------------------------
 #t hf aug-cc-pvdz symm=none int=(grid=ultrafine) guess=(read,tcheck) s
 table=(opt,rrhf)
 ----------------------------------------------------------------------
 -----
 title
 -----
 Symbolic Z-matrix:
 Charge =  0 Multiplicity = 1

 SCF Done:  E(RHF) =  -796.897808508     A.U. after   16 cycles
 Normal termination of Gaussian 16 at Wed Apr  9 02:29:07 2025.
 Gaussian 16:  ES64L-G16RevC.01  3-Jul-2019

 ----------------------------------------------------------------------
 #t hf aug-cc-pvdz iop(5/13=1,5/36=2,99/5=2) pseudo=read geom=check gue
 ss=(read,tcheck) scf=(maxcycle=1)
 ----------------------------------------------------------------------
 -----
 title
 -----
 Structure from the checkpoint file:  "DCONF_52_0_mol1.chk"
 Charge =  0 Multiplicity = 1

                         Standard orientation:
 ---------------------------------------------------------------------
 Center     Atomic      Atomic             Coordinates (Angstroms)
 Number     Number       Type             X           Y           Z
 ---------------------------------------------------------------------
      1          6           0       -1.367046   -1.160382    0.073459
      2          1           0       -0.798429   -2.084038    0.137857
      3          6           0       -2.760794   -1.194426    0.041786
      4          1           0       -3.288057   -2.143696    0.083660
      5          6           0       -3.460063    0.013780   -0.023768
      6          1           0       -4.545196    0.041140   -0.043951
      7          6           0       -2.721297    1.201462   -0.063951
      8          1           0       -3.228509    2.163575   -0.109426
      9          7           0       -1.381105    1.252678   -0.046643
     10          6           0       -0.707677    0.081322    0.005612
     11          6           0        1.496857    1.368781    0.078251
     12          1           0        1.019098    2.340309    0.124982
     13          6           0        2.892402    1.137700    0.029418
     14          1           0        3.645442    1.917999    0.047969
     15          6           0        3.203309   -0.208648   -0.045176
     16          1           0        4.180984   -0.672389   -0.077232
     17         16           0        1.793758   -1.182975   -0.051246
     18          6           0        0.754688    0.193069    0.068131
 ---------------------------------------------------------------------

 SCF Done:  E(RHF) =  -797.359439130     A.U. after    2 cycles

 The electronic state is 1-A.
 Alpha  occ. eigenvalues --  -93.98128 -15.50787 -11.30092 -11.28701 -11.27670
 Alpha  occ. eigenvalues --  -11.27347 -11.27226 -11.25340 -11.25104 -11.25020
 Alpha  occ. eigenvalues --  -11.24787  -8.26351  -6.24123  -6.24029  -6.23823
 Alpha  occ. eigenvalues --   -1.26166  -1.19010  -1.09272  -1.06198  -1.00992
 Alpha  occ. eigenvalues --   -0.97996  -0.88032  -0.87499  -0.78075  -0.76471
 Alpha  occ. eigenvalues --   -0.72632  -0.69742  -0.68173  -0.64682  -0.60191
 Alpha  occ. eigenvalues --   -0.59294  -0.57794  -0.56718  -0.54580  -0.53924
 Alpha  occ. eigenvalues --   -0.52837  -0.48678  -0.45821  -0.40967  -0.38725
 Alpha  occ. eigenvalues --   -0.35650  -0.30286
 Alpha virt. eigenvalues --    0.03226   0.03528   0.03868   0.04377   0.04562
 Alpha virt. eigenvalues --    0.05031   0.06722   0.07228   0.08030   0.09110
 Alpha virt. eigenvalues --    0.10482   0.11192   0.11230   0.11584   0.12192

 Mulliken charges:
               1
     1  C    1.162845
     2  H   -0.205212
     3  C   -0.455059
     4  H   -0.190004
     5  C    0.821605
     6  H   -0.192262
     7  C   -0.962922
     8  H   -0.225728
     9  N    1.623589
    10  C   -1.897461
    11  C    0.117033
    12  H   -0.218385
    13  C    0.212079
    14  H   -0.137249
    15  C   -0.718934
    16  H   -0.196502
    17  S    0.712626
    18  C    0.749941
 Sum of Mulliken charges =   0.00000

 Dipole moment (field-independent basis, Debye):
    X=             -0.7542    Y=             -1.2464    Z=              0.0674  Tot=              1.4584

 Test job not archived.
 1\1\GINC-SE074\SP\RHF\Aug-CC-pVDZ\C9H7N1S1\OHZDE\09-Apr-2025\0\\#t hf
 aug-cc-pvdz iop(5/13=1,5/36=2,99/5=2) pseudo=read geom=check guess=(re
 ad,tcheck) scf=(maxcycle=1)\\title\\0,1\C,0,30.1792,-8.353,-0.0021\H,0
 ,30.7313,-7.4172,-0.0109\C,0,28.7847,-8.3457,0.0015\H,0,28.2404,-7.405
 2,-0.0069\C,0,28.1074,-9.5681,-0.0047\H,0,27.0228,-9.616,-0.0089\C,0,2
 8.8677,-10.7428,-0.0047\H,0,28.3781,-11.715,-0.0153\N,0,30.2087,-10.76
 89,0.0041\C,0,30.8606,-9.5844,0.0213\C,0,33.0903,-10.8269,-0.0649\H,0,
 32.6322,-11.8036,-0.1674\C,0,34.4799,-10.5732,0.0244\H,0,35.2479,-11.3

 Normal termination of Gaussian 16 at Wed Apr  9 02:29:19 2025.
