 Gaussian 16, Revision C.01,

 ----------------------------------------------------------------------
 #t hf aug-cc-pvdz symm=none int=(grid=ultrafine) guess=(read,tcheck) s
 table=(opt,rrhf)
 ----------------------------------------------------------------------
 -----
 title
 -----
 Symbolic Z-matrix:
 Charge =  0 Multiplicity = 1

 SCF Done:  E(RHF) =  -774.172786848     A.U. after   16 cycles
 Normal termination of Gaussian 16 at Wed Apr  9 02:26:03 2025.
 Gaussian 16:  ES64L-G16RevC.01  3-Jul-2019

 ----------------------------------------------------------------------
 #t hf aug-cc-pvdz iop(5/13=1,5/36=2,99/5=2) pseudo=read geom=check gue
 ss=(read,tcheck) scf=(maxcycle=1)
 ----------------------------------------------------------------------
 -----
 title
 -----
 Structure from the checkpoint file:  "DCONF_42_-70_mol1.chk"
 Charge =  0 Multiplicity = 1

                         Standard orientation:
 ---------------------------------------------------------------------
 Center     Atomic      Atomic             Coordinates (Angstroms)
 Number     Number       Type             X           Y           Z
 ---------------------------------------------------------------------
      1          6           0       -2.144661   -0.025246   -0.004265
      2          7           0       -1.025150   -0.502272   -0.681629
      3          1           0       -1.223392   -1.054055   -1.507776
      4          7           0        0.762232    1.109268   -0.728559
      5          6           0        2.064743    1.210062   -0.326201
      6          1           0        2.607700    2.131571   -0.500699
      7          6           0        2.598022    0.085819    0.274824
      8          1           0        3.603761   -0.062047    0.645217
      9         16           0        1.412766   -1.141669    0.357714
     10          6           0        0.285599   -0.085300   -0.432708
     11          8           0       -3.264617   -0.352311   -0.356394
     12          6           0       -1.852311    0.891732    1.161277
     13          1           0       -1.111762    0.451233    1.834808
     14          1           0       -2.784097    1.069217    1.696820
     15          1           0       -1.447456    1.837900    0.793107
 ---------------------------------------------------------------------

 SCF Done:  E(RHF) =  -774.609153603     A.U. after    2 cycles

 The electronic state is 1-A.
 Alpha  occ. eigenvalues --  -94.00972 -20.52225 -15.54863 -15.53226 -11.37460
 Alpha  occ. eigenvalues --  -11.36628 -11.29493 -11.29189 -11.24955  -8.29213
 Alpha  occ. eigenvalues --   -6.26951  -6.26868  -6.26658  -1.46721  -1.32269
 Alpha  occ. eigenvalues --   -1.24521  -1.11633  -1.03120  -1.01233  -0.87458
 Alpha  occ. eigenvalues --   -0.84448  -0.80349  -0.74536  -0.69268  -0.67521
 Alpha  occ. eigenvalues --   -0.64893  -0.61149  -0.60328  -0.59543  -0.57306
 Alpha  occ. eigenvalues --   -0.54588  -0.53504  -0.49361  -0.44864  -0.43497
 Alpha  occ. eigenvalues --   -0.42955  -0.36200
 Alpha virt. eigenvalues --    0.02905   0.03816   0.04293   0.04737   0.05893
 Alpha virt. eigenvalues --    0.06331   0.07101   0.07454   0.09158   0.09661
 Alpha virt. eigenvalues --    0.10472   0.11950   0.12191   0.12504   0.12825

 Mulliken charges:
               1
     1  C    0.817767
     2  N    0.923490
     3  H    0.262610
     4  N    0.903854
     5  C   -0.163606
     6  H   -0.121661
     7  C    0.024195
     8  H   -0.133236
     9  S    0.739980
    10  C   -2.250165
    11  O   -1.293801
    12  C   -0.428476
    13  H    0.302034
    14  H    0.063880
    15  H    0.353135
 Sum of Mulliken charges =  -0.00000

 Dipole moment (field-independent basis, Debye):
    X=              4.3946    Y=             -0.3518    Z=              1.5915  Tot=              4.6871

 Test job not archived.
 1\1\GINC-SE070\SP\RHF\Aug-CC-pVDZ\C5H6N2O1S1\OHZDE\09-Apr-2025\0\\#t h
 f aug-cc-pvdz iop(5/13=1,5/36=2,99/5=2) pseudo=read geom=check guess=(
 read,tcheck) scf=(maxcycle=1)\\title\\0,1\C,0,28.4559,-16.8332,-1.1058
 \N,0,29.3139,-16.8435,-0.0088\H,0,28.908,-16.5155,0.8595\N,0,30.7473,-
 18.7772,0.0042\C,0,32.0836,-19.0649,-0.0067\H,0,32.4071,-20.0992,-0.00
 83\C,0,32.9341,-17.9758,0.0003\H,0,34.0159,-17.9712,0.0162\S,0,32.0222
 ,-16.5312,0.0001\C,0,30.5631,-17.4704,0.0109\O,0,27.3354,-16.3639,-1.0
 083\C,0,29.0226,-17.4278,-2.3747\H,0,30.0035,-17.0033,-2.6065\H,0,28.3

 Normal termination of Gaussian 16 at Wed Apr  9 02:26:10 2025.
