 Gaussian 16, Revision C.01,

 ----------------------------------------------------------------------
 #t hf aug-cc-pvdz symm=none int=(grid=ultrafine) guess=(read,tcheck) s
 table=(opt,rrhf)
 ----------------------------------------------------------------------
 -----
 title
 -----
 Symbolic Z-matrix:
 Charge =  0 Multiplicity = 1

 SCF Done:  E(RHF) =  -774.182580187     A.U. after   16 cycles
 Normal termination of Gaussian 16 at Wed Apr  9 02:26:03 2025.
 Gaussian 16:  ES64L-G16RevC.01  3-Jul-2019

 ----------------------------------------------------------------------
 #t hf aug-cc-pvdz iop(5/13=1,5/36=2,99/5=2) pseudo=read geom=check gue
 ss=(read,tcheck) scf=(maxcycle=1)
 ----------------------------------------------------------------------
 -----
 title
 -----
 Structure from the checkpoint file:  "DCONF_42_-160_mol1.chk"
 Charge =  0 Multiplicity = 1

                         Standard orientation:
 ---------------------------------------------------------------------
 Center     Atomic      Atomic             Coordinates (Angstroms)
 Number     Number       Type             X           Y           Z
 ---------------------------------------------------------------------
      1          6           0       -1.989952   -0.110180    0.007700
      2          7           0       -0.963408    0.783327   -0.237049
      3          1           0       -1.159697    1.776767   -0.218154
      4          7           0        1.268980    1.461682    0.046241
      5          6           0        2.531594    0.930845    0.135588
      6          1           0        3.378084    1.595764    0.258616
      7          6           0        2.603136   -0.440828    0.071875
      8          1           0        3.478344   -1.072213    0.145815
      9         16           0        1.031295   -1.116492   -0.101622
     10          6           0        0.391828    0.489285   -0.086817
     11          8           0       -1.781602   -1.306106    0.150697
     12          6           0       -3.363909    0.517109    0.077885
     13          1           0       -3.432030    1.434952   -0.510568
     14          1           0       -4.097180   -0.206115   -0.279804
     15          1           0       -3.590616    0.751122    1.122735
 ---------------------------------------------------------------------

 SCF Done:  E(RHF) =  -774.619465802     A.U. after    2 cycles

 The electronic state is 1-A.
 Alpha  occ. eigenvalues --  -93.99066 -20.53509 -15.56540 -15.50643 -11.38678
 Alpha  occ. eigenvalues --  -11.35880 -11.27704 -11.26693 -11.26390  -8.27213
 Alpha  occ. eigenvalues --   -6.24949  -6.24854  -6.24631  -1.48067  -1.31669
 Alpha  occ. eigenvalues --   -1.24644  -1.09567  -1.05361  -0.99229  -0.88454
 Alpha  occ. eigenvalues --   -0.82806  -0.80143  -0.72197  -0.70395  -0.66582
 Alpha  occ. eigenvalues --   -0.65777  -0.62045  -0.60638  -0.58835  -0.58341
 Alpha  occ. eigenvalues --   -0.54651  -0.52129  -0.47759  -0.47456  -0.44467
 Alpha  occ. eigenvalues --   -0.40885  -0.33118
 Alpha virt. eigenvalues --    0.02890   0.04049   0.04644   0.04802   0.04887
 Alpha virt. eigenvalues --    0.06580   0.08683   0.09260   0.09462   0.10842
 Alpha virt. eigenvalues --    0.10994   0.11612   0.12754   0.13052   0.13437

 Mulliken charges:
               1
     1  C    0.816791
     2  N    0.746892
     3  H    0.132652
     4  N    0.884779
     5  C   -0.004211
     6  H   -0.113295
     7  C   -0.059624
     8  H   -0.160756
     9  S    0.782967
    10  C   -2.092878
    11  O   -1.287456
    12  C   -0.294193
    13  H    0.163074
    14  H    0.200976
    15  H    0.284280
 Sum of Mulliken charges =  -0.00000

 Dipole moment (field-independent basis, Debye):
    X=             -1.2656    Y=              1.4417    Z=             -0.0351  Tot=              1.9187

 Test job not archived.
 1\1\GINC-SE208\SP\RHF\Aug-CC-pVDZ\C5H6N2O1S1\OHZDE\09-Apr-2025\0\\#t h
 f aug-cc-pvdz iop(5/13=1,5/36=2,99/5=2) pseudo=read geom=check guess=(
 read,tcheck) scf=(maxcycle=1)\\title\\0,1\C,0,29.0098,-15.5972,-0.3758
 \N,0,29.3067,-16.89,0.0148\H,0,28.5688,-17.5837,0.0245\N,0,30.7346,-18
 .7567,-0.0077\C,0,32.0722,-19.0643,0.0055\H,0,32.3765,-20.1041,0.0013\
 C,0,32.9274,-17.9876,0.0093\H,0,34.009,-17.9885,-0.0063\S,0,32.039,-16
 .5153,-0.0103\C,0,30.5844,-17.449,-0.0116\O,0,29.8844,-14.7623,-0.555\
 C,0,27.5343,-15.3192,-0.5541\H,0,26.9116,-15.9658,0.0684\H,0,27.3431,-

 Normal termination of Gaussian 16 at Wed Apr  9 02:26:10 2025.
