 Gaussian 16, Revision C.01,

 ----------------------------------------------------------------------
 #t hf aug-cc-pvdz symm=none int=(grid=ultrafine) guess=(read,tcheck) s
 table=(opt,rrhf)
 ----------------------------------------------------------------------
 -----
 title
 -----
 Symbolic Z-matrix:
 Charge =  0 Multiplicity = 1

 SCF Done:  E(RHF) =  -453.940158646     A.U. after   11 cycles
 Normal termination of Gaussian 16 at Wed Apr  9 02:19:54 2025.
 Gaussian 16:  ES64L-G16RevC.01  3-Jul-2019

 ----------------------------------------------------------------------
 #t hf aug-cc-pvdz iop(5/13=1,5/36=2,99/5=2) pseudo=read geom=check gue
 ss=(read,tcheck) scf=(maxcycle=1)
 ----------------------------------------------------------------------
 -----
 title
 -----
 Structure from the checkpoint file:  "DCONF_10_-100_mol1.chk"
 Charge =  0 Multiplicity = 1

                         Standard orientation:
 ---------------------------------------------------------------------
 Center     Atomic      Atomic             Coordinates (Angstroms)
 Number     Number       Type             X           Y           Z
 ---------------------------------------------------------------------
      1          6           0        0.467290   -0.602574   -0.055241
      2          1           0        0.564160   -1.317011    0.766413
      3          1           0        0.552164   -1.162171   -0.991454
      4          6           0        1.570132    0.456180   -0.000510
      5          1           0        1.472704    1.121380   -0.862700
      6          1           0        1.444818    1.074446    0.894862
      7          6           0        2.952540   -0.195417    0.007148
      8          1           0        3.098234   -0.809512   -0.887338
      9          1           0        3.076112   -0.840188    0.882772
     10          1           0        3.741579    0.560775    0.029834
     11          6           0       -0.939740   -0.038245   -0.001107
     12          9           0       -1.007114    1.255169   -0.364599
     13          9           0       -1.773393   -0.715674   -0.820706
     14          9           0       -1.469616   -0.133649    1.237067
 ---------------------------------------------------------------------

 SCF Done:  E(RHF) =  -454.381059006     A.U. after    2 cycles

 The electronic state is 1-A.
 Alpha  occ. eigenvalues --  -26.49817 -26.49481 -26.49355 -11.50889 -11.26476
 Alpha  occ. eigenvalues --  -11.25117 -11.24018  -1.70494  -1.60472  -1.59995
 Alpha  occ. eigenvalues --   -1.10678  -1.00704  -0.90905  -0.84351  -0.80173
 Alpha  occ. eigenvalues --   -0.79683  -0.76217  -0.68703  -0.67850  -0.65553
 Alpha  occ. eigenvalues --   -0.62795  -0.62331  -0.60949  -0.60388  -0.57285
 Alpha  occ. eigenvalues --   -0.56255  -0.51662  -0.50886  -0.50041
 Alpha virt. eigenvalues --    0.03418   0.04003   0.04199   0.05131   0.07027
 Alpha virt. eigenvalues --    0.07221   0.07923   0.09005   0.11238   0.13199
 Alpha virt. eigenvalues --    0.13677   0.13759   0.15148   0.15550   0.16658

 Mulliken charges:
               1
     1  C   -0.737499
     2  H    0.154158
     3  H    0.166003
     4  C   -0.280338
     5  H    0.163512
     6  H    0.131875
     7  C   -0.433599
     8  H    0.182888
     9  H    0.174649
    10  H    0.122481
    11  C    2.764528
    12  F   -0.826730
    13  F   -0.790101
    14  F   -0.791827
 Sum of Mulliken charges =  -0.00000

 Dipole moment (field-independent basis, Debye):
    X=              2.5672    Y=             -0.5956    Z=             -0.0998  Tot=              2.6373

 Test job not archived.
 1\1\GINC-SE131\SP\RHF\Aug-CC-pVDZ\C4H7F3\OHZDE\09-Apr-2025\0\\#t hf au
 g-cc-pvdz iop(5/13=1,5/36=2,99/5=2) pseudo=read geom=check guess=(read
 ,tcheck) scf=(maxcycle=1)\\title\\0,1\C,0,-0.1421,0.0053,0.1881\H,0,0.
 1048,-0.6029,1.0622\H,0,0.1606,-0.5557,-0.701\C,0,0.6013,1.342,0.2165\
 H,0,0.3707,1.9008,-0.6945\H,0,0.2456,1.9449,1.0589\C,0,2.1097,1.1254,0
 .3327\H,0,2.4836,0.5325,-0.5082\H,0,2.3585,0.5945,1.2568\H,0,2.643,2.0
 796,0.3367\C,0,-1.6527,0.1348,0.1386\F,0,-2.0682,1.3296,-0.319\F,0,-2.
 2006,-0.8013,-0.6671\F,0,-2.2101,-0.0431,1.3554\\Version=ES64L-G16RevC

 Normal termination of Gaussian 16 at Wed Apr  9 02:19:58 2025.
