 Gaussian 16, Revision C.01,

 ----------------------------------------------------------------------
 #t hf aug-cc-pvdz symm=none int=(grid=ultrafine) guess=(read,tcheck) s
 table=(opt,rrhf)
 ----------------------------------------------------------------------
 -----
 title
 -----
 Symbolic Z-matrix:
 Charge =  0 Multiplicity = 1

 SCF Done:  E(RHF) =  -812.898070409     A.U. after   16 cycles
 Normal termination of Gaussian 16 at Wed Apr  9 02:30:07 2025.
 Gaussian 16:  ES64L-G16RevC.01  3-Jul-2019

 ----------------------------------------------------------------------
 #t hf aug-cc-pvdz iop(5/13=1,5/36=2,99/5=2) pseudo=read geom=check gue
 ss=(read,tcheck) scf=(maxcycle=1)
 ----------------------------------------------------------------------
 -----
 title
 -----
 Structure from the checkpoint file:  "DCONF_56_-120_mol1.chk"
 Charge =  0 Multiplicity = 1

                         Standard orientation:
 ---------------------------------------------------------------------
 Center     Atomic      Atomic             Coordinates (Angstroms)
 Number     Number       Type             X           Y           Z
 ---------------------------------------------------------------------
      1          6           0       -1.469995    1.133524   -0.541572
      2          1           0       -0.979291    2.005890   -0.962445
      3          6           0       -2.860066    1.022853   -0.491249
      4          1           0       -3.493172    1.813264   -0.885206
      5          6           0       -3.417770   -0.128402    0.073826
      6          1           0       -4.493666   -0.261844    0.136683
      7          6           0       -2.557915   -1.114121    0.570292
      8          1           0       -2.958039   -2.018611    1.023905
      9          7           0       -1.216896   -1.021144    0.542974
     10          6           0       -0.693852    0.086858   -0.020137
     11          7           0        1.402485    1.220730    0.609895
     12          6           0        2.754328    1.017163    0.572091
     13          1           0        3.418596    1.752729    1.011496
     14          6           0        3.164765   -0.156421   -0.030991
     15          1           0        4.173948   -0.518866   -0.176068
     16         16           0        1.804438   -1.039978   -0.569645
     17          6           0        0.774086    0.216876    0.017054
 ---------------------------------------------------------------------

 SCF Done:  E(RHF) =  -813.371463169     A.U. after    2 cycles

 The electronic state is 1-A.
 Alpha  occ. eigenvalues --  -93.99072 -15.51972 -15.51519 -11.31900 -11.30303
 Alpha  occ. eigenvalues --  -11.29181 -11.27754 -11.27678 -11.27437 -11.26040
 Alpha  occ. eigenvalues --  -11.26025  -8.27307  -6.25052  -6.24965  -6.24757
 Alpha  occ. eigenvalues --   -1.29209  -1.26189  -1.10017  -1.09447  -1.07216
 Alpha  occ. eigenvalues --   -1.00130  -0.89290  -0.88478  -0.82143  -0.78588
 Alpha  occ. eigenvalues --   -0.72852  -0.70636  -0.69215  -0.65396  -0.61985
 Alpha  occ. eigenvalues --   -0.60856  -0.59860  -0.57520  -0.56050  -0.54744
 Alpha  occ. eigenvalues --   -0.51818  -0.47905  -0.46067  -0.41497  -0.40735
 Alpha  occ. eigenvalues --   -0.37636  -0.33336
 Alpha virt. eigenvalues --    0.03097   0.03752   0.03832   0.04370   0.05006
 Alpha virt. eigenvalues --    0.05671   0.06568   0.07718   0.08111   0.09841
 Alpha virt. eigenvalues --    0.10046   0.10405   0.10803   0.11198   0.11744

 Mulliken charges:
               1
     1  C    0.995549
     2  H   -0.184353
     3  C   -0.229577
     4  H   -0.156986
     5  C    0.786567
     6  H   -0.185407
     7  C   -0.805001
     8  H   -0.206360
     9  N    1.525634
    10  C   -1.041060
    11  N    1.201065
    12  C   -0.173170
    13  H   -0.120697
    14  C   -0.014738
    15  H   -0.135907
    16  S    0.547339
    17  C   -1.802898
 Sum of Mulliken charges =  -0.00000

 Dipole moment (field-independent basis, Debye):
    X=             -1.2480    Y=              0.2904    Z=             -1.6667  Tot=              2.1023

 Test job not archived.
 1\1\GINC-SE116\SP\RHF\Aug-CC-pVDZ\C8H6N2S1\OHZDE\09-Apr-2025\0\\#t hf
 aug-cc-pvdz iop(5/13=1,5/36=2,99/5=2) pseudo=read geom=check guess=(re
 ad,tcheck) scf=(maxcycle=1)\\title\\0,1\C,0,30.1275,-21.0949,-0.0154\H
 ,0,30.7105,-20.1789,-0.0137\C,0,28.7324,-21.0802,0.0082\H,0,28.1886,-2
 0.1395,0.02\C,0,28.0522,-22.3021,0.0128\H,0,26.9672,-22.3439,0.0312\C,
 0,28.8002,-23.4844,0.0013\H,0,28.3034,-24.4524,0.0128\N,0,30.1442,-23.
 5203,-0.0086\C,0,30.7857,-22.3344,-0.03\N,0,32.9646,-21.8097,0.9968\C,
 0,34.2911,-22.106,0.8453\H,0,35.0116,-21.7114,1.5528\C,0,34.602,-22.92

 Normal termination of Gaussian 16 at Wed Apr  9 02:30:18 2025.
