 Gaussian 16, Revision C.01,

 ----------------------------------------------------------------------
 #t hf aug-cc-pvdz symm=none int=(grid=ultrafine) guess=(read,tcheck) s
 table=(opt,rrhf)
 ----------------------------------------------------------------------
 -----
 title
 -----
 Symbolic Z-matrix:
 Charge =  0 Multiplicity = 1

 SCF Done:  E(RHF) =  -911.012836435     A.U. after   16 cycles
 Normal termination of Gaussian 16 at Wed Apr  9 02:26:46 2025.
 Gaussian 16:  ES64L-G16RevC.01  3-Jul-2019

 ----------------------------------------------------------------------
 #t hf aug-cc-pvdz iop(5/13=1,5/36=2,99/5=2) pseudo=read geom=check gue
 ss=(read,tcheck) scf=(maxcycle=1)
 ----------------------------------------------------------------------
 -----
 title
 -----
 Structure from the checkpoint file:  "DCONF_30_0_mol1.chk"
 Charge =  0 Multiplicity = 1

                         Standard orientation:
 ---------------------------------------------------------------------
 Center     Atomic      Atomic             Coordinates (Angstroms)
 Number     Number       Type             X           Y           Z
 ---------------------------------------------------------------------
      1          6           0        2.359351    1.593796    0.000000
      2          1           0        2.585877    2.656591   -0.000065
      3          6           0        1.024141    1.170125    0.000071
      4          1           0        0.221134    1.899207   -0.000042
      5          6           0        0.742134   -0.199141   -0.000032
      6         16           0       -0.938911   -0.807775   -0.000072
      7          7           0       -1.931519    0.510979    0.000075
      8          6           0       -2.210122    1.230154   -1.238297
      9          1           0       -1.961418    0.598237   -2.090813
     10          1           0       -1.644242    2.169547   -1.298817
     11          1           0       -3.279621    1.461337   -1.276184
     12          6           0       -2.210106    1.230032    1.238294
     13          1           0       -1.961744    0.597875    2.091024
     14          1           0       -3.279643    1.461451    1.276219
     15          1           0       -1.643955    2.169497    1.299095
     16          6           0        1.771977   -1.150077   -0.000031
     17          1           0        1.532856   -2.210036   -0.000052
     18          6           0        3.099656   -0.715450    0.000024
     19          1           0        3.903432   -1.446408   -0.000144
     20          6           0        3.395869    0.654748    0.000034
     21          1           0        4.430146    0.987176    0.000043
     22          8           0       -1.137283   -1.492692    1.266950
     23          8           0       -1.137343   -1.492564   -1.266952
 ---------------------------------------------------------------------

 SCF Done:  E(RHF) =  -911.600123861     A.U. after    2 cycles

 The electronic state is 1-A.
 Alpha  occ. eigenvalues --  -94.21134 -20.53150 -20.53146 -15.53858 -11.28664
 Alpha  occ. eigenvalues --  -11.28305 -11.28288 -11.27738 -11.27281 -11.27033
 Alpha  occ. eigenvalues --  -11.26845 -11.26676  -8.45952  -6.44080  -6.43925
 Alpha  occ. eigenvalues --   -6.43794  -1.55495  -1.43191  -1.26292  -1.18067
 Alpha  occ. eigenvalues --   -1.06444  -1.04140  -0.99457  -0.98450  -0.88568
 Alpha  occ. eigenvalues --   -0.86196  -0.80825  -0.75706  -0.72209  -0.69657
 Alpha  occ. eigenvalues --   -0.68443  -0.67366  -0.66351  -0.63647  -0.62679
 Alpha  occ. eigenvalues --   -0.62131  -0.58327  -0.58102  -0.56076  -0.56050
 Alpha  occ. eigenvalues --   -0.54187  -0.53349  -0.50446  -0.48846  -0.45770
 Alpha  occ. eigenvalues --   -0.45688  -0.43514  -0.37038  -0.36574
 Alpha virt. eigenvalues --    0.02414   0.03083   0.03724   0.04433   0.04599
 Alpha virt. eigenvalues --    0.05770   0.06410   0.06636   0.07292   0.07598
 Alpha virt. eigenvalues --    0.08009   0.08721   0.08731   0.09937   0.11620

 Mulliken charges:
               1
     1  C    0.221905
     2  H   -0.233668
     3  C   -0.253090
     4  H   -0.338209
     5  C    1.191483
     6  S    3.432169
     7  N    0.103140
     8  C   -0.362291
     9  H    0.086708
    10  H    0.181536
    11  H    0.136597
    12  C   -0.363703
    13  H    0.087283
    14  H    0.136617
    15  H    0.181819
    16  C   -0.939308
    17  H   -0.272821
    18  C    0.499128
    19  H   -0.205663
    20  C    0.088135
    21  H   -0.212565
    22  O   -1.582521
    23  O   -1.582682
 Sum of Mulliken charges =  -0.00000

 Dipole moment (field-independent basis, Debye):
    X=              2.1475    Y=              4.8636    Z=             -0.0015  Tot=              5.3166

 Test job not archived.
 1\1\GINC-SE340\SP\RHF\Aug-CC-pVDZ\C8H11N1O2S1\OHZDE\09-Apr-2025\0\\#t
 hf aug-cc-pvdz iop(5/13=1,5/36=2,99/5=2) pseudo=read geom=check guess=
 (read,tcheck) scf=(maxcycle=1)\\title\\0,1\C,0,3.078,-3.658,-0.7566\H,
 0,3.1074,-4.7441,-0.7758\C,0,1.8422,-2.9988,-0.7334\H,0,0.92,-3.5697,-
 0.7345\C,0,1.814,-1.6013,-0.7086\S,0,0.2718,-0.6974,-0.6781\N,0,-0.944
 1,-1.8136,-0.6862\C,0,-1.3371,-2.4917,0.5443\H,0,-0.9695,-1.9305,1.403
 3\H,0,-0.951,-3.5192,0.5832\H,0,-2.4304,-2.5253,0.592\C,0,-1.3606,-2.4
 483,-1.9318\H,0,-1.0095,-1.857,-2.7777\H,0,-2.4547,-2.4808,-1.9599\H,0

 Normal termination of Gaussian 16 at Wed Apr  9 02:27:02 2025.
