 Gaussian 16, Revision C.01,

 ----------------------------------------------------------------------
 #t hf aug-cc-pvdz symm=none int=(grid=ultrafine) guess=(read,tcheck) s
 table=(opt,rrhf)
 ----------------------------------------------------------------------
 -----
 title
 -----
 Symbolic Z-matrix:
 Charge =  0 Multiplicity = 1

 SCF Done:  E(RHF) =  -453.943408046     A.U. after   11 cycles
 Normal termination of Gaussian 16 at Wed Apr  9 02:20:25 2025.
 Gaussian 16:  ES64L-G16RevC.01  3-Jul-2019

 ----------------------------------------------------------------------
 #t hf aug-cc-pvdz iop(5/13=1,5/36=2,99/5=2) pseudo=read geom=check gue
 ss=(read,tcheck) scf=(maxcycle=1)
 ----------------------------------------------------------------------
 -----
 title
 -----
 Structure from the checkpoint file:  "DCONF_10_160_mol1.chk"
 Charge =  0 Multiplicity = 1

                         Standard orientation:
 ---------------------------------------------------------------------
 Center     Atomic      Atomic             Coordinates (Angstroms)
 Number     Number       Type             X           Y           Z
 ---------------------------------------------------------------------
      1          6           0       -0.455973    0.619326   -0.034384
      2          1           0       -0.526514    1.221057   -0.945955
      3          1           0       -0.555174    1.295614    0.819872
      4          6           0       -1.552868   -0.445985   -0.032991
      5          1           0       -1.416221   -1.110744    0.827105
      6          1           0       -1.456551   -1.060160   -0.932291
      7          6           0       -2.940519    0.192773    0.020259
      8          1           0       -3.064324    0.783374    0.933244
      9          1           0       -3.095585    0.857313   -0.835746
     10          1           0       -3.723506   -0.569757    0.001851
     11          6           0        0.938400    0.047398    0.006745
     12          9           0        1.063315   -1.038375   -0.785370
     13          9           0        1.293137   -0.332701    1.250132
     14          9           0        1.855063    0.937990   -0.423190
 ---------------------------------------------------------------------

 SCF Done:  E(RHF) =  -454.384442390     A.U. after    2 cycles

 The electronic state is 1-A.
 Alpha  occ. eigenvalues --  -26.49712 -26.49581 -26.49499 -11.50804 -11.26497
 Alpha  occ. eigenvalues --  -11.25067 -11.24016  -1.70481  -1.60409  -1.60164
 Alpha  occ. eigenvalues --   -1.10828  -1.00814  -0.90843  -0.84434  -0.80317
 Alpha  occ. eigenvalues --   -0.79645  -0.76080  -0.68837  -0.67871  -0.65412
 Alpha  occ. eigenvalues --   -0.62777  -0.62394  -0.61030  -0.60454  -0.57309
 Alpha  occ. eigenvalues --   -0.56480  -0.51593  -0.50939  -0.50122
 Alpha virt. eigenvalues --    0.03429   0.03984   0.04209   0.05153   0.07049
 Alpha virt. eigenvalues --    0.07232   0.07879   0.09055   0.11081   0.13230
 Alpha virt. eigenvalues --    0.13684   0.13912   0.15152   0.15580   0.16616

 Mulliken charges:
               1
     1  C   -0.761468
     2  H    0.160922
     3  H    0.167256
     4  C   -0.312798
     5  H    0.132538
     6  H    0.154626
     7  C   -0.414545
     8  H    0.170221
     9  H    0.183782
    10  H    0.121477
    11  C    2.783191
    12  F   -0.810305
    13  F   -0.788930
    14  F   -0.785967
 Sum of Mulliken charges =  -0.00000

 Dipole moment (field-independent basis, Debye):
    X=             -2.5099    Y=              0.6859    Z=             -0.0558  Tot=              2.6025

 Test job not archived.
 1\1\GINC-SE143\SP\RHF\Aug-CC-pVDZ\C4H7F3\OHZDE\09-Apr-2025\0\\#t hf au
 g-cc-pvdz iop(5/13=1,5/36=2,99/5=2) pseudo=read geom=check guess=(read
 ,tcheck) scf=(maxcycle=1)\\title\\0,1\C,0,-0.1434,0.0056,0.188\H,0,0.1
 34,-0.5531,-0.7114\H,0,0.1099,-0.6116,1.0551\C,0,0.6016,1.3406,0.2166\
 H,0,0.245,1.9406,1.0611\H,0,0.3707,1.899,-0.6945\C,0,2.1106,1.1265,0.3
 328\H,0,2.3605,0.5986,1.2583\H,0,2.4846,0.532,-0.5069\H,0,2.6426,2.081
 4,0.3338\C,0,-1.6436,0.154,0.1668\F,0,-2.0413,1.1563,-0.6451\F,0,-2.14
 33,0.4198,1.3899\F,0,-2.2484,-0.9631,-0.2855\\Version=ES64L-G16RevC.01

 Normal termination of Gaussian 16 at Wed Apr  9 02:20:30 2025.
