 Gaussian 16, Revision C.01,

 ----------------------------------------------------------------------
 #t hf aug-cc-pvdz symm=none int=(grid=ultrafine) guess=(read,tcheck) s
 table=(opt,rrhf)
 ----------------------------------------------------------------------
 -----
 title
 -----
 Symbolic Z-matrix:
 Charge =  0 Multiplicity = 1

 SCF Done:  E(RHF) =  -719.119352136     A.U. after   16 cycles
 Normal termination of Gaussian 16 at Wed Apr  9 02:22:41 2025.
 Gaussian 16:  ES64L-G16RevC.01  3-Jul-2019

 ----------------------------------------------------------------------
 #t hf aug-cc-pvdz iop(5/13=1,5/36=2,99/5=2) pseudo=read geom=check gue
 ss=(read,tcheck) scf=(maxcycle=1)
 ----------------------------------------------------------------------
 -----
 title
 -----
 Structure from the checkpoint file:  "DCONF_28_-30_mol1.chk"
 Charge =  0 Multiplicity = 1

                         Standard orientation:
 ---------------------------------------------------------------------
 Center     Atomic      Atomic             Coordinates (Angstroms)
 Number     Number       Type             X           Y           Z
 ---------------------------------------------------------------------
      1          8           0       -1.963114   -1.280345   -0.372174
      2          6           0       -2.506302    0.976273    0.286032
      3          1           0       -2.216653    1.893916   -0.230880
      4          1           0       -3.534076    0.697787    0.050555
      5          1           0       -2.408163    1.164131    1.360586
      6          6           0       -1.580896   -0.154389   -0.082842
      7          7           0        0.400225    1.346049   -0.178373
      8          6           0        1.759607    1.271112   -0.162538
      9          1           0        2.350607    2.169965   -0.296533
     10          6           0        2.282795    0.002310    0.027030
     11          1           0        3.323321   -0.287168    0.095595
     12         16           0        1.025081   -1.139437    0.173564
     13          6           0       -0.124037    0.140157    0.010592
 ---------------------------------------------------------------------

 SCF Done:  E(RHF) =  -719.498602475     A.U. after    2 cycles

 The electronic state is 1-A.
 Alpha  occ. eigenvalues --  -94.00802 -20.55278 -15.53835 -11.36304 -11.32697
 Alpha  occ. eigenvalues --  -11.29448 -11.29223 -11.25012  -8.28996  -6.26730
 Alpha  occ. eigenvalues --   -6.26646  -6.26448  -1.47884  -1.30404  -1.11365
 Alpha  occ. eigenvalues --   -1.06295  -1.00867  -0.87529  -0.83212  -0.74967
 Alpha  occ. eigenvalues --   -0.71400  -0.65757  -0.64099  -0.62946  -0.59870
 Alpha  occ. eigenvalues --   -0.58736  -0.55990  -0.53493  -0.50948  -0.49579
 Alpha  occ. eigenvalues --   -0.43472  -0.42448  -0.35884
 Alpha virt. eigenvalues --    0.03034   0.03800   0.03992   0.04412   0.05474
 Alpha virt. eigenvalues --    0.06261   0.07459   0.09291   0.10234   0.10746
 Alpha virt. eigenvalues --    0.11162   0.12176   0.12783   0.12839   0.13655

 Mulliken charges:
               1
     1  O   -1.359027
     2  C   -0.443150
     3  H    0.296829
     4  H    0.132709
     5  H    0.307472
     6  C    1.467414
     7  N    0.994655
     8  C   -0.165494
     9  H   -0.098750
    10  C   -0.101284
    11  H   -0.132914
    12  S    0.648885
    13  C   -1.547344
 Sum of Mulliken charges =  -0.00000

 Dipole moment (field-independent basis, Debye):
    X=              2.2077    Y=              1.1054    Z=              1.0016  Tot=              2.6644

 Test job not archived.
 1\1\GINC-SE092\SP\RHF\Aug-CC-pVDZ\C5H5N1O1S1\OHZDE\09-Apr-2025\0\\#t h
 f aug-cc-pvdz iop(5/13=1,5/36=2,99/5=2) pseudo=read geom=check guess=(
 read,tcheck) scf=(maxcycle=1)\\title\\0,1\O,0,21.7614,-16.6433,0.4703\
 C,0,21.0972,-18.7505,-0.4988\H,0,21.3087,-19.7461,-0.1023\H,0,20.0819,
 -18.4357,-0.2551\H,0,21.2207,-18.801,-1.5859\C,0,22.0801,-17.7447,0.04
 26\N,0,23.9557,-19.377,-0.0122\C,0,25.3168,-19.3941,0.0178\H,0,25.8435
 ,-20.3412,0.0454\C,0,25.9271,-18.1503,0.014\H,0,26.9859,-17.9264,0.012
 2\S,0,24.7516,-16.9156,-0.0109\C,0,23.5173,-18.1236,-0.0513\\Version=E

 Normal termination of Gaussian 16 at Wed Apr  9 02:22:47 2025.
