 Gaussian 16, Revision C.01,

 ----------------------------------------------------------------------
 #t hf aug-cc-pvdz symm=none int=(grid=ultrafine) guess=(read,tcheck) s
 table=(opt,rrhf)
 ----------------------------------------------------------------------
 -----
 title
 -----
 Symbolic Z-matrix:
 Charge =  0 Multiplicity = 1

 SCF Done:  E(RHF) =  -453.938382421     A.U. after   11 cycles
 Normal termination of Gaussian 16 at Wed Apr  9 02:19:53 2025.
 Gaussian 16:  ES64L-G16RevC.01  3-Jul-2019

 ----------------------------------------------------------------------
 #t hf aug-cc-pvdz iop(5/13=1,5/36=2,99/5=2) pseudo=read geom=check gue
 ss=(read,tcheck) scf=(maxcycle=1)
 ----------------------------------------------------------------------
 -----
 title
 -----
 Structure from the checkpoint file:  "DCONF_10_0_mol1.chk"
 Charge =  0 Multiplicity = 1

                         Standard orientation:
 ---------------------------------------------------------------------
 Center     Atomic      Atomic             Coordinates (Angstroms)
 Number     Number       Type             X           Y           Z
 ---------------------------------------------------------------------
      1          6           0       -0.472916   -0.603731    0.000431
      2          1           0       -0.571528   -1.243845   -0.880515
      3          1           0       -0.570934   -1.242462    0.882202
      4          6           0       -1.574187    0.458363   -0.000263
      5          1           0       -1.462769    1.101501    0.877920
      6          1           0       -1.462587    1.099945   -0.879524
      7          6           0       -2.956552   -0.193010    0.000046
      8          1           0       -3.090976   -0.823256    0.884938
      9          1           0       -3.092256   -0.821673   -0.885780
     10          1           0       -3.745445    0.563686    0.001268
     11          6           0        0.943326   -0.044820   -0.000269
     12          9           0        1.640567   -0.446426    1.083540
     13          9           0        1.641200   -0.448633   -1.082414
     14          9           0        0.980285    1.302313   -0.001146
 ---------------------------------------------------------------------

 SCF Done:  E(RHF) =  -454.379164019     A.U. after    2 cycles

 The electronic state is 1-A.
 Alpha  occ. eigenvalues --  -26.49609 -26.49494 -26.49476 -11.50944 -11.26470
 Alpha  occ. eigenvalues --  -11.25108 -11.24004  -1.70493  -1.60265  -1.60150
 Alpha  occ. eigenvalues --   -1.10580  -1.00624  -0.90934  -0.84254  -0.80132
 Alpha  occ. eigenvalues --   -0.79677  -0.76291  -0.68745  -0.67741  -0.65643
 Alpha  occ. eigenvalues --   -0.62718  -0.62367  -0.60911  -0.60375  -0.57101
 Alpha  occ. eigenvalues --   -0.56171  -0.51668  -0.50878  -0.50001
 Alpha virt. eigenvalues --    0.03419   0.04018   0.04200   0.05134   0.07029
 Alpha virt. eigenvalues --    0.07195   0.07955   0.08961   0.11308   0.13187
 Alpha virt. eigenvalues --    0.13641   0.13671   0.15156   0.15531   0.16678

 Mulliken charges:
               1
     1  C   -0.724043
     2  H    0.160765
     3  H    0.160022
     4  C   -0.260228
     5  H    0.149945
     6  H    0.150430
     7  C   -0.448459
     8  H    0.179478
     9  H    0.179115
    10  H    0.122361
    11  C    2.757054
    12  F   -0.793405
    13  F   -0.793255
    14  F   -0.839779
 Sum of Mulliken charges =  -0.00000

 Dipole moment (field-independent basis, Debye):
    X=             -2.5643    Y=             -0.6253    Z=             -0.0019  Tot=              2.6395

 Test job not archived.
 1\1\GINC-SE333\SP\RHF\Aug-CC-pVDZ\C4H7F3\OHZDE\09-Apr-2025\0\\#t hf au
 g-cc-pvdz iop(5/13=1,5/36=2,99/5=2) pseudo=read geom=check guess=(read
 ,tcheck) scf=(maxcycle=1)\\title\\0,1\C,0,-0.1412,0.0053,0.1881\H,0,0.
 0735,-0.5598,1.0992\H,0,0.2031,-0.5947,-0.6584\C,0,0.601,1.3429,0.2165
 \H,0,0.373,1.9072,-0.6928\H,0,0.2431,1.9416,1.0595\C,0,2.109,1.1246,0.
 3327\H,0,2.4858,0.5433,-0.5149\H,0,2.3554,0.5814,1.2506\H,0,2.642,2.07
 88,0.3515\C,0,-1.6547,0.1253,0.0739\F,0,-2.123,-0.4848,-1.0354\F,0,-2.
 2834,-0.4428,1.1242\F,0,-2.0812,1.4024,0.0169\\Version=ES64L-G16RevC.0

 Normal termination of Gaussian 16 at Wed Apr  9 02:19:58 2025.
