 Gaussian 16, Revision C.01,

 ----------------------------------------------------------------------
 #t hf aug-cc-pvdz symm=none int=(grid=ultrafine) guess=(read,tcheck) s
 table=(opt,rrhf)
 ----------------------------------------------------------------------
 -----
 title
 -----
 Symbolic Z-matrix:
 Charge =  0 Multiplicity = 1

 SCF Done:  E(RHF) =  -256.179695824     A.U. after   12 cycles
 Normal termination of Gaussian 16 at Wed Apr  9 02:31:23 2025.
 Gaussian 16:  ES64L-G16RevC.01  3-Jul-2019

 ----------------------------------------------------------------------
 #t hf aug-cc-pvdz iop(5/13=1,5/36=2,99/5=2) pseudo=read geom=check gue
 ss=(read,tcheck) scf=(maxcycle=1)
 ----------------------------------------------------------------------
 -----
 title
 -----
 Structure from the checkpoint file:  "DCONF_8_160_mol1.chk"
 Charge =  0 Multiplicity = 1

                         Standard orientation:
 ---------------------------------------------------------------------
 Center     Atomic      Atomic             Coordinates (Angstroms)
 Number     Number       Type             X           Y           Z
 ---------------------------------------------------------------------
      1          6           0       -0.044856   -0.348837    0.129056
      2          1           0       -0.113991   -1.088464   -0.677054
      3          1           0        0.040465   -0.901213    1.071189
      4          6           0        1.193031    0.522238   -0.095569
      5          1           0        1.116664    1.002098   -1.078550
      6          1           0        1.216286    1.329087    0.648231
      7          6           0        2.490056   -0.282935   -0.013944
      8          1           0        2.491981   -1.086443   -0.757110
      9          1           0        3.363449    0.349593   -0.195661
     10          1           0        2.601524   -0.738914    0.974730
     11          6           0       -1.322904    0.468909    0.116259
     12          1           0       -1.497745    0.977035    1.068706
     13          1           0       -1.296022    1.210864   -0.687886
     14          9           0       -2.423841   -0.356654   -0.131267
 ---------------------------------------------------------------------

 SCF Done:  E(RHF) =  -256.449014191     A.U. after    2 cycles

 The electronic state is 1-A.
 Alpha  occ. eigenvalues --  -26.43541 -11.31402 -11.23962 -11.23580 -11.23071
 Alpha  occ. eigenvalues --   -1.55484  -1.08724  -0.98804  -0.87179  -0.81262
 Alpha  occ. eigenvalues --   -0.69758  -0.66763  -0.64822  -0.63448  -0.58075
 Alpha  occ. eigenvalues --   -0.55893  -0.54222  -0.50394  -0.49229  -0.48318
 Alpha  occ. eigenvalues --   -0.47924
 Alpha virt. eigenvalues --    0.03578   0.03811   0.03896   0.04727   0.06526
 Alpha virt. eigenvalues --    0.06626   0.07082   0.07642   0.09724   0.11774
 Alpha virt. eigenvalues --    0.12665   0.13931   0.15137   0.15824   0.16436

 Mulliken charges:
               1
     1  C   -0.452592
     2  H    0.149139
     3  H    0.144094
     4  C   -0.357698
     5  H    0.109419
     6  H    0.144594
     7  C   -0.346667
     8  H    0.182253
     9  H    0.122416
    10  H    0.165890
    11  C    0.720942
    12  H    0.079329
    13  H    0.074240
    14  F   -0.735359
 Sum of Mulliken charges =  -0.00000

 Dipole moment (field-independent basis, Debye):
    X=              1.8631    Y=              1.0152    Z=              0.2993  Tot=              2.1428

 Test job not archived.
 1\1\GINC-SE404\SP\RHF\Aug-CC-pVDZ\C4H9F1\OHZDE\09-Apr-2025\0\\#t hf au
 g-cc-pvdz iop(5/13=1,5/36=2,99/5=2) pseudo=read geom=check guess=(read
 ,tcheck) scf=(maxcycle=1)\\title\\0,1\C,0,0.0304,-0.0335,-0.006\H,0,0.
 0803,-0.6089,0.9257\H,0,0.0044,-0.7528,-0.8318\C,0,-1.239,0.821,0.0007
 \H,0,-1.222,1.4763,0.8797\H,0,-1.2478,1.4755,-0.8804\C,0,-2.5093,-0.02
 95,0.0158\H,0,-2.5257,-0.6817,0.8946\H,0,-3.4065,0.5953,0.04\H,0,-2.56
 17,-0.6636,-0.8747\C,0,1.2847,0.816,-0.0918\H,0,1.4914,1.1454,-1.1139\
 H,0,1.2003,1.6922,0.5586\F,0,2.3937,0.0886,0.3508\\Version=ES64L-G16Re

 Normal termination of Gaussian 16 at Wed Apr  9 02:31:28 2025.
