 Gaussian 16, Revision C.01,

 ----------------------------------------------------------------------
 #t hf aug-cc-pvdz symm=none int=(grid=ultrafine) guess=(read,tcheck) s
 table=(opt,rrhf)
 ----------------------------------------------------------------------
 -----
 title
 -----
 Symbolic Z-matrix:
 Charge =  0 Multiplicity = 1

 SCF Done:  E(RHF) =  -217.136757683     A.U. after   12 cycles
 Normal termination of Gaussian 16 at Wed Apr  9 02:30:10 2025.
 Gaussian 16:  ES64L-G16RevC.01  3-Jul-2019

 ----------------------------------------------------------------------
 #t hf aug-cc-pvdz iop(5/13=1,5/36=2,99/5=2) pseudo=read geom=check gue
 ss=(read,tcheck) scf=(maxcycle=1)
 ----------------------------------------------------------------------
 -----
 title
 -----
 Structure from the checkpoint file:  "DCONF_7_-110_mol1.chk"
 Charge =  0 Multiplicity = 1

                         Standard orientation:
 ---------------------------------------------------------------------
 Center     Atomic      Atomic             Coordinates (Angstroms)
 Number     Number       Type             X           Y           Z
 ---------------------------------------------------------------------
      1          9           0       -1.680012   -0.390652   -0.255067
      2          6           0       -0.700084    0.275692    0.490474
      3          1           0       -0.487523   -0.343919    1.366983
      4          1           0       -1.147943    1.217033    0.818373
      5          6           0        0.549906    0.500839   -0.361439
      6          1           0        0.829589    1.558930   -0.323466
      7          1           0        0.280859    0.283648   -1.399256
      8          6           0        1.737659   -0.355644    0.079482
      9          1           0        2.031179   -0.114402    1.105692
     10          1           0        1.483626   -1.419433    0.041348
     11          1           0        2.605439   -0.191311   -0.565176
 ---------------------------------------------------------------------

 SCF Done:  E(RHF) =  -217.362245923     A.U. after    2 cycles

 The electronic state is 1-A.
 Alpha  occ. eigenvalues --  -26.43526 -11.31494 -11.23915 -11.23340  -1.55473
 Alpha  occ. eigenvalues --   -1.06583  -0.93259  -0.82688  -0.69023  -0.67774
 Alpha  occ. eigenvalues --   -0.64208  -0.60224  -0.57568  -0.54048  -0.50547
 Alpha  occ. eigenvalues --   -0.48738  -0.48364
 Alpha virt. eigenvalues --    0.03640   0.04046   0.04188   0.05264   0.06997
 Alpha virt. eigenvalues --    0.07518   0.07661   0.11153   0.12291   0.14393
 Alpha virt. eigenvalues --    0.15051   0.15782   0.16407   0.17105   0.17474

 Mulliken charges:
               1
     1  F   -0.726753
     2  C    0.649880
     3  H    0.070381
     4  H    0.063721
     5  C   -0.449295
     6  H    0.137852
     7  H    0.198496
     8  C   -0.382684
     9  H    0.170840
    10  H    0.157705
    11  H    0.109859
 Sum of Mulliken charges =  -0.00000

 Dipole moment (field-independent basis, Debye):
    X=              1.5810    Y=              0.9266    Z=              0.8113  Tot=              2.0041

 Test job not archived.
 1\1\GINC-SE419\SP\RHF\Aug-CC-pVDZ\C3H7F1\OHZDE\09-Apr-2025\0\\#t hf au
 g-cc-pvdz iop(5/13=1,5/36=2,99/5=2) pseudo=read geom=check guess=(read
 ,tcheck) scf=(maxcycle=1)\\title\\0,1\F,0,13.2533,-26.4754,0.005\C,0,1
 4.4019,-25.6749,0.0001\H,0,14.3527,-25.0381,0.8886\H,0,14.3381,-25.048
 1,-0.8928\C,0,15.656,-26.5502,-0.0015\H,0,16.3139,-26.2407,-0.8204\H,0
 ,15.3392,-27.5737,-0.2222\C,0,16.4263,-26.4957,1.3185\H,0,16.775,-25.4
 789,1.5234\H,0,15.79,-26.8096,2.1517\H,0,17.3007,-27.1518,1.2942\\Vers
 ion=ES64L-G16RevC.01\State=1-A\HF=-217.3622459\RMSD=8.199e-03\Dipole=0

 Normal termination of Gaussian 16 at Wed Apr  9 02:30:13 2025.
