 Gaussian 16, Revision C.01,

 ----------------------------------------------------------------------
 #t hf aug-cc-pvdz symm=none int=(grid=ultrafine) guess=(read,tcheck) s
 table=(opt,rrhf)
 ----------------------------------------------------------------------
 -----
 title
 -----
 Symbolic Z-matrix:
 Charge =  0 Multiplicity = 1

 SCF Done:  E(RHF) =  -812.899917752     A.U. after   17 cycles
 Normal termination of Gaussian 16 at Wed Apr  9 02:29:55 2025.
 Gaussian 16:  ES64L-G16RevC.01  3-Jul-2019

 ----------------------------------------------------------------------
 #t hf aug-cc-pvdz iop(5/13=1,5/36=2,99/5=2) pseudo=read geom=check gue
 ss=(read,tcheck) scf=(maxcycle=1)
 ----------------------------------------------------------------------
 -----
 title
 -----
 Structure from the checkpoint file:  "DCONF_56_-130_mol1.chk"
 Charge =  0 Multiplicity = 1

                         Standard orientation:
 ---------------------------------------------------------------------
 Center     Atomic      Atomic             Coordinates (Angstroms)
 Number     Number       Type             X           Y           Z
 ---------------------------------------------------------------------
      1          6           0       -1.475986    1.179103   -0.457046
      2          1           0       -0.991166    2.083624   -0.811173
      3          6           0       -2.864630    1.059101   -0.400809
      4          1           0       -3.504002    1.876272   -0.723656
      5          6           0       -3.414367   -0.137116    0.073010
      6          1           0       -4.489241   -0.278852    0.134434
      7          6           0       -2.547127   -1.157110    0.478298
      8          1           0       -2.939538   -2.097494    0.859890
      9          7           0       -1.206899   -1.056415    0.446739
     10          6           0       -0.692257    0.095742   -0.028763
     11          7           0        1.405433    1.273714    0.498924
     12          6           0        2.755883    1.063216    0.480090
     13          1           0        3.422750    1.831632    0.854185
     14          6           0        3.161071   -0.161420   -0.016880
     15          1           0        4.168778   -0.539094   -0.128033
     16         16           0        1.798064   -1.086530   -0.472405
     17          6           0        0.773023    0.223035   -0.002367
 ---------------------------------------------------------------------

 SCF Done:  E(RHF) =  -813.373365121     A.U. after    2 cycles

 The electronic state is 1-A.
 Alpha  occ. eigenvalues --  -93.99037 -15.51950 -15.51513 -11.31847 -11.30274
 Alpha  occ. eigenvalues --  -11.29178 -11.27750 -11.27647 -11.27433 -11.26014
 Alpha  occ. eigenvalues --  -11.25955  -8.27265  -6.25009  -6.24921  -6.24714
 Alpha  occ. eigenvalues --   -1.29226  -1.26198  -1.10032  -1.09383  -1.07236
 Alpha  occ. eigenvalues --   -1.00101  -0.89292  -0.88517  -0.82060  -0.78565
 Alpha  occ. eigenvalues --   -0.72889  -0.70551  -0.69110  -0.65411  -0.61915
 Alpha  occ. eigenvalues --   -0.60852  -0.59928  -0.57614  -0.55987  -0.54712
 Alpha  occ. eigenvalues --   -0.51800  -0.48000  -0.46032  -0.41417  -0.40862
 Alpha  occ. eigenvalues --   -0.38003  -0.32879
 Alpha virt. eigenvalues --    0.03105   0.03755   0.03861   0.04363   0.05018
 Alpha virt. eigenvalues --    0.05144   0.06685   0.07827   0.08196   0.09904
 Alpha virt. eigenvalues --    0.10041   0.10339   0.10780   0.11513   0.11860

 Mulliken charges:
               1
     1  C    1.022697
     2  H   -0.192538
     3  C   -0.226398
     4  H   -0.156989
     5  C    0.774700
     6  H   -0.185804
     7  C   -0.804825
     8  H   -0.203846
     9  N    1.523579
    10  C   -1.031255
    11  N    1.230058
    12  C   -0.189410
    13  H   -0.122959
    14  C   -0.024159
    15  H   -0.137862
    16  S    0.565252
    17  C   -1.840242
 Sum of Mulliken charges =  -0.00000

 Dipole moment (field-independent basis, Debye):
    X=             -1.2544    Y=              0.2818    Z=             -1.3499  Tot=              1.8642

 Test job not archived.
 1\1\GINC-SE208\SP\RHF\Aug-CC-pVDZ\C8H6N2S1\OHZDE\09-Apr-2025\0\\#t hf
 aug-cc-pvdz iop(5/13=1,5/36=2,99/5=2) pseudo=read geom=check guess=(re
 ad,tcheck) scf=(maxcycle=1)\\title\\0,1\C,0,30.1281,-21.0937,-0.0147\H
 ,0,30.7116,-20.1782,-0.0138\C,0,28.7334,-21.0805,0.0084\H,0,28.1892,-2
 0.14,0.0184\C,0,28.0525,-22.3028,0.0113\H,0,26.9675,-22.3443,0.0277\C,
 0,28.8005,-23.4848,0.0002\H,0,28.3045,-24.4532,0.0105\N,0,30.1444,-23.
 5199,-0.0066\C,0,30.786,-22.334,-0.027\N,0,32.976,-21.6601,0.8764\C,0,
 34.2983,-21.9883,0.766\H,0,35.0284,-21.4866,1.3908\C,0,34.5918,-22.977

 Normal termination of Gaussian 16 at Wed Apr  9 02:30:06 2025.
