 Gaussian 16, Revision C.01,

 ----------------------------------------------------------------------
 #t hf aug-cc-pvdz symm=none int=(grid=ultrafine) guess=(read,tcheck) s
 table=(opt,rrhf)
 ----------------------------------------------------------------------
 -----
 title
 -----
 Symbolic Z-matrix:
 Charge =  0 Multiplicity = 1

 SCF Done:  E(RHF) =  -1153.55105479     A.U. after   16 cycles
 Normal termination of Gaussian 16 at Wed Apr  9 02:23:26 2025.
 Gaussian 16:  ES64L-G16RevC.01  3-Jul-2019

 ----------------------------------------------------------------------
 #t hf aug-cc-pvdz iop(5/13=1,5/36=2,99/5=2) pseudo=read geom=check gue
 ss=(read,tcheck) scf=(maxcycle=1)
 ----------------------------------------------------------------------
 -----
 title
 -----
 Structure from the checkpoint file:  "DCONF_29_0_mol1.chk"
 Charge =  0 Multiplicity = 1

                         Standard orientation:
 ---------------------------------------------------------------------
 Center     Atomic      Atomic             Coordinates (Angstroms)
 Number     Number       Type             X           Y           Z
 ---------------------------------------------------------------------
      1          6           0       -2.758627   -0.006231    0.000065
      2          1           0       -3.795271   -0.316380    0.000032
      3          6           0       -2.246214    1.276387    0.000181
      4          1           0       -2.839694    2.182697    0.000379
      5          7           0       -0.880848    1.362757   -0.000113
      6          6           0       -0.367846    0.146744    0.000000
      7         16           0       -1.490908   -1.155106   -0.000107
      8         16           0        1.394191   -0.165861    0.000043
      9          6           0        2.057255    1.482084   -0.000146
     10          1           0        1.733808    1.999869    0.901412
     11          1           0        3.140732    1.340565   -0.002913
     12          1           0        1.729605    2.001441   -0.899253
     13          8           0        1.727363   -0.812842    1.263576
     14          8           0        1.727241   -0.812899   -1.263381
 ---------------------------------------------------------------------

 SCF Done:  E(RHF) =  -1154.03032980     A.U. after    2 cycles

 The electronic state is 1-A.
 Alpha  occ. eigenvalues --  -94.20826 -94.02490 -20.54425 -20.54423 -15.55572
 Alpha  occ. eigenvalues --  -11.35702 -11.30723 -11.30594 -11.29152  -8.46095
 Alpha  occ. eigenvalues --   -8.30689  -6.44181  -6.44008  -6.43960  -6.28431
 Alpha  occ. eigenvalues --   -6.28342  -6.28129  -1.55860  -1.43841  -1.32395
 Alpha  occ. eigenvalues --   -1.13112  -1.09619  -1.04100  -0.91653  -0.85302
 Alpha  occ. eigenvalues --   -0.78487  -0.74971  -0.68558  -0.67410  -0.67233
 Alpha  occ. eigenvalues --   -0.63549  -0.61881  -0.60713  -0.59646  -0.55126
 Alpha  occ. eigenvalues --   -0.52454  -0.50120  -0.49627  -0.46798  -0.45259
 Alpha  occ. eigenvalues --   -0.44095  -0.37422
 Alpha virt. eigenvalues --    0.02649   0.03639   0.04094   0.04827   0.05732
 Alpha virt. eigenvalues --    0.05735   0.07544   0.09523   0.10160   0.10292
 Alpha virt. eigenvalues --    0.10858   0.11352   0.12230   0.12601   0.13127

 Mulliken charges:
               1
     1  C   -0.105273
     2  H   -0.127270
     3  C   -0.054330
     4  H   -0.100636
     5  N    0.813001
     6  C   -1.595934
     7  S    0.566466
     8  S    3.347457
     9  C   -0.537194
    10  H    0.272867
    11  H    0.241878
    12  H    0.272954
    13  O   -1.496809
    14  O   -1.497178
 Sum of Mulliken charges =  -0.00000

 Dipole moment (field-independent basis, Debye):
    X=             -3.5380    Y=              2.6968    Z=             -0.0005  Tot=              4.4486

 Test job not archived.
 1\1\GINC-SE403\SP\RHF\Aug-CC-pVDZ\C4H5N1O2S2\OHZDE\09-Apr-2025\0\\#t h
 f aug-cc-pvdz iop(5/13=1,5/36=2,99/5=2) pseudo=read geom=check guess=(
 read,tcheck) scf=(maxcycle=1)\\title\\0,1\C,0,2.0287,-24.6291,-0.8964\
 H,0,0.9801,-24.638,-1.1632\C,0,2.815,-25.6814,-0.4697\H,0,2.4719,-26.7
 007,-0.3396\N,0,4.1196,-25.3682,-0.2021\C,0,4.3136,-24.0824,-0.4278\S,
 0,2.9484,-23.1883,-0.969\S,0,5.8967,-23.2815,-0.1936\C,0,6.9113,-24.63
 21,0.3558\H,0,6.9491,-25.393,-0.4221\H,0,7.8961,-24.1865,0.5157\H,0,6.
 5078,-25.03,1.2855\O,0,6.3637,-22.8366,-1.5013\O,0,5.7493,-22.3234,0.8

 Normal termination of Gaussian 16 at Wed Apr  9 02:23:33 2025.
