 Gaussian 16, Revision C.01,

 ----------------------------------------------------------------------
 #t hf aug-cc-pvdz symm=none int=(grid=ultrafine) guess=(read,tcheck) s
 table=(opt,rrhf)
 ----------------------------------------------------------------------
 -----
 title
 -----
 Symbolic Z-matrix:
 Charge =  0 Multiplicity = 1

 SCF Done:  E(RHF) =  -812.895772122     A.U. after   17 cycles
 Normal termination of Gaussian 16 at Wed Apr  9 02:31:46 2025.
 Gaussian 16:  ES64L-G16RevC.01  3-Jul-2019

 ----------------------------------------------------------------------
 #t hf aug-cc-pvdz iop(5/13=1,5/36=2,99/5=2) pseudo=read geom=check gue
 ss=(read,tcheck) scf=(maxcycle=1)
 ----------------------------------------------------------------------
 -----
 title
 -----
 Structure from the checkpoint file:  "DCONF_56_0_mol1.chk"
 Charge =  0 Multiplicity = 1

                         Standard orientation:
 ---------------------------------------------------------------------
 Center     Atomic      Atomic             Coordinates (Angstroms)
 Number     Number       Type             X           Y           Z
 ---------------------------------------------------------------------
      1          6           0        1.326853   -1.147038   -0.000146
      2          1           0        0.743137   -2.063623   -0.000146
      3          6           0        2.720098   -1.207255   -0.000146
      4          1           0        3.228520   -2.167583   -0.000146
      5          6           0        3.442117   -0.010849   -0.000046
      6          1           0        4.527935   -0.003739   -0.000046
      7          6           0        2.724646    1.191162   -0.000146
      8          1           0        3.250017    2.144517   -0.000046
      9          7           0        1.385808    1.270582   -0.000246
     10          6           0        0.697014    0.111334   -0.000246
     11          7           0       -1.430957    1.375169    0.000454
     12          6           0       -2.777307    1.160771    0.000654
     13          1           0       -3.453795    2.008127    0.001154
     14          6           0       -3.177244   -0.161511    0.000354
     15          1           0       -4.181398   -0.564430    0.000354
     16         16           0       -1.805478   -1.178464   -0.000246
     17          6           0       -0.774633    0.227036   -0.000046
 ---------------------------------------------------------------------

 SCF Done:  E(RHF) =  -813.370188653     A.U. after    2 cycles

 The electronic state is 1-A.
 Alpha  occ. eigenvalues --  -93.99374 -15.51443 -15.51247 -11.32153 -11.30548
 Alpha  occ. eigenvalues --  -11.29011 -11.27941 -11.27756 -11.27737 -11.26383
 Alpha  occ. eigenvalues --  -11.25981  -8.27640  -6.25392  -6.25307  -6.25098
 Alpha  occ. eigenvalues --   -1.29268  -1.25882  -1.10349  -1.09459  -1.07368
 Alpha  occ. eigenvalues --   -1.00040  -0.89594  -0.88476  -0.82173  -0.78552
 Alpha  occ. eigenvalues --   -0.73337  -0.70304  -0.69125  -0.66011  -0.61737
 Alpha  occ. eigenvalues --   -0.60045  -0.60044  -0.58740  -0.55710  -0.55253
 Alpha  occ. eigenvalues --   -0.51892  -0.46945  -0.46067  -0.42057  -0.40652
 Alpha  occ. eigenvalues --   -0.39209  -0.32110
 Alpha virt. eigenvalues --    0.03008   0.03428   0.03643   0.03735   0.04685
 Alpha virt. eigenvalues --    0.05038   0.06649   0.07710   0.09172   0.09597
 Alpha virt. eigenvalues --    0.10693   0.10827   0.11206   0.11957   0.12384

 Mulliken charges:
               1
     1  C    1.060076
     2  H   -0.165541
     3  C   -0.247692
     4  H   -0.177397
     5  C    0.788298
     6  H   -0.187543
     7  C   -0.878883
     8  H   -0.208370
     9  N    1.666766
    10  C   -1.148230
    11  N    1.251322
    12  C   -0.070197
    13  H   -0.133489
    14  C   -0.185001
    15  H   -0.161069
    16  S    0.829427
    17  C   -2.032477
 Sum of Mulliken charges =  -0.00000

 Dipole moment (field-independent basis, Debye):
    X=              0.9187    Y=             -3.7421    Z=              0.0000  Tot=              3.8532

 Test job not archived.
 1\1\GINC-SE292\SP\RHF\Aug-CC-pVDZ\C8H6N2S1\OHZDE\09-Apr-2025\0\\#t hf
 aug-cc-pvdz iop(5/13=1,5/36=2,99/5=2) pseudo=read geom=check guess=(re
 ad,tcheck) scf=(maxcycle=1)\\title\\0,1\C,0,30.1194,-21.0939,0.\H,0,30
 .6706,-20.1574,0.\C,0,28.7249,-21.0826,0.\H,0,28.1831,-20.1407,0.\C,0,
 28.0453,-22.3036,0.0001\H,0,26.9604,-22.3488,0.0001\C,0,28.8045,-23.47
 97,0.\H,0,28.3129,-24.4509,0.0001\N,0,30.1453,-23.5121,-0.0001\C,0,30.
 793,-22.3294,-0.0001\N,0,32.964,-23.5178,0.0006\C,0,34.302,-23.2563,0.
 0008\H,0,35.0078,-24.0794,0.0013\C,0,34.6553,-21.9208,0.0005\H,0,35.64

 Normal termination of Gaussian 16 at Wed Apr  9 02:31:56 2025.
