 Gaussian 16, Revision C.01,

 ----------------------------------------------------------------------
 #t hf aug-cc-pvdz symm=none int=(grid=ultrafine) guess=(read,tcheck) s
 table=(opt,rrhf)
 ----------------------------------------------------------------------
 -----
 title
 -----
 Symbolic Z-matrix:
 Charge =  0 Multiplicity = 1

 SCF Done:  E(RHF) =  -559.157419689     A.U. after   17 cycles

 1\1\GINC-SE250\Stability\RHF\Aug-CC-pVDZ\C12H9F1\OHZDE\09-Apr-2025\0\\
 #t hf aug-cc-pvdz symm=none int=(grid=ultrafine) guess=(read,tcheck) s
 table=(opt,rrhf)\\title\\0,1\C,0,12.8485,-32.5675,0.9537\H,0,13.4126,-
 32.0411,1.7187\C,0,11.4531,-32.4926,0.9675\H,0,10.9543,-31.901,1.7309\
 C,0,10.7014,-33.2157,0.0344\H,0,9.6159,-33.1659,0.0462\C,0,11.3631,-33
 .997,-0.9193\H,0,10.7913,-34.5708,-1.644\C,0,12.7598,-34.0739,-0.9341\
 H,0,13.2465,-34.676,-1.6916\C,0,13.5302,-33.3177,-0.0274\C,0,17.1433,-
 32.2355,0.467\H,0,17.6654,-31.3503,0.8187\C,0,15.7472,-32.2576,0.4552\

 Normal termination of Gaussian 16 at Wed Apr  9 02:29:48 2025.
 Gaussian 16:  ES64L-G16RevC.01  3-Jul-2019

 ----------------------------------------------------------------------
 #t hf aug-cc-pvdz iop(5/13=1,5/36=2,99/5=2) pseudo=read geom=check gue
 ss=(read,tcheck) scf=(maxcycle=1)
 ----------------------------------------------------------------------
 -----
 title
 -----
 Structure from the checkpoint file:  "DCONF_47_-20_mol1.chk"
 Charge =  0 Multiplicity = 1

                         Standard orientation:
 ---------------------------------------------------------------------
 Center     Atomic      Atomic             Coordinates (Angstroms)
 Number     Number       Type             X           Y           Z
 ---------------------------------------------------------------------
      1          6           0       -1.588146   -1.264090   -0.369789
      2          1           0       -1.075809   -2.155963   -0.719937
      3          6           0       -2.985409   -1.247134   -0.352174
      4          1           0       -3.537527   -2.126319   -0.674311
      5          6           0       -3.669236   -0.087508    0.030253
      6          1           0       -4.755733   -0.067813    0.038452
      7          6           0       -2.938602    1.043764    0.410014
      8          1           0       -3.457018    1.953853    0.700486
      9          6           0       -1.539901    1.028944    0.392160
     10          1           0       -0.999422    1.914460    0.703529
     11          6           0       -0.838580   -0.145183    0.050056
     12          6           0        2.692400   -1.545286    0.254917
     13          1           0        3.153588   -2.509902    0.446442
     14          6           0        1.300650   -1.433196    0.241163
     15          1           0        0.698976   -2.316990    0.432426
     16          6           0        0.642063   -0.209624   -0.013255
     17          6           0        1.480476    0.910617   -0.144826
     18          6           0        2.870259    0.830779   -0.133688
     19          1           0        3.444342    1.741638   -0.273770
     20          6           0        3.485119   -0.404786    0.083416
     21          1           0        4.568902   -0.473932    0.101781
     22          9           0        0.943683    2.130800   -0.382730
 ---------------------------------------------------------------------

 SCF Done:  E(RHF) =  -559.716800044     A.U. after    2 cycles

 The electronic state is 1-A.
 Alpha  occ. eigenvalues --  -26.47709 -11.34072 -11.26732 -11.26050 -11.26025
 Alpha  occ. eigenvalues --  -11.25867 -11.25577 -11.25228 -11.24844 -11.24760
 Alpha  occ. eigenvalues --  -11.24693 -11.24602 -11.24506  -1.60698  -1.17623
 Alpha  occ. eigenvalues --   -1.14737  -1.06377  -1.02438  -1.01563  -0.99297
 Alpha  occ. eigenvalues --   -0.87592  -0.86034  -0.82581  -0.81651  -0.74694
 Alpha  occ. eigenvalues --   -0.71686  -0.70443  -0.68348  -0.67435  -0.65154
 Alpha  occ. eigenvalues --   -0.63762  -0.62081  -0.61147  -0.60004  -0.58958
 Alpha  occ. eigenvalues --   -0.55091  -0.53284  -0.52864  -0.50831  -0.50274
 Alpha  occ. eigenvalues --   -0.49612  -0.39153  -0.35154  -0.34642  -0.31207
 Alpha virt. eigenvalues --    0.03145   0.03296   0.03701   0.04254   0.04489
 Alpha virt. eigenvalues --    0.05419   0.06099   0.06594   0.07083   0.07502
 Alpha virt. eigenvalues --    0.09681   0.09986   0.10397   0.11010   0.11362

 Mulliken charges:
               1
     1  C   -0.103441
     2  H   -0.292379
     3  C    0.012923
     4  H   -0.232928
     5  C    0.062247
     6  H   -0.213551
     7  C   -0.023212
     8  H   -0.235474
     9  C    0.309779
    10  H   -0.297345
    11  C    1.186588
    12  C   -0.117811
    13  H   -0.233232
    14  C   -0.114394
    15  H   -0.277420
    16  C    0.612059
    17  C    1.296985
    18  C   -0.080692
    19  H   -0.226151
    20  C    0.229598
    21  H   -0.200331
    22  F   -1.061818
 Sum of Mulliken charges =   0.00000

 Dipole moment (field-independent basis, Debye):
    X=              0.4968    Y=             -1.2134    Z=              0.2830  Tot=              1.3413

 Test job not archived.
 1\1\GINC-SE250\SP\RHF\Aug-CC-pVDZ\C12H9F1\OHZDE\09-Apr-2025\0\\#t hf a
 ug-cc-pvdz iop(5/13=1,5/36=2,99/5=2) pseudo=read geom=check guess=(rea
 d,tcheck) scf=(maxcycle=1)\\title\\0,1\C,0,12.8485,-32.5675,0.9537\H,0
 ,13.4126,-32.0411,1.7187\C,0,11.4531,-32.4926,0.9675\H,0,10.9543,-31.9
 01,1.7309\C,0,10.7014,-33.2157,0.0344\H,0,9.6159,-33.1659,0.0462\C,0,1
 1.3631,-33.997,-0.9193\H,0,10.7913,-34.5708,-1.644\C,0,12.7598,-34.073
 9,-0.9341\H,0,13.2465,-34.676,-1.6916\C,0,13.5302,-33.3177,-0.0274\C,0
 ,17.1433,-32.2355,0.467\H,0,17.6654,-31.3503,0.8187\C,0,15.7472,-32.25

 Normal termination of Gaussian 16 at Wed Apr  9 02:30:06 2025.
