 Gaussian 16, Revision C.01,

 ----------------------------------------------------------------------
 #t hf aug-cc-pvdz symm=none int=(grid=ultrafine) guess=(read,tcheck) s
 table=(opt,rrhf)
 ----------------------------------------------------------------------
 -----
 title
 -----
 Symbolic Z-matrix:
 Charge =  0 Multiplicity = 1

 SCF Done:  E(RHF) =  -575.159689459     A.U. after   15 cycles
 Normal termination of Gaussian 16 at Wed Apr  9 02:29:38 2025.
 Gaussian 16:  ES64L-G16RevC.01  3-Jul-2019

 ----------------------------------------------------------------------
 #t hf aug-cc-pvdz iop(5/13=1,5/36=2,99/5=2) pseudo=read geom=check gue
 ss=(read,tcheck) scf=(maxcycle=1)
 ----------------------------------------------------------------------
 -----
 title
 -----
 Structure from the checkpoint file:  "DCONF_48_0_mol2.chk"
 Charge =  0 Multiplicity = 1

                         Standard orientation:
 ---------------------------------------------------------------------
 Center     Atomic      Atomic             Coordinates (Angstroms)
 Number     Number       Type             X           Y           Z
 ---------------------------------------------------------------------
      1          6           0       -1.550353    1.002093    0.481985
      2          1           0       -1.009282    1.864351    0.854070
      3          6           0       -2.946463    0.987286    0.476262
      4          1           0       -3.505327    1.845362    0.839926
      5          6           0       -3.606015   -0.151979    0.008642
      6          1           0       -4.690144   -0.209713   -0.016566
      7          6           0       -2.830846   -1.232184   -0.426637
      8          1           0       -3.305967   -2.141338   -0.790699
      9          7           0       -1.488702   -1.234548   -0.431911
     10          6           0       -0.855122   -0.123100    0.004049
     11          6           0        2.648247   -1.548473    0.283312
     12          1           0        3.107133   -2.515897    0.465836
     13          6           0        1.257046   -1.436782    0.244624
     14          1           0        0.623537   -2.308023    0.380591
     15          6           0        0.625697   -0.198918    0.014475
     16          6           0        1.460757    0.911602   -0.168564
     17          6           0        2.849100    0.827598   -0.134153
     18          1           0        3.434467    1.727422   -0.296283
     19          6           0        3.448535   -0.413164    0.101838
     20          1           0        4.531680   -0.489813    0.133655
     21          9           0        0.914591    2.125068   -0.429127
 ---------------------------------------------------------------------

 SCF Done:  E(RHF) =  -575.731048856     A.U. after    2 cycles

 The electronic state is 1-A.
 Alpha  occ. eigenvalues --  -26.47902 -15.50905 -11.34176 -11.29628 -11.28555
 Alpha  occ. eigenvalues --  -11.26977 -11.26123 -11.26079 -11.25527 -11.25440
 Alpha  occ. eigenvalues --  -11.25205 -11.25077 -11.24908  -1.60767  -1.26068
 Alpha  occ. eigenvalues --   -1.16421  -1.09114  -1.07110  -1.02275  -1.00768
 Alpha  occ. eigenvalues --   -0.89121  -0.88466  -0.84453  -0.83196  -0.75269
 Alpha  occ. eigenvalues --   -0.72332  -0.70824  -0.69261  -0.67979  -0.67095
 Alpha  occ. eigenvalues --   -0.65190  -0.62400  -0.61592  -0.59907  -0.59070
 Alpha  occ. eigenvalues --   -0.56886  -0.55376  -0.53421  -0.51496  -0.51141
 Alpha  occ. eigenvalues --   -0.45823  -0.40721  -0.38789  -0.34968  -0.32311
 Alpha virt. eigenvalues --    0.03295   0.03390   0.03831   0.04191   0.04414
 Alpha virt. eigenvalues --    0.05846   0.06027   0.06640   0.07140   0.08804
 Alpha virt. eigenvalues --    0.09265   0.10083   0.10488   0.11023   0.11281

 Mulliken charges:
               1
     1  C    1.165872
     2  H   -0.259347
     3  C   -0.311223
     4  H   -0.173843
     5  C    0.858064
     6  H   -0.187807
     7  C   -1.018388
     8  H   -0.238906
     9  N    1.736549
    10  C   -2.681463
    11  C   -0.111571
    12  H   -0.221132
    13  C   -0.034195
    14  H   -0.276608
    15  C    1.819674
    16  C    1.236493
    17  C   -0.073418
    18  H   -0.213255
    19  C    0.246241
    20  H   -0.200921
    21  F   -1.060815
 Sum of Mulliken charges =  -0.00000

 Dipole moment (field-independent basis, Debye):
    X=             -0.5751    Y=              0.5501    Z=              1.1354  Tot=              1.3866

 Test job not archived.
 1\1\GINC-SE334\SP\RHF\Aug-CC-pVDZ\C11H8F1N1\OHZDE\09-Apr-2025\0\\#t hf
  aug-cc-pvdz iop(5/13=1,5/36=2,99/5=2) pseudo=read geom=check guess=(r
 ead,tcheck) scf=(maxcycle=1)\\title\\0,1\C,0,21.7266,-34.1688,-0.7039\
 H,0,22.1822,-35.0053,-1.221\C,0,20.341,-33.9973,-0.7125\H,0,19.704,-34
 .7067,-1.2339\C,0,19.7948,-32.894,-0.0522\H,0,18.7232,-32.7194,-0.03\C
 ,0,20.6686,-32.005,0.5829\H,0,20.2839,-31.1287,1.1015\N,0,22.0021,-32.
 1556,0.6048\C,0,22.5245,-33.2345,-0.0196\C,0,26.1697,-32.1881,0.0094\H
 ,0,26.7371,-31.2619,0.0127\C,0,24.7741,-32.1467,0.0101\H,0,24.2442,-31

 Normal termination of Gaussian 16 at Wed Apr  9 02:29:54 2025.
