 Gaussian 16, Revision C.01,

 ----------------------------------------------------------------------
 #t hf aug-cc-pvdz symm=none int=(grid=ultrafine) guess=(read,tcheck) s
 table=(opt,rrhf)
 ----------------------------------------------------------------------
 -----
 title
 -----
 Symbolic Z-matrix:
 Charge =  0 Multiplicity = 1

 SCF Done:  E(RHF) =  -559.155028160     A.U. after   17 cycles

 1\1\GINC-SE092\Stability\RHF\Aug-CC-pVDZ\C12H9F1\OHZDE\09-Apr-2025\0\\
 #t hf aug-cc-pvdz symm=none int=(grid=ultrafine) guess=(read,tcheck) s
 table=(opt,rrhf)\\title\\0,1\C,0,12.8424,-32.1003,0.0828\H,0,13.403,-3
 1.1708,0.0674\C,0,11.4485,-32.034,0.1472\H,0,10.9606,-31.0637,0.1917\C
 ,0,10.6845,-33.2053,0.0972\H,0,9.5997,-33.1579,0.1384\C,0,11.338,-34.4
 378,0.0031\H,0,10.7612,-35.3576,-0.0501\C,0,12.7341,-34.5052,-0.0611\H
 ,0,13.2044,-35.4774,-0.1223\C,0,13.5211,-33.338,0.0395\C,0,17.1447,-32
 .2323,0.4524\H,0,17.6646,-31.3678,0.8549\C,0,15.7493,-32.2607,0.454\H,

 Normal termination of Gaussian 16 at Wed Apr  9 02:31:03 2025.
 Gaussian 16:  ES64L-G16RevC.01  3-Jul-2019

 ----------------------------------------------------------------------
 #t hf aug-cc-pvdz iop(5/13=1,5/36=2,99/5=2) pseudo=read geom=check gue
 ss=(read,tcheck) scf=(maxcycle=1)
 ----------------------------------------------------------------------
 -----
 title
 -----
 Structure from the checkpoint file:  "DCONF_47_10_mol1.chk"
 Charge =  0 Multiplicity = 1

                         Standard orientation:
 ---------------------------------------------------------------------
 Center     Atomic      Atomic             Coordinates (Angstroms)
 Number     Number       Type             X           Y           Z
 ---------------------------------------------------------------------
      1          6           0       -1.597885   -1.289394    0.268838
      2          1           0       -1.095531   -2.213243    0.538323
      3          6           0       -2.994581   -1.275503    0.245396
      4          1           0       -3.542645   -2.183440    0.483695
      5          6           0       -3.682766   -0.087882   -0.026812
      6          1           0       -4.769189   -0.070548   -0.037687
      7          6           0       -2.951694    1.073647   -0.293940
      8          1           0       -3.468557    2.008593   -0.494658
      9          6           0       -1.552743    1.060603   -0.271031
     10          1           0       -1.021570    1.976255   -0.493602
     11          6           0       -0.843021   -0.138885   -0.048838
     12          6           0        2.689913   -1.561486   -0.183446
     13          1           0        3.141971   -2.537736   -0.332586
     14          6           0        1.299628   -1.439195   -0.173386
     15          1           0        0.702192   -2.331915   -0.325799
     16          6           0        0.640543   -0.204766    0.032631
     17          6           0        1.492068    0.913522    0.101211
     18          6           0        2.881658    0.824783    0.091772
     19          1           0        3.458154    1.740083    0.184802
     20          6           0        3.491720   -0.420722   -0.067621
     21          1           0        4.574933   -0.496636   -0.084621
     22          9           0        0.975910    2.153363    0.279277
 ---------------------------------------------------------------------

 SCF Done:  E(RHF) =  -559.714428504     A.U. after    2 cycles

 The electronic state is 1-A.
 Alpha  occ. eigenvalues --  -26.47780 -11.34149 -11.26934 -11.26223 -11.26032
 Alpha  occ. eigenvalues --  -11.25881 -11.25561 -11.25222 -11.24858 -11.24756
 Alpha  occ. eigenvalues --  -11.24687 -11.24564 -11.24431  -1.60790  -1.17599
 Alpha  occ. eigenvalues --   -1.14754  -1.06384  -1.02441  -1.01543  -0.99356
 Alpha  occ. eigenvalues --   -0.87657  -0.86069  -0.82482  -0.81765  -0.74739
 Alpha  occ. eigenvalues --   -0.71682  -0.70556  -0.68358  -0.67502  -0.65291
 Alpha  occ. eigenvalues --   -0.63719  -0.62001  -0.61270  -0.59979  -0.58810
 Alpha  occ. eigenvalues --   -0.55064  -0.53413  -0.52987  -0.50885  -0.50194
 Alpha  occ. eigenvalues --   -0.49474  -0.39436  -0.35163  -0.34605  -0.31050
 Alpha virt. eigenvalues --    0.03107   0.03264   0.03700   0.04269   0.04498
 Alpha virt. eigenvalues --    0.05552   0.06144   0.06668   0.07044   0.07582
 Alpha virt. eigenvalues --    0.09527   0.10223   0.10386   0.10964   0.11466

 Mulliken charges:
               1
     1  C    0.002969
     2  H   -0.285295
     3  C   -0.020524
     4  H   -0.243905
     5  C    0.053567
     6  H   -0.215081
     7  C   -0.033679
     8  H   -0.242035
     9  C    0.420725
    10  H   -0.305123
    11  C    1.033195
    12  C   -0.140916
    13  H   -0.244625
    14  C   -0.009495
    15  H   -0.279528
    16  C    0.513908
    17  C    1.344323
    18  C   -0.027092
    19  H   -0.240955
    20  C    0.190036
    21  H   -0.203368
    22  F   -1.067103
 Sum of Mulliken charges =  -0.00000

 Dipole moment (field-independent basis, Debye):
    X=              0.4920    Y=             -1.2375    Z=             -0.2139  Tot=              1.3488

 Test job not archived.
 1\1\GINC-SE092\SP\RHF\Aug-CC-pVDZ\C12H9F1\OHZDE\09-Apr-2025\0\\#t hf a
 ug-cc-pvdz iop(5/13=1,5/36=2,99/5=2) pseudo=read geom=check guess=(rea
 d,tcheck) scf=(maxcycle=1)\\title\\0,1\C,0,12.8424,-32.1003,0.0828\H,0
 ,13.403,-31.1708,0.0674\C,0,11.4485,-32.034,0.1472\H,0,10.9606,-31.063
 7,0.1917\C,0,10.6845,-33.2053,0.0972\H,0,9.5997,-33.1579,0.1384\C,0,11
 .338,-34.4378,0.0031\H,0,10.7612,-35.3576,-0.0501\C,0,12.7341,-34.5052
 ,-0.0611\H,0,13.2044,-35.4774,-0.1223\C,0,13.5211,-33.338,0.0395\C,0,1
 7.1447,-32.2323,0.4524\H,0,17.6646,-31.3678,0.8549\C,0,15.7493,-32.260

 Normal termination of Gaussian 16 at Wed Apr  9 02:31:21 2025.
