 Gaussian 16, Revision C.01,

 ----------------------------------------------------------------------
 #t hf aug-cc-pvdz symm=none int=(grid=ultrafine) guess=(read,tcheck) s
 table=(opt,rrhf)
 ----------------------------------------------------------------------
 -----
 title
 -----
 Symbolic Z-matrix:
 Charge =  0 Multiplicity = 1

 SCF Done:  E(RHF) =  -719.120583577     A.U. after   16 cycles
 Normal termination of Gaussian 16 at Wed Apr  9 02:22:40 2025.
 Gaussian 16:  ES64L-G16RevC.01  3-Jul-2019

 ----------------------------------------------------------------------
 #t hf aug-cc-pvdz iop(5/13=1,5/36=2,99/5=2) pseudo=read geom=check gue
 ss=(read,tcheck) scf=(maxcycle=1)
 ----------------------------------------------------------------------
 -----
 title
 -----
 Structure from the checkpoint file:  "DCONF_28_-20_mol1.chk"
 Charge =  0 Multiplicity = 1

                         Standard orientation:
 ---------------------------------------------------------------------
 Center     Atomic      Atomic             Coordinates (Angstroms)
 Number     Number       Type             X           Y           Z
 ---------------------------------------------------------------------
      1          8           0       -1.962579   -1.312088   -0.244166
      2          6           0       -2.507405    0.998044    0.187712
      3          1           0       -2.402807    1.317589    1.229697
      4          1           0       -3.534453    0.686034   -0.005024
      5          1           0       -2.228802    1.848191   -0.438683
      6          6           0       -1.579756   -0.164443   -0.056260
      7          7           0        0.392959    1.351839   -0.119912
      8          6           0        1.752174    1.284175   -0.109077
      9          1           0        2.338273    2.191548   -0.199511
     10          6           0        2.282555    0.010206    0.017345
     11          1           0        3.324945   -0.276836    0.063299
     12         16           0        1.032053   -1.144362    0.116112
     13          6           0       -0.124250    0.134866    0.007804
 ---------------------------------------------------------------------

 SCF Done:  E(RHF) =  -719.499915605     A.U. after    2 cycles

 The electronic state is 1-A.
 Alpha  occ. eigenvalues --  -94.00802 -20.55226 -15.53879 -11.36254 -11.32644
 Alpha  occ. eigenvalues --  -11.29496 -11.29233 -11.24943  -8.28991  -6.26724
 Alpha  occ. eigenvalues --   -6.26640  -6.26444  -1.47829  -1.30434  -1.11382
 Alpha  occ. eigenvalues --   -1.06271  -1.00833  -0.87552  -0.83237  -0.74965
 Alpha  occ. eigenvalues --   -0.71425  -0.65758  -0.64011  -0.62921  -0.59934
 Alpha  occ. eigenvalues --   -0.58641  -0.55951  -0.53449  -0.50912  -0.49678
 Alpha  occ. eigenvalues --   -0.43397  -0.42514  -0.35883
 Alpha virt. eigenvalues --    0.03019   0.03553   0.03979   0.04405   0.05537
 Alpha virt. eigenvalues --    0.06233   0.07425   0.09180   0.10301   0.10854
 Alpha virt. eigenvalues --    0.11182   0.12045   0.12791   0.12860   0.13596

 Mulliken charges:
               1
     1  O   -1.374801
     2  C   -0.426038
     3  H    0.309073
     4  H    0.127740
     5  H    0.294850
     6  C    1.494325
     7  N    1.033216
     8  C   -0.164983
     9  H   -0.101896
    10  C   -0.093843
    11  H   -0.135532
    12  S    0.664048
    13  C   -1.626159
 Sum of Mulliken charges =   0.00000

 Dipole moment (field-independent basis, Debye):
    X=              2.2499    Y=              1.1745    Z=              0.6621  Tot=              2.6230

 Test job not archived.
 1\1\GINC-SE041\SP\RHF\Aug-CC-pVDZ\C5H5N1O1S1\OHZDE\09-Apr-2025\0\\#t h
 f aug-cc-pvdz iop(5/13=1,5/36=2,99/5=2) pseudo=read geom=check guess=(
 read,tcheck) scf=(maxcycle=1)\\title\\0,1\O,0,21.7638,-16.5944,0.3123\
 C,0,21.0909,-18.8189,-0.3349\H,0,21.2005,-19.0509,-1.3993\H,0,20.0803,
 -18.4619,-0.1335\H,0,21.3029,-19.7368,0.2176\C,0,22.081,-17.7425,0.029
 1\N,0,23.9566,-19.3782,-0.008\C,0,25.3173,-19.3945,0.0118\H,0,25.8453,
 -20.341,0.031\C,0,25.9264,-18.1498,0.0098\H,0,26.985,-17.9252,0.0086\S
 ,0,24.7505,-16.9155,-0.0075\C,0,23.5169,-18.1249,-0.0353\\Version=ES64

 Normal termination of Gaussian 16 at Wed Apr  9 02:22:46 2025.
