 Gaussian 16, Revision C.01,

 ----------------------------------------------------------------------
 #t hf aug-cc-pvdz symm=none int=(grid=ultrafine) guess=(read,tcheck) s
 table=(opt,rrhf)
 ----------------------------------------------------------------------
 -----
 title
 -----
 Symbolic Z-matrix:
 Charge =  0 Multiplicity = 1

 SCF Done:  E(RHF) =  -774.181372742     A.U. after   16 cycles
 Normal termination of Gaussian 16 at Wed Apr  9 02:26:03 2025.
 Gaussian 16:  ES64L-G16RevC.01  3-Jul-2019

 ----------------------------------------------------------------------
 #t hf aug-cc-pvdz iop(5/13=1,5/36=2,99/5=2) pseudo=read geom=check gue
 ss=(read,tcheck) scf=(maxcycle=1)
 ----------------------------------------------------------------------
 -----
 title
 -----
 Structure from the checkpoint file:  "DCONF_42_-150_mol1.chk"
 Charge =  0 Multiplicity = 1

                         Standard orientation:
 ---------------------------------------------------------------------
 Center     Atomic      Atomic             Coordinates (Angstroms)
 Number     Number       Type             X           Y           Z
 ---------------------------------------------------------------------
      1          6           0       -1.990541   -0.121110    0.026073
      2          7           0       -0.968717    0.745422   -0.333121
      3          1           0       -1.168629    1.738801   -0.351201
      4          7           0        1.237407    1.460071    0.077822
      5          6           0        2.505610    0.950086    0.202089
      6          1           0        3.332844    1.625290    0.384637
      7          6           0        2.607185   -0.417739    0.098857
      8          1           0        3.489299   -1.035710    0.198249
      9         16           0        1.057154   -1.114205   -0.160099
     10          6           0        0.386379    0.476829   -0.127877
     11          8           0       -1.782731   -1.301764    0.258177
     12          6           0       -3.358064    0.521462    0.085016
     13          1           0       -3.456849    1.343032   -0.628638
     14          1           0       -3.521239    0.912824    1.094124
     15          1           0       -4.112284   -0.238470   -0.118859
 ---------------------------------------------------------------------

 SCF Done:  E(RHF) =  -774.618185517     A.U. after    2 cycles

 The electronic state is 1-A.
 Alpha  occ. eigenvalues --  -93.99076 -20.53552 -15.56374 -15.50751 -11.38651
 Alpha  occ. eigenvalues --  -11.35840 -11.27747 -11.26661 -11.26534  -8.27245
 Alpha  occ. eigenvalues --   -6.24983  -6.24889  -6.24666  -1.48093  -1.31636
 Alpha  occ. eigenvalues --   -1.24577  -1.09644  -1.05276  -0.99251  -0.88223
 Alpha  occ. eigenvalues --   -0.82677  -0.80119  -0.72246  -0.70403  -0.66618
 Alpha  occ. eigenvalues --   -0.65655  -0.62085  -0.60554  -0.58795  -0.58386
 Alpha  occ. eigenvalues --   -0.54656  -0.52115  -0.47811  -0.47414  -0.44673
 Alpha  occ. eigenvalues --   -0.40852  -0.33237
 Alpha virt. eigenvalues --    0.02930   0.04041   0.04672   0.04792   0.04871
 Alpha virt. eigenvalues --    0.06639   0.08582   0.09235   0.09423   0.10778
 Alpha virt. eigenvalues --    0.10979   0.11602   0.12872   0.13025   0.13319

 Mulliken charges:
               1
     1  C    0.882607
     2  N    0.725263
     3  H    0.144550
     4  N    0.878688
     5  C   -0.035640
     6  H   -0.112424
     7  C   -0.060121
     8  H   -0.155332
     9  S    0.792024
    10  C   -2.110655
    11  O   -1.273810
    12  C   -0.326732
    13  H    0.183093
    14  H    0.280640
    15  H    0.187849
 Sum of Mulliken charges =  -0.00000

 Dipole moment (field-independent basis, Debye):
    X=             -1.1631    Y=              1.4271    Z=             -0.2218  Tot=              1.8544

 Test job not archived.
 1\1\GINC-SE149\SP\RHF\Aug-CC-pVDZ\C5H6N2O1S1\OHZDE\09-Apr-2025\0\\#t h
 f aug-cc-pvdz iop(5/13=1,5/36=2,99/5=2) pseudo=read geom=check guess=(
 read,tcheck) scf=(maxcycle=1)\\title\\0,1\C,0,28.9895,-15.6633,-0.5552
 \N,0,29.3066,-16.8862,0.0175\H,0,28.5758,-17.5848,0.0881\N,0,30.7355,-
 18.7581,-0.011\C,0,32.0733,-19.0644,0.0074\H,0,32.3792,-20.1036,0.0021
 \C,0,32.9281,-17.9868,0.0115\H,0,34.0095,-17.9865,-0.0101\S,0,32.037,-
 16.5171,-0.0138\C,0,30.5839,-17.4503,-0.0116\O,0,29.8489,-14.8479,-0.8
 511\C,0,27.5081,-15.4376,-0.7577\H,0,26.9077,-15.948,-0.0007\H,0,27.22

 Normal termination of Gaussian 16 at Wed Apr  9 02:26:10 2025.
