 Gaussian 16, Revision C.01,

 ----------------------------------------------------------------------
 #t hf aug-cc-pvdz symm=none int=(grid=ultrafine) guess=(read,tcheck) s
 table=(opt,rrhf)
 ----------------------------------------------------------------------
 -----
 title
 -----
 Symbolic Z-matrix:
 Charge =  0 Multiplicity = 1

 SCF Done:  E(RHF) =  -703.116276912     A.U. after   16 cycles
 Normal termination of Gaussian 16 at Wed Apr  9 02:21:55 2025.
 Gaussian 16:  ES64L-G16RevC.01  3-Jul-2019

 ----------------------------------------------------------------------
 #t hf aug-cc-pvdz iop(5/13=1,5/36=2,99/5=2) pseudo=read geom=check gue
 ss=(read,tcheck) scf=(maxcycle=1)
 ----------------------------------------------------------------------
 -----
 title
 -----
 Structure from the checkpoint file:  "DCONF_24_-150_mol1.chk"
 Charge =  0 Multiplicity = 1

                         Standard orientation:
 ---------------------------------------------------------------------
 Center     Atomic      Atomic             Coordinates (Angstroms)
 Number     Number       Type             X           Y           Z
 ---------------------------------------------------------------------
      1          8           0       -2.235416    1.269597   -0.311642
      2          6           0       -2.299604   -1.036853    0.356742
      3          1           0       -2.047040   -1.254463    1.399235
      4          1           0       -3.379176   -0.920891    0.253902
      5          1           0       -1.958833   -1.883310   -0.248479
      6          6           0       -1.613696    0.245061   -0.065189
      7          6           0        0.667737    1.367111    0.146259
      8          1           0        0.240595    2.356923    0.263671
      9          6           0        2.044511    1.053314    0.193533
     10          1           0        2.837409    1.776014    0.351255
     11          6           0        2.280675   -0.302209    0.025689
     12          1           0        3.233378   -0.815374   -0.008210
     13         16           0        0.828374   -1.179759   -0.185287
     14          6           0       -0.129120    0.250320   -0.082643
 ---------------------------------------------------------------------

 SCF Done:  E(RHF) =  -703.483327316     A.U. after    2 cycles

 The electronic state is 1-A.
 Alpha  occ. eigenvalues --  -93.99689 -20.53602 -11.35322 -11.29356 -11.27983
 Alpha  occ. eigenvalues --  -11.26783 -11.26281 -11.25104  -8.27903  -6.25669
 Alpha  occ. eigenvalues --   -6.25575  -6.25372  -1.46390  -1.20696  -1.05168
 Alpha  occ. eigenvalues --   -1.02344  -0.99023  -0.85024  -0.78428  -0.73878
 Alpha  occ. eigenvalues --   -0.70331  -0.63323  -0.63050  -0.61649  -0.58714
 Alpha  occ. eigenvalues --   -0.56407  -0.55539  -0.54527  -0.50574  -0.49463
 Alpha  occ. eigenvalues --   -0.42167  -0.37038  -0.34451
 Alpha virt. eigenvalues --    0.03034   0.03836   0.04001   0.04745   0.05749
 Alpha virt. eigenvalues --    0.06067   0.06194   0.08946   0.09920   0.10697
 Alpha virt. eigenvalues --    0.11543   0.12584   0.12729   0.13222   0.13788

 Mulliken charges:
               1
     1  O   -1.410437
     2  C   -0.613133
     3  H    0.290835
     4  H    0.097595
     5  H    0.283100
     6  C    0.747575
     7  C   -0.027520
     8  H   -0.165753
     9  C    0.455627
    10  H   -0.105009
    11  C   -0.761849
    12  H   -0.149123
    13  S    0.878082
    14  C    0.480008
 Sum of Mulliken charges =  -0.00000

 Dipole moment (field-independent basis, Debye):
    X=              2.4343    Y=             -1.7953    Z=              0.9801  Tot=              3.1796

 Test job not archived.
 1\1\GINC-SE340\SP\RHF\Aug-CC-pVDZ\C6H6O1S1\OHZDE\09-Apr-2025\0\\#t hf
 aug-cc-pvdz iop(5/13=1,5/36=2,99/5=2) pseudo=read geom=check guess=(re
 ad,tcheck) scf=(maxcycle=1)\\title\\0,1\O,0,21.0491,-6.0213,0.3093\C,0
 ,21.5689,-3.8851,-0.6587\H,0,21.8822,-3.883,-1.7074\H,0,20.493,-3.7187
 ,-0.5935\H,0,22.1006,-3.0716,-0.1543\C,0,21.9091,-5.224,-0.0395\C,0,23
 .8433,-6.8869,0.0082\H,0,23.1855,-7.749,0.0015\C,0,25.2554,-6.9282,-0.
 0137\H,0,25.8462,-7.8372,-0.0368\C,0,25.8183,-5.6615,-0.0143\H,0,26.86
 8,-5.3967,-0.0024\S,0,24.6265,-4.4356,0.0095\C,0,23.3455,-5.5888,0.049

 Normal termination of Gaussian 16 at Wed Apr  9 02:22:00 2025.
