 Gaussian 16, Revision C.01,

 ----------------------------------------------------------------------
 #t hf aug-cc-pvdz symm=none int=(grid=ultrafine) guess=(read,tcheck) s
 table=(opt,rrhf)
 ----------------------------------------------------------------------
 -----
 title
 -----
 Symbolic Z-matrix:
 Charge =  0 Multiplicity = 1

 SCF Done:  E(RHF) =  -559.157822622     A.U. after   17 cycles

 1\1\GINC-SE159\Stability\RHF\Aug-CC-pVDZ\C12H9F1\OHZDE\09-Apr-2025\0\\
 #t hf aug-cc-pvdz symm=none int=(grid=ultrafine) guess=(read,tcheck) s
 table=(opt,rrhf)\\title\\0,1\C,0,12.8064,-33.9628,-1.0681\H,0,13.3202,
 -34.5802,-1.7953\C,0,11.4208,-33.8022,-1.1679\H,0,10.8824,-34.3062,-1.
 9666\C,0,10.7321,-32.9779,-0.2715\H,0,9.6557,-32.854,-0.3549\C,0,11.44
 28,-32.3235,0.7411\H,0,10.9224,-31.6826,1.4481\C,0,12.8275,-32.4833,0.
 8441\H,0,13.357,-31.9948,1.6576\C,0,13.5319,-33.3247,-0.041\C,0,17.144
 7,-32.2377,0.4705\H,0,17.6684,-31.3548,0.826\C,0,15.7482,-32.2579,0.46

 Normal termination of Gaussian 16 at Wed Apr  9 02:30:38 2025.
 Gaussian 16:  ES64L-G16RevC.01  3-Jul-2019

 ----------------------------------------------------------------------
 #t hf aug-cc-pvdz iop(5/13=1,5/36=2,99/5=2) pseudo=read geom=check gue
 ss=(read,tcheck) scf=(maxcycle=1)
 ----------------------------------------------------------------------
 -----
 title
 -----
 Structure from the checkpoint file:  "DCONF_47_160_mol1.chk"
 Charge =  0 Multiplicity = 1

                         Standard orientation:
 ---------------------------------------------------------------------
 Center     Atomic      Atomic             Coordinates (Angstroms)
 Number     Number       Type             X           Y           Z
 ---------------------------------------------------------------------
      1          6           0       -1.515399    1.029567    0.383922
      2          1           0       -0.954994    1.903759    0.693320
      3          6           0       -2.911096    1.049307    0.469240
      4          1           0       -3.409702    1.943325    0.835214
      5          6           0       -3.662937   -0.077223    0.118559
      6          1           0       -4.747173   -0.057982    0.189304
      7          6           0       -3.004264   -1.225604   -0.335383
      8          1           0       -3.573698   -2.108027   -0.615548
      9          6           0       -1.609498   -1.247685   -0.423013
     10          1           0       -1.118111   -2.136119   -0.810322
     11          6           0       -0.840280   -0.114109   -0.090079
     12          6           0        2.660536   -1.562064    0.288391
     13          1           0        3.103379   -2.531639    0.498081
     14          6           0        1.272127   -1.440419    0.197852
     15          1           0        0.654265   -2.320370    0.350540
     16          6           0        0.640111   -0.209311   -0.081930
     17          6           0        1.493824    0.903456   -0.167682
     18          6           0        2.879443    0.814999   -0.074337
     19          1           0        3.467685    1.721611   -0.178014
     20          6           0        3.470519   -0.427237    0.170473
     21          1           0        4.550880   -0.505599    0.252639
     22          9           0        0.976549    2.125443   -0.439032
 ---------------------------------------------------------------------

 SCF Done:  E(RHF) =  -559.717204963     A.U. after    2 cycles

 The electronic state is 1-A.
 Alpha  occ. eigenvalues --  -26.47690 -11.34012 -11.26709 -11.26050 -11.26021
 Alpha  occ. eigenvalues --  -11.25877 -11.25578 -11.25230 -11.24855 -11.24781
 Alpha  occ. eigenvalues --  -11.24709 -11.24614 -11.24517  -1.60657  -1.17641
 Alpha  occ. eigenvalues --   -1.14746  -1.06383  -1.02452  -1.01575  -0.99294
 Alpha  occ. eigenvalues --   -0.87639  -0.85996  -0.82597  -0.81629  -0.74687
 Alpha  occ. eigenvalues --   -0.71693  -0.70409  -0.68386  -0.67409  -0.65123
 Alpha  occ. eigenvalues --   -0.63770  -0.62115  -0.61128  -0.59988  -0.59028
 Alpha  occ. eigenvalues --   -0.55094  -0.53286  -0.52868  -0.50795  -0.50264
 Alpha  occ. eigenvalues --   -0.49710  -0.39113  -0.35171  -0.34671  -0.31226
 Alpha virt. eigenvalues --    0.03149   0.03263   0.03706   0.04261   0.04495
 Alpha virt. eigenvalues --    0.05385   0.06081   0.06608   0.06999   0.07636
 Alpha virt. eigenvalues --    0.09672   0.09949   0.10471   0.11019   0.11371

 Mulliken charges:
               1
     1  C    0.218234
     2  H   -0.311851
     3  C    0.046026
     4  H   -0.229504
     5  C    0.049648
     6  H   -0.213014
     7  C   -0.095470
     8  H   -0.235003
     9  C   -0.106507
    10  H   -0.268663
    11  C    1.354601
    12  C   -0.153508
    13  H   -0.235551
    14  C   -0.021920
    15  H   -0.272058
    16  C    0.667395
    17  C    1.184168
    18  C   -0.128929
    19  H   -0.218211
    20  C    0.239704
    21  H   -0.200755
    22  F   -1.068835
 Sum of Mulliken charges =  -0.00000

 Dipole moment (field-independent basis, Debye):
    X=              0.4648    Y=             -1.2585    Z=              0.4856  Tot=              1.4267

 Test job not archived.
 1\1\GINC-SE159\SP\RHF\Aug-CC-pVDZ\C12H9F1\OHZDE\09-Apr-2025\0\\#t hf a
 ug-cc-pvdz iop(5/13=1,5/36=2,99/5=2) pseudo=read geom=check guess=(rea
 d,tcheck) scf=(maxcycle=1)\\title\\0,1\C,0,12.8064,-33.9628,-1.0681\H,
 0,13.3202,-34.5802,-1.7953\C,0,11.4208,-33.8022,-1.1679\H,0,10.8824,-3
 4.3062,-1.9666\C,0,10.7321,-32.9779,-0.2715\H,0,9.6557,-32.854,-0.3549
 \C,0,11.4428,-32.3235,0.7411\H,0,10.9224,-31.6826,1.4481\C,0,12.8275,-
 32.4833,0.8441\H,0,13.357,-31.9948,1.6576\C,0,13.5319,-33.3247,-0.041\
 C,0,17.1447,-32.2377,0.4705\H,0,17.6684,-31.3548,0.826\C,0,15.7482,-32

 Normal termination of Gaussian 16 at Wed Apr  9 02:30:57 2025.
