 Gaussian 16, Revision C.01,

 ----------------------------------------------------------------------
 #t hf aug-cc-pvdz symm=none int=(grid=ultrafine) guess=(read,tcheck) s
 table=(opt,rrhf)
 ----------------------------------------------------------------------
 -----
 title
 -----
 Symbolic Z-matrix:
 Charge =  0 Multiplicity = 1

 SCF Done:  E(RHF) =  -719.111153199     A.U. after   16 cycles
 Normal termination of Gaussian 16 at Wed Apr  9 02:22:11 2025.
 Gaussian 16:  ES64L-G16RevC.01  3-Jul-2019

 ----------------------------------------------------------------------
 #t hf aug-cc-pvdz iop(5/13=1,5/36=2,99/5=2) pseudo=read geom=check gue
 ss=(read,tcheck) scf=(maxcycle=1)
 ----------------------------------------------------------------------
 -----
 title
 -----
 Structure from the checkpoint file:  "DCONF_28_-150_mol1.chk"
 Charge =  0 Multiplicity = 1

                         Standard orientation:
 ---------------------------------------------------------------------
 Center     Atomic      Atomic             Coordinates (Angstroms)
 Number     Number       Type             X           Y           Z
 ---------------------------------------------------------------------
      1          8           0       -2.218825    1.258053   -0.372654
      2          6           0       -2.273355   -1.026708    0.378446
      3          1           0       -2.025129   -1.233102    1.424266
      4          1           0       -3.353079   -0.922508    0.266646
      5          1           0       -1.923443   -1.876108   -0.217784
      6          6           0       -1.599941    0.257456   -0.055837
      7          7           0        0.607693    1.368200    0.197911
      8          6           0        1.936992    1.077632    0.208199
      9          1           0        2.657972    1.869203    0.378069
     10          6           0        2.265610   -0.251473    0.000323
     11          1           0        3.247743   -0.702643   -0.049349
     12         16           0        0.845413   -1.171584   -0.203573
     13          6           0       -0.101625    0.271204   -0.022603
 ---------------------------------------------------------------------

 SCF Done:  E(RHF) =  -719.490281481     A.U. after    2 cycles

 The electronic state is 1-A.
 Alpha  occ. eigenvalues --  -94.01251 -20.55100 -15.53392 -11.36287 -11.32938
 Alpha  occ. eigenvalues --  -11.29556 -11.29357 -11.26039  -8.29491  -6.27236
 Alpha  occ. eigenvalues --   -6.27152  -6.26950  -1.47715  -1.30233  -1.11666
 Alpha  occ. eigenvalues --   -1.06748  -1.00910  -0.87919  -0.83031  -0.75047
 Alpha  occ. eigenvalues --   -0.71515  -0.65572  -0.64614  -0.63246  -0.59847
 Alpha  occ. eigenvalues --   -0.58983  -0.57618  -0.53603  -0.50814  -0.48989
 Alpha  occ. eigenvalues --   -0.43247  -0.42618  -0.36127
 Alpha virt. eigenvalues --    0.02925   0.03586   0.03877   0.04379   0.05236
 Alpha virt. eigenvalues --    0.05688   0.08012   0.09220   0.10488   0.11045
 Alpha virt. eigenvalues --    0.11323   0.11860   0.12413   0.12771   0.13867

 Mulliken charges:
               1
     1  O   -1.369608
     2  C   -0.501791
     3  H    0.299342
     4  H    0.106174
     5  H    0.299078
     6  C    1.507190
     7  N    1.044519
     8  C   -0.118873
     9  H   -0.092375
    10  C   -0.197533
    11  H   -0.134245
    12  S    0.735486
    13  C   -1.577365
 Sum of Mulliken charges =  -0.00000

 Dipole moment (field-independent basis, Debye):
    X=              2.4151    Y=             -4.2514    Z=              0.6486  Tot=              4.9323

 Test job not archived.
 1\1\GINC-SE453\SP\RHF\Aug-CC-pVDZ\C5H5N1O1S1\OHZDE\09-Apr-2025\0\\#t h
 f aug-cc-pvdz iop(5/13=1,5/36=2,99/5=2) pseudo=read geom=check guess=(
 read,tcheck) scf=(maxcycle=1)\\title\\0,1\O,0,21.2276,-18.5269,0.4391\
 C,0,21.6994,-16.4451,-0.6703\H,0,21.9885,-16.4756,-1.7255\H,0,20.6246,
 -16.2821,-0.5843\H,0,22.235,-15.6107,-0.2052\C,0,22.0598,-17.7588,-0.0
 104\N,0,23.9533,-19.367,0.0013\C,0,25.3138,-19.3909,-0.005\H,0,25.8337
 ,-20.3421,-0.0182\C,0,25.9389,-18.1552,-0.0007\H,0,26.9984,-17.9364,0.
 0132\S,0,24.768,-16.9166,-0.0011\C,0,23.5149,-18.1169,0.0159\\Version=

 Normal termination of Gaussian 16 at Wed Apr  9 02:22:16 2025.
