 Gaussian 16, Revision C.01,

 ----------------------------------------------------------------------
 #t hf aug-cc-pvdz symm=none int=(grid=ultrafine) guess=(read,tcheck) s
 table=(opt,rrhf)
 ----------------------------------------------------------------------
 -----
 title
 -----
 Symbolic Z-matrix:
 Charge =  0 Multiplicity = 1

 SCF Done:  E(RHF) =  -774.173698940     A.U. after   16 cycles
 Normal termination of Gaussian 16 at Wed Apr  9 02:25:29 2025.
 Gaussian 16:  ES64L-G16RevC.01  3-Jul-2019

 ----------------------------------------------------------------------
 #t hf aug-cc-pvdz iop(5/13=1,5/36=2,99/5=2) pseudo=read geom=check gue
 ss=(read,tcheck) scf=(maxcycle=1)
 ----------------------------------------------------------------------
 -----
 title
 -----
 Structure from the checkpoint file:  "DCONF_42_-100_mol1.chk"
 Charge =  0 Multiplicity = 1

                         Standard orientation:
 ---------------------------------------------------------------------
 Center     Atomic      Atomic             Coordinates (Angstroms)
 Number     Number       Type             X           Y           Z
 ---------------------------------------------------------------------
      1          6           0       -1.982965   -0.131731    0.176285
      2          7           0       -1.005765    0.359389   -0.699536
      3          1           0       -1.266937    1.176892   -1.238278
      4          7           0        0.978091    1.410426    0.146778
      5          6           0        2.276168    1.085070    0.436489
      6          1           0        2.943153    1.845458    0.824913
      7          6           0        2.625337   -0.231850    0.216574
      8          1           0        3.575333   -0.714463    0.402704
      9         16           0        1.283630   -1.093969   -0.401535
     10          6           0        0.345915    0.349162   -0.312247
     11          8           0       -1.713000   -0.877616    1.098073
     12          6           0       -3.383156    0.337546   -0.153525
     13          1           0       -3.540345    0.409837   -1.232617
     14          1           0       -3.538556    1.326377    0.289779
     15          1           0       -4.100812   -0.357558    0.281330
 ---------------------------------------------------------------------

 SCF Done:  E(RHF) =  -774.609788466     A.U. after    2 cycles

 The electronic state is 1-A.
 Alpha  occ. eigenvalues --  -93.99348 -20.53026 -15.55259 -15.51672 -11.37992
 Alpha  occ. eigenvalues --  -11.35345 -11.28061 -11.27536 -11.26164  -8.27610
 Alpha  occ. eigenvalues --   -6.25351  -6.25266  -6.25048  -1.47562  -1.31306
 Alpha  occ. eigenvalues --   -1.24169  -1.10178  -1.04589  -0.99358  -0.86611
 Alpha  occ. eigenvalues --   -0.82443  -0.80813  -0.72914  -0.70121  -0.66395
 Alpha  occ. eigenvalues --   -0.64859  -0.61783  -0.60078  -0.58416  -0.58143
 Alpha  occ. eigenvalues --   -0.54471  -0.52150  -0.48254  -0.46153  -0.44242
 Alpha  occ. eigenvalues --   -0.41214  -0.34498
 Alpha virt. eigenvalues --    0.03034   0.03924   0.04575   0.04797   0.05060
 Alpha virt. eigenvalues --    0.06541   0.07887   0.08497   0.09563   0.10617
 Alpha virt. eigenvalues --    0.10903   0.11859   0.11895   0.12500   0.13562

 Mulliken charges:
               1
     1  C    1.193790
     2  N    0.917051
     3  H    0.204374
     4  N    0.906503
     5  C   -0.165048
     6  H   -0.113252
     7  C    0.001814
     8  H   -0.142904
     9  S    0.786753
    10  C   -2.439574
    11  O   -1.281800
    12  C   -0.516163
    13  H    0.201741
    14  H    0.276311
    15  H    0.170405
 Sum of Mulliken charges =  -0.00000

 Dipole moment (field-independent basis, Debye):
    X=             -0.4273    Y=              0.7340    Z=             -2.2290  Tot=              2.3853

 Test job not archived.
 1\1\GINC-SE292\SP\RHF\Aug-CC-pVDZ\C5H6N2O1S1\OHZDE\09-Apr-2025\0\\#t h
 f aug-cc-pvdz iop(5/13=1,5/36=2,99/5=2) pseudo=read geom=check guess=(
 read,tcheck) scf=(maxcycle=1)\\title\\0,1\C,0,28.7881,-16.3481,-1.201\
 N,0,29.3113,-16.8497,-0.0019\H,0,28.6435,-17.2878,0.6217\N,0,30.7445,-
 18.7739,-0.0031\C,0,32.0823,-19.0655,0.0042\H,0,32.4031,-20.1004,0.002
 6\C,0,32.931,-17.9773,-0.0051\H,0,34.0123,-17.9696,-0.0331\S,0,32.0205
 ,-16.5294,0.0028\C,0,30.5746,-17.4671,0.0031\O,0,29.4902,-16.1009,-2.1
 627\C,0,27.2911,-16.1308,-1.1649\H,0,26.9579,-15.7824,-0.1841\H,0,26.7

 Normal termination of Gaussian 16 at Wed Apr  9 02:25:35 2025.
