 Gaussian 16, Revision C.01,

 ----------------------------------------------------------------------
 #t hf aug-cc-pvdz symm=none int=(grid=ultrafine) guess=(read,tcheck) s
 table=(opt,rrhf)
 ----------------------------------------------------------------------
 -----
 title
 -----
 Symbolic Z-matrix:
 Charge =  0 Multiplicity = 1

 SCF Done:  E(RHF) =  -911.019558102     A.U. after   16 cycles
 Normal termination of Gaussian 16 at Wed Apr  9 02:26:13 2025.
 Gaussian 16:  ES64L-G16RevC.01  3-Jul-2019

 ----------------------------------------------------------------------
 #t hf aug-cc-pvdz iop(5/13=1,5/36=2,99/5=2) pseudo=read geom=check gue
 ss=(read,tcheck) scf=(maxcycle=1)
 ----------------------------------------------------------------------
 -----
 title
 -----
 Structure from the checkpoint file:  "DCONF_30_-130_mol1.chk"
 Charge =  0 Multiplicity = 1

                         Standard orientation:
 ---------------------------------------------------------------------
 Center     Atomic      Atomic             Coordinates (Angstroms)
 Number     Number       Type             X           Y           Z
 ---------------------------------------------------------------------
      1          6           0        2.984142    0.791494    0.537956
      2          1           0        3.664078    1.517531    0.974855
      3          6           0        1.624772    1.102423    0.413947
      4          1           0        1.225124    2.054429    0.750460
      5          6           0        0.767389    0.153031   -0.149662
      6         16           0       -0.944498    0.578139   -0.381635
      7          7           0       -1.665249   -0.770107    0.328993
      8          6           0       -1.540197   -0.762294    1.792015
      9          1           0       -0.500315   -0.576619    2.072727
     10          1           0       -2.177110    0.001753    2.256596
     11          1           0       -1.825399   -1.752546    2.155699
     12          6           0       -3.054890   -0.973046   -0.109201
     13          1           0       -3.092240   -1.024377   -1.196880
     14          1           0       -3.385785   -1.926637    0.308618
     15          1           0       -3.723142   -0.176416    0.246081
     16          6           0        1.233029   -1.088458   -0.599256
     17          1           0        0.539010   -1.800219   -1.036259
     18          6           0        2.591506   -1.386911   -0.461762
     19          1           0        2.967917   -2.348311   -0.800255
     20          6           0        3.466318   -0.449492    0.105322
     21          1           0        4.521737   -0.686677    0.207323
     22          8           0       -1.204058    1.795339    0.382496
     23          8           0       -1.280639    0.521929   -1.796485
 ---------------------------------------------------------------------

 SCF Done:  E(RHF) =  -911.608292130     A.U. after    2 cycles

 The electronic state is 1-A.
 Alpha  occ. eigenvalues --  -94.20500 -20.53380 -20.53227 -15.53994 -11.28429
 Alpha  occ. eigenvalues --  -11.27882 -11.27538 -11.27505 -11.27391 -11.27244
 Alpha  occ. eigenvalues --  -11.26677 -11.26573  -8.45491  -6.43588  -6.43417
 Alpha  occ. eigenvalues --   -6.43337  -1.55176  -1.42970  -1.25951  -1.18097
 Alpha  occ. eigenvalues --   -1.06663  -1.04058  -0.98598  -0.97326  -0.87828
 Alpha  occ. eigenvalues --   -0.86013  -0.80610  -0.75327  -0.71989  -0.69312
 Alpha  occ. eigenvalues --   -0.68247  -0.66449  -0.65543  -0.63975  -0.62425
 Alpha  occ. eigenvalues --   -0.62117  -0.58377  -0.57695  -0.55614  -0.55204
 Alpha  occ. eigenvalues --   -0.53424  -0.53102  -0.50878  -0.48584  -0.46789
 Alpha  occ. eigenvalues --   -0.45480  -0.43562  -0.37339  -0.36633
 Alpha virt. eigenvalues --    0.02814   0.03210   0.03643   0.04569   0.04698
 Alpha virt. eigenvalues --    0.05262   0.06055   0.06712   0.07112   0.07209
 Alpha virt. eigenvalues --    0.07753   0.08649   0.08904   0.10337   0.11940

 Mulliken charges:
               1
     1  C    0.479410
     2  H   -0.212742
     3  C   -0.355927
     4  H   -0.271765
     5  C    0.579806
     6  S    3.898969
     7  N   -0.266200
     8  C   -0.461472
     9  H    0.071792
    10  H    0.246224
    11  H    0.112292
    12  C   -0.404566
    13  H    0.116657
    14  H    0.173286
    15  H    0.206776
    16  C   -0.243482
    17  H   -0.280279
    18  C    0.336210
    19  H   -0.234972
    20  C    0.101631
    21  H   -0.202417
    22  O   -1.720186
    23  O   -1.669047
 Sum of Mulliken charges =   0.00000

 Dipole moment (field-independent basis, Debye):
    X=              2.1374    Y=             -3.3106    Z=              2.6805  Tot=              4.7659

 Test job not archived.
 1\1\GINC-SE366\SP\RHF\Aug-CC-pVDZ\C8H11N1O2S1\OHZDE\09-Apr-2025\0\\#t
 hf aug-cc-pvdz iop(5/13=1,5/36=2,99/5=2) pseudo=read geom=check guess=
 (read,tcheck) scf=(maxcycle=1)\\title\\0,1\C,0,3.8138,-2.3669,0.2776\H
 ,0,4.5905,-2.2262,1.0241\C,0,2.6656,-1.5667,0.3131\H,0,2.5243,-0.8066,
 1.0757\C,0,1.6781,-1.7657,-0.6561\S,0,0.2567,-0.6958,-0.6604\N,0,-0.96
 51,-1.8558,-0.7224\C,0,-1.1198,-2.5704,0.551\H,0,-0.1453,-2.9253,0.896
 \H,0,-1.5644,-1.936,1.3289\H,0,-1.7599,-3.4375,0.3704\C,0,-2.2416,-1.3
 158,-1.2156\H,0,-2.0888,-0.8415,-2.1845\H,0,-2.9231,-2.1617,-1.3314\H,

 Normal termination of Gaussian 16 at Wed Apr  9 02:26:29 2025.
