 Gaussian 16, Revision C.01,

 ----------------------------------------------------------------------
 #t hf aug-cc-pvdz symm=none int=(grid=ultrafine) guess=(read,tcheck) s
 table=(opt,rrhf)
 ----------------------------------------------------------------------
 -----
 title
 -----
 Symbolic Z-matrix:
 Charge =  0 Multiplicity = 1

 SCF Done:  E(RHF) =  -780.899447231     A.U. after   16 cycles

 1\1\GINC-SE229\Stability\RHF\Aug-CC-pVDZ\C10H8S1\OHZDE\09-Apr-2025\0\\
 #t hf aug-cc-pvdz symm=none int=(grid=ultrafine) guess=(read,tcheck) s
 table=(opt,rrhf)\\title\\0,1\C,0,21.7962,-8.5259,0.0116\H,0,22.3493,-7
 .5907,0.0481\C,0,20.3987,-8.5127,-0.0077\H,0,19.8699,-7.563,0.0034\C,0
 ,19.6802,-9.7152,0.0003\H,0,18.5937,-9.7036,-0.0028\C,0,20.3722,-10.93
 26,0.0031\H,0,19.8237,-11.8711,0.0051\C,0,21.77,-10.9491,0.0008\H,0,22
 .2995,-11.8986,-0.0321\C,0,22.5005,-9.7455,-0.0079\C,0,24.8221,-8.7991
 ,-0.5545\H,0,24.4609,-7.9515,-1.1277\C,0,26.1912,-9.0885,-0.329\H,0,27

 Normal termination of Gaussian 16 at Wed Apr  9 02:28:59 2025.
 Gaussian 16:  ES64L-G16RevC.01  3-Jul-2019

 ----------------------------------------------------------------------
 #t hf aug-cc-pvdz iop(5/13=1,5/36=2,99/5=2) pseudo=read geom=check gue
 ss=(read,tcheck) scf=(maxcycle=1)
 ----------------------------------------------------------------------
 -----
 title
 -----
 Structure from the checkpoint file:  "DCONF_51_0_mol2.chk"
 Charge =  0 Multiplicity = 1

                         Standard orientation:
 ---------------------------------------------------------------------
 Center     Atomic      Atomic             Coordinates (Angstroms)
 Number     Number       Type             X           Y           Z
 ---------------------------------------------------------------------
      1          6           0        1.458252    1.224198   -0.303539
      2          1           0        0.958986    2.150484   -0.576632
      3          6           0        2.853778    1.148783   -0.322862
      4          1           0        3.435565    2.023592   -0.601997
      5          6           0        3.500754   -0.057402   -0.024784
      6          1           0        4.585301   -0.117926   -0.051629
      7          6           0        2.740157   -1.182401    0.316985
      8          1           0        3.233043   -2.121827    0.554010
      9          6           0        1.345040   -1.104374    0.358000
     10          1           0        0.763472   -1.973126    0.658088
     11          6           0        0.686187    0.103856    0.060595
     12          6           0       -1.552207    1.314540    0.389393
     13          1           0       -1.119187    2.258308    0.704424
     14          6           0       -2.943913    1.067486    0.283773
     15          1           0       -3.716187    1.800359    0.490275
     16          6           0       -3.218315   -0.234223   -0.096243
     17          1           0       -4.184374   -0.697278   -0.251356
     18         16           0       -1.782260   -1.137987   -0.339196
     19          6           0       -0.776475    0.200405    0.089008
 ---------------------------------------------------------------------

 SCF Done:  E(RHF) =  -781.349025246     A.U. after    2 cycles

 The electronic state is 1-A.
 Alpha  occ. eigenvalues --  -93.97949 -11.27802 -11.27201 -11.26327 -11.25072
 Alpha  occ. eigenvalues --  -11.25055 -11.25018 -11.24955 -11.24926 -11.24861
 Alpha  occ. eigenvalues --  -11.24733  -8.26159  -6.23929  -6.23833  -6.23628
 Alpha  occ. eigenvalues --   -1.19673  -1.15358  -1.04959  -1.02252  -1.00611
 Alpha  occ. eigenvalues --   -0.96586  -0.84952  -0.84154  -0.77078  -0.75698
 Alpha  occ. eigenvalues --   -0.72302  -0.68596  -0.64652  -0.63921  -0.60342
 Alpha  occ. eigenvalues --   -0.58974  -0.57010  -0.55438  -0.53766  -0.51784
 Alpha  occ. eigenvalues --   -0.51008  -0.50632  -0.48183  -0.37984  -0.35703
 Alpha  occ. eigenvalues --   -0.35004  -0.29947
 Alpha virt. eigenvalues --    0.03348   0.03454   0.03710   0.04347   0.04717
 Alpha virt. eigenvalues --    0.05482   0.06362   0.06938   0.07464   0.08880
 Alpha virt. eigenvalues --    0.09900   0.10291   0.11341   0.11575   0.12225

 Mulliken charges:
               1
     1  C   -0.239494
     2  H   -0.283357
     3  C    0.016876
     4  H   -0.217616
     5  C   -0.004503
     6  H   -0.213031
     7  C   -0.001150
     8  H   -0.222961
     9  C   -0.069489
    10  H   -0.260569
    11  C    1.868176
    12  C    0.026102
    13  H   -0.240636
    14  C    0.208792
    15  H   -0.127673
    16  C   -0.734975
    17  H   -0.165836
    18  S    0.615195
    19  C    0.046149
 Sum of Mulliken charges =   0.00000

 Dipole moment (field-independent basis, Debye):
    X=              0.0835    Y=              0.6567    Z=              0.1802  Tot=              0.6861

 Test job not archived.
 1\1\GINC-SE229\SP\RHF\Aug-CC-pVDZ\C10H8S1\OHZDE\09-Apr-2025\0\\#t hf a
 ug-cc-pvdz iop(5/13=1,5/36=2,99/5=2) pseudo=read geom=check guess=(rea
 d,tcheck) scf=(maxcycle=1)\\title\\0,1\C,0,21.7962,-8.5259,0.0116\H,0,
 22.3493,-7.5907,0.0481\C,0,20.3987,-8.5127,-0.0077\H,0,19.8699,-7.563,
 0.0034\C,0,19.6802,-9.7152,0.0003\H,0,18.5937,-9.7036,-0.0028\C,0,20.3
 722,-10.9326,0.0031\H,0,19.8237,-11.8711,0.0051\C,0,21.77,-10.9491,0.0
 008\H,0,22.2995,-11.8986,-0.0321\C,0,22.5005,-9.7455,-0.0079\C,0,24.82
 21,-8.7991,-0.5545\H,0,24.4609,-7.9515,-1.1277\C,0,26.1912,-9.0885,-0.

 Normal termination of Gaussian 16 at Wed Apr  9 02:29:13 2025.
