 Gaussian 16, Revision C.01,

 ----------------------------------------------------------------------
 #t hf aug-cc-pvdz symm=none int=(grid=ultrafine) guess=(read,tcheck) s
 table=(opt,rrhf)
 ----------------------------------------------------------------------
 -----
 title
 -----
 Symbolic Z-matrix:
 Charge =  0 Multiplicity = 1

 SCF Done:  E(RHF) =  -719.109527197     A.U. after   16 cycles
 Normal termination of Gaussian 16 at Wed Apr  9 02:22:36 2025.
 Gaussian 16:  ES64L-G16RevC.01  3-Jul-2019

 ----------------------------------------------------------------------
 #t hf aug-cc-pvdz iop(5/13=1,5/36=2,99/5=2) pseudo=read geom=check gue
 ss=(read,tcheck) scf=(maxcycle=1)
 ----------------------------------------------------------------------
 -----
 title
 -----
 Structure from the checkpoint file:  "DCONF_28_100_mol1.chk"
 Charge =  0 Multiplicity = 1

                         Standard orientation:
 ---------------------------------------------------------------------
 Center     Atomic      Atomic             Coordinates (Angstroms)
 Number     Number       Type             X           Y           Z
 ---------------------------------------------------------------------
      1          8           0        2.138527    0.456716   -1.210099
      2          6           0        2.360413   -0.340283    1.054646
      3          1           0        2.135869    0.332490    1.889050
      4          1           0        2.016581   -1.339855    1.341700
      5          1           0        3.432730   -0.352919    0.853969
      6          6           0        1.607498    0.128881   -0.164780
      7          7           0       -0.523380    1.342833    0.207201
      8          6           0       -1.876869    1.130685    0.245387
      9          1           0       -2.543587    1.965593    0.426082
     10          6           0       -2.282100   -0.171995    0.043674
     11          1           0       -3.287922   -0.569347    0.021624
     12         16           0       -0.917738   -1.175511   -0.202490
     13          6           0        0.105322    0.205824   -0.022626
 ---------------------------------------------------------------------

 SCF Done:  E(RHF) =  -719.488319336     A.U. after    2 cycles

 The electronic state is 1-A.
 Alpha  occ. eigenvalues --  -94.00873 -20.56047 -15.52985 -11.36854 -11.33303
 Alpha  occ. eigenvalues --  -11.29143 -11.28839 -11.26122  -8.29114  -6.26866
 Alpha  occ. eigenvalues --   -6.26778  -6.26565  -1.48567  -1.30061  -1.11149
 Alpha  occ. eigenvalues --   -1.06647  -1.01230  -0.87589  -0.82931  -0.74937
 Alpha  occ. eigenvalues --   -0.71384  -0.65754  -0.65313  -0.63010  -0.60093
 Alpha  occ. eigenvalues --   -0.58932  -0.57212  -0.53508  -0.51027  -0.49273
 Alpha  occ. eigenvalues --   -0.43419  -0.42609  -0.36019
 Alpha virt. eigenvalues --    0.03074   0.03670   0.04359   0.05250   0.05602
 Alpha virt. eigenvalues --    0.07341   0.07550   0.09489   0.09877   0.10626
 Alpha virt. eigenvalues --    0.11108   0.11493   0.12336   0.12816   0.13829

 Mulliken charges:
               1
     1  O   -1.317262
     2  C   -0.416880
     3  H    0.303922
     4  H    0.280714
     5  H    0.119782
     6  C    1.286904
     7  N    0.971181
     8  C   -0.101051
     9  H   -0.097614
    10  C   -0.094329
    11  H   -0.137665
    12  S    0.621124
    13  C   -1.418825
 Sum of Mulliken charges =   0.00000

 Dipole moment (field-independent basis, Debye):
    X=             -1.9338    Y=             -2.5564    Z=              2.4024  Tot=              4.0058

 Test job not archived.
 1\1\GINC-SE462\SP\RHF\Aug-CC-pVDZ\C5H5N1O1S1\OHZDE\09-Apr-2025\0\\#t h
 f aug-cc-pvdz iop(5/13=1,5/36=2,99/5=2) pseudo=read geom=check guess=(
 read,tcheck) scf=(maxcycle=1)\\title\\0,1\O,0,21.4383,-17.8041,-1.0655
 \C,0,21.4361,-17.3999,1.3115\H,0,21.5663,-18.2392,2.0028\H,0,21.9601,-
 16.5399,1.7423\H,0,20.3767,-17.172,1.1849\C,0,22.0534,-17.7625,-0.0157
 \N,0,23.9482,-19.3631,0.0067\C,0,25.3184,-19.3911,-0.0061\H,0,25.8332,
 -20.3446,-0.0135\C,0,25.9399,-18.16,-0.0081\H,0,26.9987,-17.9394,-0.02
 63\S,0,24.7663,-16.9144,0.0083\C,0,23.5224,-18.1143,0.0149\\Version=ES

 Normal termination of Gaussian 16 at Wed Apr  9 02:22:41 2025.
