 Gaussian 16, Revision C.01,

 ----------------------------------------------------------------------
 #t hf aug-cc-pvdz symm=none int=(grid=ultrafine) guess=(read,tcheck) s
 table=(opt,rrhf)
 ----------------------------------------------------------------------
 -----
 title
 -----
 Symbolic Z-matrix:
 Charge =  0 Multiplicity = 1

 SCF Done:  E(RHF) =  -217.140909697     A.U. after   12 cycles
 Normal termination of Gaussian 16 at Wed Apr  9 02:31:12 2025.
 Gaussian 16:  ES64L-G16RevC.01  3-Jul-2019

 ----------------------------------------------------------------------
 #t hf aug-cc-pvdz iop(5/13=1,5/36=2,99/5=2) pseudo=read geom=check gue
 ss=(read,tcheck) scf=(maxcycle=1)
 ----------------------------------------------------------------------
 -----
 title
 -----
 Structure from the checkpoint file:  "DCONF_7_160_mol1.chk"
 Charge =  0 Multiplicity = 1

                         Standard orientation:
 ---------------------------------------------------------------------
 Center     Atomic      Atomic             Coordinates (Angstroms)
 Number     Number       Type             X           Y           Z
 ---------------------------------------------------------------------
      1          9           0       -1.846711   -0.152676   -0.130954
      2          6           0       -0.627138    0.479536    0.125631
      3          1           0       -0.482330    1.221297   -0.666500
      4          1           0       -0.715153    0.993972    1.086921
      5          6           0        0.502897   -0.533213    0.117932
      6          1           0        0.495759   -1.108867    1.048233
      7          1           0        0.310737   -1.233955   -0.700771
      8          6           0        1.857338    0.144899   -0.098043
      9          1           0        2.054895    0.895363    0.674495
     10          1           0        1.888825    0.644803   -1.070647
     11          1           0        2.669079   -0.585860   -0.066261
 ---------------------------------------------------------------------

 SCF Done:  E(RHF) =  -217.366590477     A.U. after    2 cycles

 The electronic state is 1-A.
 Alpha  occ. eigenvalues --  -26.43612 -11.31462 -11.23911 -11.23727  -1.55583
 Alpha  occ. eigenvalues --   -1.07028  -0.93176  -0.82818  -0.69704  -0.67039
 Alpha  occ. eigenvalues --   -0.64710  -0.61145  -0.56954  -0.53181  -0.51680
 Alpha  occ. eigenvalues --   -0.48851  -0.48683
 Alpha virt. eigenvalues --    0.03601   0.04028   0.04180   0.05086   0.07194
 Alpha virt. eigenvalues --    0.07453   0.07774   0.11060   0.12275   0.15079
 Alpha virt. eigenvalues --    0.15455   0.15588   0.16641   0.16845   0.17214

 Mulliken charges:
               1
     1  F   -0.730496
     2  C    0.686947
     3  H    0.070973
     4  H    0.086037
     5  C   -0.602307
     6  H    0.168101
     7  H    0.195792
     8  C   -0.330925
     9  H    0.184356
    10  H    0.148929
    11  H    0.122594
 Sum of Mulliken charges =  -0.00000

 Dipole moment (field-independent basis, Debye):
    X=              1.9378    Y=              0.6527    Z=              0.3216  Tot=              2.0699

 Test job not archived.
 1\1\GINC-SE105\SP\RHF\Aug-CC-pVDZ\C3H7F1\OHZDE\09-Apr-2025\0\\#t hf au
 g-cc-pvdz iop(5/13=1,5/36=2,99/5=2) pseudo=read geom=check guess=(read
 ,tcheck) scf=(maxcycle=1)\\title\\0,1\F,0,13.257,-26.475,0.005\C,0,14.
 4051,-25.6783,0.0001\H,0,14.3629,-25.0679,-0.9078\H,0,14.359,-25.0234,
 0.875\C,0,15.6491,-26.5473,-0.0015\H,0,15.8208,-26.9567,0.9984\H,0,15.
 4593,-27.3918,-0.6716\C,0,16.8713,-25.7697,-0.494\H,0,17.0548,-24.8836
 ,0.1226\H,0,16.7287,-25.4389,-1.527\H,0,17.7695,-26.3909,-0.4581\\Vers
 ion=ES64L-G16RevC.01\State=1-A\HF=-217.3665905\RMSD=8.130e-03\Dipole=0

 Normal termination of Gaussian 16 at Wed Apr  9 02:31:14 2025.
