 Gaussian 16, Revision C.01,

 ----------------------------------------------------------------------
 #t hf aug-cc-pvdz symm=none int=(grid=ultrafine) guess=(read,tcheck) s
 table=(opt,rrhf)
 ----------------------------------------------------------------------
 -----
 title
 -----
 Symbolic Z-matrix:
 Charge =  0 Multiplicity = 1

 SCF Done:  E(RHF) =  -796.901803477     A.U. after   17 cycles
 Normal termination of Gaussian 16 at Wed Apr  9 02:29:33 2025.
 Gaussian 16:  ES64L-G16RevC.01  3-Jul-2019

 ----------------------------------------------------------------------
 #t hf aug-cc-pvdz iop(5/13=1,5/36=2,99/5=2) pseudo=read geom=check gue
 ss=(read,tcheck) scf=(maxcycle=1)
 ----------------------------------------------------------------------
 -----
 title
 -----
 Structure from the checkpoint file:  "DCONF_55_-110_mol1.chk"
 Charge =  0 Multiplicity = 1

                         Standard orientation:
 ---------------------------------------------------------------------
 Center     Atomic      Atomic             Coordinates (Angstroms)
 Number     Number       Type             X           Y           Z
 ---------------------------------------------------------------------
      1          6           0       -1.416738    1.103982   -0.569950
      2          1           0       -0.892946    1.945818   -1.015457
      3          6           0       -2.812939    1.034275   -0.595740
      4          1           0       -3.384391    1.826966   -1.071499
      5          6           0       -3.474673   -0.050194   -0.005330
      6          1           0       -4.559865   -0.102828   -0.026670
      7          6           0       -2.735717   -1.065628    0.613928
      8          1           0       -3.246477   -1.901225    1.085320
      9          6           0       -1.338676   -0.997278    0.646898
     10          1           0       -0.760400   -1.772456    1.144371
     11          6           0       -0.673182    0.080256    0.039779
     12          7           0        1.448561    1.094884    0.812477
     13          6           0        2.800248    0.909900    0.692481
     14          1           0        3.478209    1.576343    1.213331
     15          6           0        3.193057   -0.151046   -0.099033
     16          1           0        4.197154   -0.479155   -0.333017
     17         16           0        1.813036   -0.941458   -0.728981
     18          6           0        0.795324    0.186680    0.106964
 ---------------------------------------------------------------------

 SCF Done:  E(RHF) =  -797.363916107     A.U. after    2 cycles

 The electronic state is 1-A.
 Alpha  occ. eigenvalues --  -93.99174 -15.51317 -11.32168 -11.27862 -11.27408
 Alpha  occ. eigenvalues --  -11.26485 -11.25719 -11.25550 -11.25502 -11.25363
 Alpha  occ. eigenvalues --  -11.25305  -8.27410  -6.25159  -6.25072  -6.24866
 Alpha  occ. eigenvalues --   -1.28650  -1.16342  -1.09530  -1.05999  -1.02427
 Alpha  occ. eigenvalues --   -0.98882  -0.86417  -0.84616  -0.81794  -0.77024
 Alpha  occ. eigenvalues --   -0.72418  -0.69459  -0.65568  -0.64763  -0.61474
 Alpha  occ. eigenvalues --   -0.60801  -0.59064  -0.57521  -0.52606  -0.52097
 Alpha  occ. eigenvalues --   -0.51483  -0.51320  -0.46640  -0.41314  -0.36527
 Alpha  occ. eigenvalues --   -0.35295  -0.33467
 Alpha virt. eigenvalues --    0.03367   0.03516   0.03762   0.04446   0.04840
 Alpha virt. eigenvalues --    0.05984   0.06785   0.07455   0.07954   0.09548
 Alpha virt. eigenvalues --    0.09906   0.10201   0.10767   0.11252   0.11661

 Mulliken charges:
               1
     1  C   -0.254117
     2  H   -0.239604
     3  C    0.104508
     4  H   -0.212449
     5  C    0.054432
     6  H   -0.209837
     7  C    0.141790
     8  H   -0.214349
     9  C   -0.123228
    10  H   -0.249511
    11  C    2.592089
    12  N    1.178464
    13  C   -0.194759
    14  H   -0.125456
    15  C    0.005425
    16  H   -0.142909
    17  S    0.473670
    18  C   -2.584159
 Sum of Mulliken charges =  -0.00000

 Dipole moment (field-independent basis, Debye):
    X=             -0.0472    Y=             -1.2966    Z=             -0.9757  Tot=              1.6234

 Test job not archived.
 1\1\GINC-SE090\SP\RHF\Aug-CC-pVDZ\C9H7N1S1\OHZDE\09-Apr-2025\0\\#t hf
 aug-cc-pvdz iop(5/13=1,5/36=2,99/5=2) pseudo=read geom=check guess=(re
 ad,tcheck) scf=(maxcycle=1)\\title\\0,1\C,0,21.8292,-21.141,-0.0052\H,
 0,22.3938,-20.2122,0.0037\C,0,20.4311,-21.1294,0.004\H,0,19.8991,-20.1
 817,0.0142\C,0,19.7171,-22.3347,0.0062\H,0,18.6305,-22.3237,0.013\C,0,
 20.4057,-23.5539,0.0013\H,0,19.855,-24.4908,0.0173\C,0,21.8047,-23.570
 3,-0.0024\H,0,22.345,-24.514,0.0146\C,0,22.5217,-22.3628,-0.0227\N,0,2
 4.7158,-21.9613,1.0511\C,0,26.0512,-22.1184,0.7909\H,0,26.7784,-21.831

 Normal termination of Gaussian 16 at Wed Apr  9 02:29:44 2025.
