 Gaussian 16, Revision C.01,

 ----------------------------------------------------------------------
 #t hf aug-cc-pvdz symm=none int=(grid=ultrafine) guess=(read,tcheck) s
 table=(opt,rrhf)
 ----------------------------------------------------------------------
 -----
 title
 -----
 Symbolic Z-matrix:
 Charge =  0 Multiplicity = 1

 SCF Done:  E(RHF) =  -355.057579374     A.U. after   12 cycles
 Normal termination of Gaussian 16 at Wed Apr  9 02:32:27 2025.
 Gaussian 16:  ES64L-G16RevC.01  3-Jul-2019

 ----------------------------------------------------------------------
 #t hf aug-cc-pvdz iop(5/13=1,5/36=2,99/5=2) pseudo=read geom=check gue
 ss=(read,tcheck) scf=(maxcycle=1)
 ----------------------------------------------------------------------
 -----
 title
 -----
 Structure from the checkpoint file:  "DCONF_9_150_mol1.chk"
 Charge =  0 Multiplicity = 1

                         Standard orientation:
 ---------------------------------------------------------------------
 Center     Atomic      Atomic             Coordinates (Angstroms)
 Number     Number       Type             X           Y           Z
 ---------------------------------------------------------------------
      1          6           0       -0.260174   -0.342964   -0.334356
      2          1           0       -0.273532    0.024209   -1.365389
      3          1           0       -0.333387   -1.435261   -0.367343
      4          6           0       -1.433045    0.218189    0.471525
      5          1           0       -1.318243    1.303507    0.576082
      6          1           0       -1.405701   -0.205182    1.482546
      7          6           0       -2.777490   -0.096111   -0.183338
      8          1           0       -2.834311    0.347071   -1.182236
      9          1           0       -3.608237    0.296668    0.409350
     10          1           0       -2.914970   -1.177304   -0.285874
     11          6           0        1.076722    0.006831    0.278599
     12          1           0        1.041537    0.118577    1.365708
     13          9           0        1.549305    1.185301   -0.234062
     14          9           0        2.007447   -0.961741    0.008792
 ---------------------------------------------------------------------

 SCF Done:  E(RHF) =  -355.412616781     A.U. after    2 cycles

 The electronic state is 1-A.
 Alpha  occ. eigenvalues --  -26.46824 -26.46686 -11.41021 -11.24897 -11.24788
 Alpha  occ. eigenvalues --  -11.23689  -1.63123  -1.56497  -1.09821  -0.99698
 Alpha  occ. eigenvalues --   -0.88847  -0.83423  -0.75405  -0.73564  -0.71014
 Alpha  occ. eigenvalues --   -0.65536  -0.62931  -0.60635  -0.59499  -0.59040
 Alpha  occ. eigenvalues --   -0.55302  -0.53508  -0.50353  -0.49550  -0.49294
 Alpha virt. eigenvalues --    0.03440   0.03671   0.04156   0.04930   0.06556
 Alpha virt. eigenvalues --    0.06983   0.07398   0.08049   0.10962   0.12528
 Alpha virt. eigenvalues --    0.13509   0.13884   0.15006   0.15667   0.16327

 Mulliken charges:
               1
     1  C   -0.513127
     2  H    0.140585
     3  H    0.156907
     4  C   -0.410568
     5  H    0.146024
     6  H    0.120943
     7  C   -0.370348
     8  H    0.174159
     9  H    0.123067
    10  H    0.181784
    11  C    1.773884
    12  H    0.003144
    13  F   -0.759473
    14  F   -0.766982
 Sum of Mulliken charges =  -0.00000

 Dipole moment (field-independent basis, Debye):
    X=             -2.4097    Y=             -0.2855    Z=              0.8522  Tot=              2.5718

 Test job not archived.
 1\1\GINC-SE112\SP\RHF\Aug-CC-pVDZ\C4H8F2\OHZDE\09-Apr-2025\0\\#t hf au
 g-cc-pvdz iop(5/13=1,5/36=2,99/5=2) pseudo=read geom=check guess=(read
 ,tcheck) scf=(maxcycle=1)\\title\\0,1\C,0,-0.1311,-0.0753,-0.0594\H,0,
 -0.2059,0.4736,-1.0034\H,0,-0.2335,0.6477,0.7569\C,0,1.216,-0.7895,0.0
 639\H,0,1.2867,-1.5706,-0.7022\H,0,1.2656,-1.2911,1.0376\C,0,2.39,0.17
 83,-0.0784\H,0,2.374,0.6645,-1.0586\H,0,3.3465,-0.3411,0.0266\H,0,2.34
 24,0.96,0.6865\C,0,-1.2981,-1.0322,0.029\H,0,-1.0937,-1.9127,0.6442\F,
 0,-1.6495,-1.4813,-1.2159\F,0,-2.3963,-0.4164,0.5693\\Version=ES64L-G1

 Normal termination of Gaussian 16 at Wed Apr  9 02:32:31 2025.
