 Gaussian 16, Revision C.01,

 ----------------------------------------------------------------------
 #t hf aug-cc-pvdz symm=none int=(grid=ultrafine) guess=(read,tcheck) s
 table=(opt,rrhf)
 ----------------------------------------------------------------------
 -----
 title
 -----
 Symbolic Z-matrix:
 Charge =  0 Multiplicity = 1

 SCF Done:  E(RHF) =  -758.167963940     A.U. after   16 cycles
 Normal termination of Gaussian 16 at Wed Apr  9 02:25:46 2025.
 Gaussian 16:  ES64L-G16RevC.01  3-Jul-2019

 ----------------------------------------------------------------------
 #t hf aug-cc-pvdz iop(5/13=1,5/36=2,99/5=2) pseudo=read geom=check gue
 ss=(read,tcheck) scf=(maxcycle=1)
 ----------------------------------------------------------------------
 -----
 title
 -----
 Structure from the checkpoint file:  "DCONF_38_0_mol1.chk"
 Charge =  0 Multiplicity = 1

                         Standard orientation:
 ---------------------------------------------------------------------
 Center     Atomic      Atomic             Coordinates (Angstroms)
 Number     Number       Type             X           Y           Z
 ---------------------------------------------------------------------
      1          6           0       -2.133714    0.162402   -0.044728
      2          7           0       -0.979536   -0.599602   -0.020078
      3          1           0       -1.091444   -1.580293    0.195531
      4          6           0        0.758730    1.226350    0.078548
      5          1           0        0.081587    2.067050    0.112863
      6          6           0        2.180087    1.308968    0.068533
      7          1           0        2.729371    2.242859    0.112220
      8          6           0        2.798065    0.079767    0.006668
      9          1           0        3.855393   -0.147629    0.006283
     10         16           0        1.649878   -1.199761   -0.056768
     11          6           0        0.325436   -0.087187    0.036254
     12          8           0       -2.129161    1.377837   -0.159135
     13          6           0       -3.408501   -0.645927    0.098832
     14          1           0       -3.277130   -1.701742   -0.150167
     15          1           0       -4.167791   -0.210257   -0.551691
     16          1           0       -3.758604   -0.565545    1.132229
 ---------------------------------------------------------------------

 SCF Done:  E(RHF) =  -758.591453712     A.U. after    2 cycles

 The electronic state is 1-A.
 Alpha  occ. eigenvalues --  -93.98297 -20.52308 -15.55937 -11.37639 -11.31701
 Alpha  occ. eigenvalues --  -11.26761 -11.26049 -11.24998 -11.23613  -8.26554
 Alpha  occ. eigenvalues --   -6.24334  -6.24235  -6.24008  -1.46867  -1.27683
 Alpha  occ. eigenvalues --   -1.17736  -1.03989  -1.01147  -0.97171  -0.86324
 Alpha  occ. eigenvalues --   -0.81346  -0.75587  -0.72277  -0.69197  -0.64965
 Alpha  occ. eigenvalues --   -0.63797  -0.60511  -0.58401  -0.58018  -0.56968
 Alpha  occ. eigenvalues --   -0.54451  -0.52068  -0.49335  -0.46216  -0.43373
 Alpha  occ. eigenvalues --   -0.35892  -0.31267
 Alpha virt. eigenvalues --    0.02812   0.03810   0.04621   0.04680   0.04932
 Alpha virt. eigenvalues --    0.06060   0.07577   0.08557   0.08801   0.10530
 Alpha virt. eigenvalues --    0.11335   0.11659   0.12382   0.12698   0.13510

 Mulliken charges:
               1
     1  C    0.780003
     2  N    1.047934
     3  H    0.084662
     4  C    0.655522
     5  H   -0.181991
     6  C    0.546350
     7  H   -0.111091
     8  C   -0.590931
     9  H   -0.154515
    10  S    0.776042
    11  C   -1.741860
    12  O   -1.380001
    13  C   -0.343279
    14  H    0.135157
    15  H    0.207859
    16  H    0.270139
 Sum of Mulliken charges =   0.00000

 Dipole moment (field-independent basis, Debye):
    X=             -0.3965    Y=             -2.7063    Z=              0.6735  Tot=              2.8169

 Test job not archived.
 1\1\GINC-SE092\SP\RHF\Aug-CC-pVDZ\C6H7N1O1S1\OHZDE\09-Apr-2025\0\\#t h
 f aug-cc-pvdz iop(5/13=1,5/36=2,99/5=2) pseudo=read geom=check guess=(
 read,tcheck) scf=(maxcycle=1)\\title\\0,1\C,0,28.2598,-5.378,0.0923\N,
 0,29.4598,-4.6926,0.0322\H,0,29.4092,-3.717,-0.2255\C,0,31.0784,-6.627
 8,0.0092\H,0,30.3492,-7.4245,0.0128\C,0,32.4917,-6.8,0.0198\H,0,32.980
 5,-7.7679,0.0155\C,0,33.1866,-5.611,0.027\H,0,34.2562,-5.4514,0.0153\S
 ,0,32.1221,-4.2596,0.0373\C,0,30.7294,-5.2888,-0.0046\O,0,28.1879,-6.5
 852,0.2593\C,0,27.0381,-4.4973,-0.0835\H,0,27.2373,-3.4422,0.1192\H,0,

 Normal termination of Gaussian 16 at Wed Apr  9 02:25:54 2025.
