 Gaussian 16, Revision C.01,

 ----------------------------------------------------------------------
 #t hf aug-cc-pvdz symm=none int=(grid=ultrafine) guess=(read,tcheck) s
 table=(opt,rrhf)
 ----------------------------------------------------------------------
 -----
 title
 -----
 Symbolic Z-matrix:
 Charge =  0 Multiplicity = 1

 SCF Done:  E(RHF) =  -758.167063421     A.U. after   15 cycles
 Normal termination of Gaussian 16 at Wed Apr  9 02:25:04 2025.
 Gaussian 16:  ES64L-G16RevC.01  3-Jul-2019

 ----------------------------------------------------------------------
 #t hf aug-cc-pvdz iop(5/13=1,5/36=2,99/5=2) pseudo=read geom=check gue
 ss=(read,tcheck) scf=(maxcycle=1)
 ----------------------------------------------------------------------
 -----
 title
 -----
 Structure from the checkpoint file:  "DCONF_38_-110_mol1.chk"
 Charge =  0 Multiplicity = 1

                         Standard orientation:
 ---------------------------------------------------------------------
 Center     Atomic      Atomic             Coordinates (Angstroms)
 Number     Number       Type             X           Y           Z
 ---------------------------------------------------------------------
      1          6           0       -2.153911    0.072258   -0.000111
      2          7           0       -1.046748    0.533889   -0.699481
      3          1           0       -1.248694    0.844150   -1.643353
      4          6           0        1.142584    1.398433    0.129705
      5          1           0        0.805858    2.422450    0.250682
      6          6           0        2.451759    0.926297    0.399916
      7          1           0        3.265172    1.543874    0.763443
      8          6           0        2.583421   -0.429807    0.159243
      9          1           0        3.460758   -1.048249    0.299395
     10         16           0        1.125335   -1.123681   -0.411725
     11          6           0        0.293204    0.393500   -0.302209
     12          8           0       -3.267927    0.124004   -0.496963
     13          6           0       -1.878113   -0.471053    1.385143
     14          1           0       -1.107662    0.107095    1.900287
     15          1           0       -2.812119   -0.451056    1.946280
     16          1           0       -1.531691   -1.506379    1.312808
 ---------------------------------------------------------------------

 SCF Done:  E(RHF) =  -758.591338391     A.U. after    2 cycles

 The electronic state is 1-A.
 Alpha  occ. eigenvalues --  -93.99311 -20.51535 -15.54249 -11.36801 -11.31901
 Alpha  occ. eigenvalues --  -11.28761 -11.26387 -11.26307 -11.24742  -8.27534
 Alpha  occ. eigenvalues --   -6.25292  -6.25202  -6.24992  -1.46008  -1.26684
 Alpha  occ. eigenvalues --   -1.18642  -1.02642  -1.01869  -0.99164  -0.85220
 Alpha  occ. eigenvalues --   -0.79563  -0.78894  -0.73516  -0.68579  -0.64877
 Alpha  occ. eigenvalues --   -0.63776  -0.59659  -0.59000  -0.57917  -0.57110
 Alpha  occ. eigenvalues --   -0.54593  -0.52931  -0.50162  -0.43417  -0.42773
 Alpha  occ. eigenvalues --   -0.37165  -0.34582
 Alpha virt. eigenvalues --    0.03012   0.03434   0.04057   0.04578   0.05615
 Alpha virt. eigenvalues --    0.05871   0.06573   0.08137   0.08713   0.09648
 Alpha virt. eigenvalues --    0.10994   0.11830   0.12423   0.12965   0.13174

 Mulliken charges:
               1
     1  C    0.853669
     2  N    1.024944
     3  H    0.184922
     4  C    0.311091
     5  H   -0.178848
     6  C    0.401793
     7  H   -0.104203
     8  C   -0.588175
     9  H   -0.128975
    10  S    0.822897
    11  C   -1.548709
    12  O   -1.303332
    13  C   -0.417096
    14  H    0.280446
    15  H    0.090821
    16  H    0.298754
 Sum of Mulliken charges =   0.00000

 Dipole moment (field-independent basis, Debye):
    X=              4.0250    Y=              0.4222    Z=              1.3736  Tot=              4.2738

 Test job not archived.
 1\1\GINC-SE334\SP\RHF\Aug-CC-pVDZ\C6H7N1O1S1\OHZDE\09-Apr-2025\0\\#t h
 f aug-cc-pvdz iop(5/13=1,5/36=2,99/5=2) pseudo=read geom=check guess=(
 read,tcheck) scf=(maxcycle=1)\\title\\0,1\C,0,28.7971,-4.0798,-1.016\N
 ,0,29.4384,-4.7262,0.0323\H,0,28.9691,-4.6382,0.9267\C,0,31.0795,-6.60
 62,0.0089\H,0,30.3312,-7.3914,-0.0029\C,0,32.4827,-6.8081,0.0205\H,0,3
 2.9641,-7.7794,0.0156\C,0,33.1868,-5.6171,0.0266\H,0,34.2604,-5.4789,0
 .0158\S,0,32.1455,-4.2573,0.0375\C,0,30.7351,-5.2649,-0.0048\O,0,27.72
 27,-3.5272,-0.8403\C,0,29.5086,-4.1244,-2.3509\H,0,29.9948,-5.0882,-2.

 Normal termination of Gaussian 16 at Wed Apr  9 02:25:11 2025.
