 Gaussian 16, Revision C.01,

 ----------------------------------------------------------------------
 #t hf aug-cc-pvdz symm=none int=(grid=ultrafine) guess=(read,tcheck) s
 table=(opt,rrhf)
 ----------------------------------------------------------------------
 -----
 title
 -----
 Symbolic Z-matrix:
 Charge =  0 Multiplicity = 1

 SCF Done:  E(RHF) =  -355.060293242     A.U. after   12 cycles
 Normal termination of Gaussian 16 at Wed Apr  9 02:32:28 2025.
 Gaussian 16:  ES64L-G16RevC.01  3-Jul-2019

 ----------------------------------------------------------------------
 #t hf aug-cc-pvdz iop(5/13=1,5/36=2,99/5=2) pseudo=read geom=check gue
 ss=(read,tcheck) scf=(maxcycle=1)
 ----------------------------------------------------------------------
 -----
 title
 -----
 Structure from the checkpoint file:  "DCONF_9_0_mol2.chk"
 Charge =  0 Multiplicity = 1

                         Standard orientation:
 ---------------------------------------------------------------------
 Center     Atomic      Atomic             Coordinates (Angstroms)
 Number     Number       Type             X           Y           Z
 ---------------------------------------------------------------------
      1          6           0       -0.241677   -0.524940   -0.127977
      2          1           0       -0.202044   -0.634394   -1.217396
      3          1           0       -0.372727   -1.523798    0.303235
      4          6           0       -1.397859    0.387379    0.282380
      5          1           0       -1.252703    1.375467   -0.164908
      6          1           0       -1.383361    0.523594    1.370893
      7          6           0       -2.749443   -0.184979   -0.145046
      8          1           0       -2.788532   -0.313320   -1.231164
      9          1           0       -3.568860    0.477571    0.146968
     10          1           0       -2.922739   -1.162286    0.316641
     11          6           0        1.097094   -0.006916    0.325015
     12          1           0        1.182509    0.125268    1.406692
     13          9           0        1.357349    1.205603   -0.258108
     14          9           0        2.093737   -0.860200   -0.068247
 ---------------------------------------------------------------------

 SCF Done:  E(RHF) =  -355.415506070     A.U. after    2 cycles

 The electronic state is 1-A.
 Alpha  occ. eigenvalues --  -26.46734 -26.46729 -11.41015 -11.24937 -11.24508
 Alpha  occ. eigenvalues --  -11.23565  -1.63160  -1.56438  -1.09724  -0.99774
 Alpha  occ. eigenvalues --   -0.88893  -0.82968  -0.75961  -0.73254  -0.71196
 Alpha  occ. eigenvalues --   -0.65320  -0.63005  -0.60202  -0.59443  -0.58571
 Alpha  occ. eigenvalues --   -0.55568  -0.53829  -0.50270  -0.49577  -0.49104
 Alpha virt. eigenvalues --    0.03451   0.03711   0.04047   0.05003   0.06454
 Alpha virt. eigenvalues --    0.06999   0.07424   0.08151   0.11018   0.12179
 Alpha virt. eigenvalues --    0.13511   0.13952   0.15049   0.15688   0.16040

 Mulliken charges:
               1
     1  C   -0.674451
     2  H    0.141936
     3  H    0.178183
     4  C   -0.352407
     5  H    0.158610
     6  H    0.122574
     7  C   -0.373864
     8  H    0.180132
     9  H    0.121828
    10  H    0.166378
    11  C    1.840795
    12  H    0.018140
    13  F   -0.768241
    14  F   -0.759613
 Sum of Mulliken charges =  -0.00000

 Dipole moment (field-independent basis, Debye):
    X=             -2.1915    Y=             -0.4423    Z=              1.0900  Tot=              2.4872

 Test job not archived.
 1\1\GINC-SE105\SP\RHF\Aug-CC-pVDZ\C4H8F2\OHZDE\09-Apr-2025\0\\#t hf au
 g-cc-pvdz iop(5/13=1,5/36=2,99/5=2) pseudo=read geom=check guess=(read
 ,tcheck) scf=(maxcycle=1)\\title\\0,1\C,0,-0.1296,-0.0844,-0.084\H,0,-
 0.218,0.4126,-1.0564\H,0,-0.2283,0.6822,0.6928\C,0,1.2179,-0.7961,0.03
 93\H,0,1.3,-1.5502,-0.7494\H,0,1.26,-1.3291,0.9973\C,0,2.3866,0.185,-0
 .0537\H,0,2.3703,0.7156,-1.0107\H,0,3.3454,-0.3342,0.0289\H,0,2.3347,0
 .9304,0.7463\C,0,-1.2981,-1.0233,0.0536\H,0,-1.326,-1.5662,1.0019\F,0,
 -1.2779,-1.9545,-0.9516\F,0,-2.4763,-0.3349,-0.0647\\Version=ES64L-G16

 Normal termination of Gaussian 16 at Wed Apr  9 02:32:31 2025.
