 Gaussian 16, Revision C.01,

 ----------------------------------------------------------------------
 #t hf aug-cc-pvdz symm=none int=(grid=ultrafine) guess=(read,tcheck) s
 table=(opt,rrhf)
 ----------------------------------------------------------------------
 -----
 title
 -----
 Symbolic Z-matrix:
 Charge =  0 Multiplicity = 1

 SCF Done:  E(RHF) =  -703.117950326     A.U. after   16 cycles
 Normal termination of Gaussian 16 at Wed Apr  9 02:22:14 2025.
 Gaussian 16:  ES64L-G16RevC.01  3-Jul-2019

 ----------------------------------------------------------------------
 #t hf aug-cc-pvdz iop(5/13=1,5/36=2,99/5=2) pseudo=read geom=check gue
 ss=(read,tcheck) scf=(maxcycle=1)
 ----------------------------------------------------------------------
 -----
 title
 -----
 Structure from the checkpoint file:  "DCONF_24_-170_mol1.chk"
 Charge =  0 Multiplicity = 1

                         Standard orientation:
 ---------------------------------------------------------------------
 Center     Atomic      Atomic             Coordinates (Angstroms)
 Number     Number       Type             X           Y           Z
 ---------------------------------------------------------------------
      1          8           0       -2.215084    1.327333   -0.104636
      2          6           0       -2.327260   -1.059942    0.118909
      3          1           0       -1.967013   -1.778759   -0.624009
      4          1           0       -3.399092   -0.903747   -0.007498
      5          1           0       -2.133694   -1.480181    1.111219
      6          6           0       -1.610161    0.266546   -0.022845
      7          6           0        0.691834    1.374570    0.050817
      8          1           0        0.279308    2.376707    0.091292
      9          6           0        2.064917    1.047107    0.066096
     10          1           0        2.871759    1.769727    0.119197
     11          6           0        2.280352   -0.321605    0.009448
     12          1           0        3.225578   -0.849399   -0.002890
     13         16           0        0.812758   -1.194022   -0.064139
     14          6           0       -0.126398    0.251879   -0.026422
 ---------------------------------------------------------------------

 SCF Done:  E(RHF) =  -703.485001880     A.U. after    2 cycles

 The electronic state is 1-A.
 Alpha  occ. eigenvalues --  -93.99715 -20.53419 -11.35245 -11.29469 -11.27873
 Alpha  occ. eigenvalues --  -11.26796 -11.26286 -11.25026  -8.27931  -6.25696
 Alpha  occ. eigenvalues --   -6.25603  -6.25401  -1.46260  -1.20713  -1.05135
 Alpha  occ. eigenvalues --   -1.02341  -0.99001  -0.85035  -0.78424  -0.73869
 Alpha  occ. eigenvalues --   -0.70321  -0.63261  -0.62949  -0.61658  -0.58692
 Alpha  occ. eigenvalues --   -0.56373  -0.55143  -0.54859  -0.50291  -0.49818
 Alpha  occ. eigenvalues --   -0.42090  -0.37051  -0.34430
 Alpha virt. eigenvalues --    0.03008   0.03785   0.04051   0.04610   0.05718
 Alpha virt. eigenvalues --    0.05958   0.06145   0.08737   0.09913   0.10792
 Alpha virt. eigenvalues --    0.11537   0.12734   0.12847   0.13142   0.13704

 Mulliken charges:
               1
     1  O   -1.455201
     2  C   -0.619896
     3  H    0.289548
     4  H    0.082706
     5  H    0.294359
     6  C    0.737708
     7  C   -0.087078
     8  H   -0.171333
     9  C    0.433709
    10  H   -0.116044
    11  C   -0.795236
    12  H   -0.157039
    13  S    0.880116
    14  C    0.683680
 Sum of Mulliken charges =  -0.00000

 Dipole moment (field-independent basis, Debye):
    X=              2.4732    Y=             -1.8824    Z=              0.3382  Tot=              3.1264

 Test job not archived.
 1\1\GINC-SE403\SP\RHF\Aug-CC-pVDZ\C6H6O1S1\OHZDE\09-Apr-2025\0\\#t hf
 aug-cc-pvdz iop(5/13=1,5/36=2,99/5=2) pseudo=read geom=check guess=(re
 ad,tcheck) scf=(maxcycle=1)\\title\\0,1\O,0,21.0486,-6.0842,0.1065\C,0
 ,21.5596,-3.7626,-0.2262\H,0,22.0902,-3.1266,0.4896\H,0,20.4833,-3.630
 2,-0.1111\H,0,21.8601,-3.4547,-1.233\C,0,21.908,-5.221,-0.0127\C,0,23.
 8448,-6.8886,0.0027\H,0,23.187,-7.7508,0.0004\C,0,25.2559,-6.9283,-0.0
 04\H,0,25.8483,-7.8366,-0.0108\C,0,25.8182,-5.6607,-0.0054\H,0,26.8678
 ,-5.3952,-0.0008\S,0,24.6263,-4.4361,0.0039\C,0,23.3449,-5.5902,0.0154

 Normal termination of Gaussian 16 at Wed Apr  9 02:22:19 2025.
