 Gaussian 16, Revision C.01,

 ----------------------------------------------------------------------
 #t hf aug-cc-pvdz symm=none int=(grid=ultrafine) guess=(read,tcheck) s
 table=(opt,rrhf)
 ----------------------------------------------------------------------
 -----
 title
 -----
 Symbolic Z-matrix:
 Charge =  0 Multiplicity = 1

 SCF Done:  E(RHF) =  -703.107993134     A.U. after   16 cycles
 Normal termination of Gaussian 16 at Wed Apr  9 02:21:18 2025.
 Gaussian 16:  ES64L-G16RevC.01  3-Jul-2019

 ----------------------------------------------------------------------
 #t hf aug-cc-pvdz iop(5/13=1,5/36=2,99/5=2) pseudo=read geom=check gue
 ss=(read,tcheck) scf=(maxcycle=1)
 ----------------------------------------------------------------------
 -----
 title
 -----
 Structure from the checkpoint file:  "DCONF_24_-100_mol1.chk"
 Charge =  0 Multiplicity = 1

                         Standard orientation:
 ---------------------------------------------------------------------
 Center     Atomic      Atomic             Coordinates (Angstroms)
 Number     Number       Type             X           Y           Z
 ---------------------------------------------------------------------
      1          8           0       -2.272355    0.660030   -1.044482
      2          6           0       -2.276265   -0.548929    1.033799
      3          1           0       -2.028901    0.022734    1.934538
      4          1           0       -3.358037   -0.591358    0.897647
      5          1           0       -1.869453   -1.556102    1.170229
      6          6           0       -1.629249    0.127427   -0.154452
      7          6           0        0.599692    1.341220    0.240901
      8          1           0        0.137313    2.305960    0.421450
      9          6           0        1.992716    1.080366    0.319812
     10          1           0        2.743726    1.823237    0.564223
     11          6           0        2.295162   -0.239965    0.046339
     12          1           0        3.269538   -0.708396   -0.003302
     13         16           0        0.886572   -1.153881   -0.301113
     14          6           0       -0.132137    0.220843   -0.121586
 ---------------------------------------------------------------------

 SCF Done:  E(RHF) =  -703.474868060     A.U. after    2 cycles

 The electronic state is 1-A.
 Alpha  occ. eigenvalues --  -93.99476 -20.54933 -11.35937 -11.28592 -11.28496
 Alpha  occ. eigenvalues --  -11.26349 -11.26103 -11.25379  -8.27674  -6.25446
 Alpha  occ. eigenvalues --   -6.25348  -6.25138  -1.47416  -1.20460  -1.05147
 Alpha  occ. eigenvalues --   -1.02148  -0.99059  -0.84830  -0.78309  -0.73917
 Alpha  occ. eigenvalues --   -0.70421  -0.63961  -0.63361  -0.61735  -0.58572
 Alpha  occ. eigenvalues --   -0.56745  -0.55950  -0.54008  -0.50770  -0.49119
 Alpha  occ. eigenvalues --   -0.42717  -0.36867  -0.34326
 Alpha virt. eigenvalues --    0.03133   0.03654   0.03887   0.05179   0.05787
 Alpha virt. eigenvalues --    0.05911   0.08015   0.09013   0.09652   0.10741
 Alpha virt. eigenvalues --    0.10922   0.12163   0.12763   0.13456   0.13651

 Mulliken charges:
               1
     1  O   -1.317028
     2  C   -0.511316
     3  H    0.284873
     4  H    0.113510
     5  H    0.272697
     6  C    0.685362
     7  C    0.308513
     8  H   -0.146324
     9  C    0.341843
    10  H   -0.102776
    11  C   -0.529556
    12  H   -0.139002
    13  S    0.772111
    14  C   -0.032907
 Sum of Mulliken charges =  -0.00000

 Dipole moment (field-independent basis, Debye):
    X=              1.9130    Y=             -0.5738    Z=              2.6219  Tot=              3.2960

 Test job not archived.
 1\1\GINC-SE195\SP\RHF\Aug-CC-pVDZ\C6H6O1S1\OHZDE\09-Apr-2025\0\\#t hf
 aug-cc-pvdz iop(5/13=1,5/36=2,99/5=2) pseudo=read geom=check guess=(re
 ad,tcheck) scf=(maxcycle=1)\\title\\0,1\O,0,21.1341,-5.3894,0.886\C,0,
 21.445,-4.7154,-1.4009\H,0,21.5984,-5.5162,-2.132\H,0,20.3912,-4.4351,
 -1.3621\H,0,22.0541,-3.8647,-1.7231\C,0,21.901,-5.2108,-0.0464\C,0,23.
 8447,-6.8891,0.0094\H,0,23.2001,-7.7618,0.0097\C,0,25.2634,-6.9269,-0.
 0161\H,0,25.8533,-7.8365,-0.0321\C,0,25.8216,-5.6628,-0.0166\H,0,26.86
 93,-5.3923,0.0047\S,0,24.6203,-4.4396,0.0108\C,0,23.3473,-5.5959,0.058

 Normal termination of Gaussian 16 at Wed Apr  9 02:21:38 2025.
