 Gaussian 16, Revision C.01,

 ----------------------------------------------------------------------
 #t hf aug-cc-pvdz symm=none int=(grid=ultrafine) guess=(read,tcheck) s
 table=(opt,rrhf)
 ----------------------------------------------------------------------
 -----
 title
 -----
 Symbolic Z-matrix:
 Charge =  0 Multiplicity = 1

 SCF Done:  E(RHF) =  -217.142313576     A.U. after   12 cycles
 Normal termination of Gaussian 16 at Wed Apr  9 02:31:13 2025.
 Gaussian 16:  ES64L-G16RevC.01  3-Jul-2019

 ----------------------------------------------------------------------
 #t hf aug-cc-pvdz iop(5/13=1,5/36=2,99/5=2) pseudo=read geom=check gue
 ss=(read,tcheck) scf=(maxcycle=1)
 ----------------------------------------------------------------------
 -----
 title
 -----
 Structure from the checkpoint file:  "DCONF_7_180_mol1.chk"
 Charge =  0 Multiplicity = 1

                         Standard orientation:
 ---------------------------------------------------------------------
 Center     Atomic      Atomic             Coordinates (Angstroms)
 Number     Number       Type             X           Y           Z
 ---------------------------------------------------------------------
      1          9           0       -1.860904    0.152111   -0.000015
      2          6           0       -0.618836   -0.486278   -0.000036
      3          1           0       -0.576043   -1.118828    0.892084
      4          1           0       -0.575938   -1.118973   -0.891827
      5          6           0        0.496546    0.537740    0.000064
      6          1           0        0.387054    1.175929   -0.882444
      7          1           0        0.387103    1.176036    0.882267
      8          6           0        1.867201   -0.141358   -0.000020
      9          1           0        1.993521   -0.772360   -0.885361
     10          1           0        1.993648   -0.771953    0.885651
     11          1           0        2.669330    0.600519   -0.000289
 ---------------------------------------------------------------------

 SCF Done:  E(RHF) =  -217.368042830     A.U. after    2 cycles

 The electronic state is 1-A.
 Alpha  occ. eigenvalues --  -26.43639 -11.31445 -11.23916 -11.23757  -1.55629
 Alpha  occ. eigenvalues --   -1.07120  -0.93186  -0.82802  -0.69779  -0.67050
 Alpha  occ. eigenvalues --   -0.64780  -0.61224  -0.56878  -0.52565  -0.52439
 Alpha  occ. eigenvalues --   -0.48802  -0.48771
 Alpha virt. eigenvalues --    0.03605   0.04034   0.04193   0.05028   0.07201
 Alpha virt. eigenvalues --    0.07464   0.07854   0.10994   0.12221   0.15135
 Alpha virt. eigenvalues --    0.15486   0.15717   0.16723   0.16978   0.17272

 Mulliken charges:
               1
     1  F   -0.730513
     2  C    0.694627
     3  H    0.079118
     4  H    0.078722
     5  C   -0.618370
     6  H    0.182877
     7  H    0.182378
     8  C   -0.327437
     9  H    0.166495
    10  H    0.166617
    11  H    0.125486
 Sum of Mulliken charges =  -0.00000

 Dipole moment (field-independent basis, Debye):
    X=              1.9735    Y=             -0.6624    Z=             -0.0001  Tot=              2.0817

 Test job not archived.
 1\1\GINC-SE159\SP\RHF\Aug-CC-pVDZ\C3H7F1\OHZDE\09-Apr-2025\0\\#t hf au
 g-cc-pvdz iop(5/13=1,5/36=2,99/5=2) pseudo=read geom=check guess=(read
 ,tcheck) scf=(maxcycle=1)\\title\\0,1\F,0,13.2588,-26.4751,0.005\C,0,1
 4.4059,-25.6786,0.0001\H,0,14.3625,-25.0479,-0.8933\H,0,14.3675,-25.04
 38,0.8906\C,0,15.6465,-26.5467,-0.0015\H,0,15.6245,-27.1918,0.8825\H,0
 ,15.6197,-27.1958,-0.8822\C,0,16.9157,-25.6929,-0.0068\H,0,16.9602,-25
 .0488,0.877\H,0,16.9555,-25.0531,-0.894\H,0,17.8086,-26.3226,-0.0076\\
 Version=ES64L-G16RevC.01\State=1-A\HF=-217.3680428\RMSD=8.238e-03\Dipo

 Normal termination of Gaussian 16 at Wed Apr  9 02:31:16 2025.
