 Gaussian 16, Revision C.01,

 ----------------------------------------------------------------------
 #t hf aug-cc-pvdz symm=none int=(grid=ultrafine) guess=(read,tcheck) s
 table=(opt,rrhf)
 ----------------------------------------------------------------------
 -----
 title
 -----
 Symbolic Z-matrix:
 Charge =  0 Multiplicity = 1

 SCF Done:  E(RHF) =  -1153.55011722     A.U. after   15 cycles
 Normal termination of Gaussian 16 at Wed Apr  9 02:24:01 2025.
 Gaussian 16:  ES64L-G16RevC.01  3-Jul-2019

 ----------------------------------------------------------------------
 #t hf aug-cc-pvdz iop(5/13=1,5/36=2,99/5=2) pseudo=read geom=check gue
 ss=(read,tcheck) scf=(maxcycle=1)
 ----------------------------------------------------------------------
 -----
 title
 -----
 Structure from the checkpoint file:  "DCONF_29_90_mol1.chk"
 Charge =  0 Multiplicity = 1

                         Standard orientation:
 ---------------------------------------------------------------------
 Center     Atomic      Atomic             Coordinates (Angstroms)
 Number     Number       Type             X           Y           Z
 ---------------------------------------------------------------------
      1          6           0       -2.739972   -0.120908    0.076344
      2          1           0       -3.751476   -0.503446    0.119272
      3          6           0       -2.322236    1.199430    0.051465
      4          1           0       -2.982594    2.058397    0.075438
      5          7           0       -0.973288    1.387422   -0.020599
      6          6           0       -0.370140    0.214568   -0.042978
      7         16           0       -1.394830   -1.169583   -0.005843
      8         16           0        1.401713    0.026799   -0.178958
      9          6           0        1.917927    0.024406    1.526079
     10          1           0        1.446398   -0.817591    2.033903
     11          1           0        3.003749   -0.094222    1.515954
     12          1           0        1.639917    0.978603    1.975911
     13          8           0        1.604754   -1.320527   -0.704786
     14          8           0        1.949423    1.201260   -0.830829
 ---------------------------------------------------------------------

 SCF Done:  E(RHF) =  -1154.02936362     A.U. after    2 cycles

 The electronic state is 1-A.
 Alpha  occ. eigenvalues --  -94.20837 -94.02681 -20.54451 -20.54444 -15.55390
 Alpha  occ. eigenvalues --  -11.35160 -11.30763 -11.30500 -11.29586  -8.46069
 Alpha  occ. eigenvalues --   -8.30831  -6.44181  -6.43989  -6.43914  -6.28565
 Alpha  occ. eigenvalues --   -6.28483  -6.28277  -1.55922  -1.44179  -1.32183
 Alpha  occ. eigenvalues --   -1.13014  -1.09583  -1.03956  -0.91707  -0.85121
 Alpha  occ. eigenvalues --   -0.78552  -0.74799  -0.68777  -0.67764  -0.67010
 Alpha  occ. eigenvalues --   -0.63157  -0.62109  -0.61054  -0.60042  -0.54947
 Alpha  occ. eigenvalues --   -0.52046  -0.49886  -0.49591  -0.46760  -0.45090
 Alpha  occ. eigenvalues --   -0.43932  -0.37853
 Alpha virt. eigenvalues --    0.02601   0.03462   0.03948   0.04047   0.05335
 Alpha virt. eigenvalues --    0.05661   0.07591   0.09502   0.09938   0.10504
 Alpha virt. eigenvalues --    0.10898   0.11468   0.12573   0.12903   0.13296

 Mulliken charges:
               1
     1  C   -0.075973
     2  H   -0.125894
     3  C   -0.092765
     4  H   -0.096793
     5  N    0.924893
     6  C   -1.780825
     7  S    0.610931
     8  S    3.755003
     9  C   -0.755481
    10  H    0.250754
    11  H    0.239784
    12  H    0.253113
    13  O   -1.573553
    14  O   -1.533194
 Sum of Mulliken charges =  -0.00000

 Dipole moment (field-independent basis, Debye):
    X=             -3.7826    Y=             -1.3290    Z=              4.1644  Tot=              5.7807

 Test job not archived.
 1\1\GINC-SE195\SP\RHF\Aug-CC-pVDZ\C4H5N1O2S2\OHZDE\09-Apr-2025\0\\#t h
 f aug-cc-pvdz iop(5/13=1,5/36=2,99/5=2) pseudo=read geom=check guess=(
 read,tcheck) scf=(maxcycle=1)\\title\\0,1\C,0,2.028,-24.6253,-0.8948\H
 ,0,0.9752,-24.6342,-1.1455\C,0,2.8162,-25.6792,-0.463\H,0,2.4665,-26.6
 944,-0.3162\N,0,4.1191,-25.3704,-0.2036\C,0,4.3199,-24.0892,-0.4446\S,
 0,2.948,-23.1886,-0.9681\S,0,5.8908,-23.2781,-0.1846\C,0,6.6936,-23.48
 51,-1.7614\H,0,6.0923,-22.9951,-2.5279\H,0,7.669,-23.0014,-1.673\H,0,6
 .8102,-24.5522,-1.9559\O,0,5.5699,-21.8613,-0.0339\O,0,6.6375,-24.0122

 Normal termination of Gaussian 16 at Wed Apr  9 02:24:09 2025.
