 Gaussian 16, Revision C.01,

 ----------------------------------------------------------------------
 #t hf aug-cc-pvdz symm=none int=(grid=ultrafine) guess=(read,tcheck) s
 table=(opt,rrhf)
 ----------------------------------------------------------------------
 -----
 title
 -----
 Symbolic Z-matrix:
 Charge =  0 Multiplicity = 1

 SCF Done:  E(RHF) =  -703.113059978     A.U. after   16 cycles
 Normal termination of Gaussian 16 at Wed Apr  9 02:22:03 2025.
 Gaussian 16:  ES64L-G16RevC.01  3-Jul-2019

 ----------------------------------------------------------------------
 #t hf aug-cc-pvdz iop(5/13=1,5/36=2,99/5=2) pseudo=read geom=check gue
 ss=(read,tcheck) scf=(maxcycle=1)
 ----------------------------------------------------------------------
 -----
 title
 -----
 Structure from the checkpoint file:  "DCONF_24_-130_mol1.chk"
 Charge =  0 Multiplicity = 1

                         Standard orientation:
 ---------------------------------------------------------------------
 Center     Atomic      Atomic             Coordinates (Angstroms)
 Number     Number       Type             X           Y           Z
 ---------------------------------------------------------------------
      1          8           0       -2.270999    1.146755   -0.534793
      2          6           0       -2.258858   -0.970476    0.602425
      3          1           0       -1.936737   -0.968518    1.648335
      4          1           0       -3.344708   -0.888114    0.542106
      5          1           0       -1.932826   -1.919736    0.163839
      6          6           0       -1.619994    0.204989   -0.105123
      7          6           0        0.630741    1.352557    0.230410
      8          1           0        0.181705    2.322792    0.413835
      9          6           0        2.013019    1.060081    0.306071
     10          1           0        2.783378    1.782348    0.552098
     11          6           0        2.282787   -0.271413    0.037911
     12          1           0        3.246853   -0.760961   -0.013698
     13         16           0        0.854980   -1.155226   -0.293020
     14          6           0       -0.132588    0.247888   -0.128337
 ---------------------------------------------------------------------

 SCF Done:  E(RHF) =  -703.480087337     A.U. after    2 cycles

 The electronic state is 1-A.
 Alpha  occ. eigenvalues --  -93.99620 -20.53982 -11.35493 -11.29131 -11.28201
 Alpha  occ. eigenvalues --  -11.26725 -11.26250 -11.25207  -8.27831  -6.25598
 Alpha  occ. eigenvalues --   -6.25503  -6.25298  -1.46657  -1.20647  -1.05177
 Alpha  occ. eigenvalues --   -1.02315  -0.99050  -0.84978  -0.78416  -0.73892
 Alpha  occ. eigenvalues --   -0.70336  -0.63469  -0.63205  -0.61642  -0.58727
 Alpha  occ. eigenvalues --   -0.56459  -0.55842  -0.54259  -0.50759  -0.49178
 Alpha  occ. eigenvalues --   -0.42311  -0.37003  -0.34467
 Alpha virt. eigenvalues --    0.03066   0.03847   0.03916   0.04947   0.05717
 Alpha virt. eigenvalues --    0.06044   0.06687   0.09100   0.09765   0.10684
 Alpha virt. eigenvalues --    0.11454   0.12386   0.12833   0.13378   0.13813

 Mulliken charges:
               1
     1  O   -1.369201
     2  C   -0.585204
     3  H    0.293487
     4  H    0.110872
     5  H    0.270668
     6  C    0.775057
     7  C    0.114397
     8  H   -0.154159
     9  C    0.430688
    10  H   -0.098416
    11  C   -0.677817
    12  H   -0.142040
    13  S    0.806705
    14  C    0.224965
 Sum of Mulliken charges =  -0.00000

 Dipole moment (field-independent basis, Debye):
    X=              2.3416    Y=             -1.5942    Z=              1.6061  Tot=              3.2564

 Test job not archived.
 1\1\GINC-SE127\SP\RHF\Aug-CC-pVDZ\C6H6O1S1\OHZDE\09-Apr-2025\0\\#t hf
 aug-cc-pvdz iop(5/13=1,5/36=2,99/5=2) pseudo=read geom=check guess=(re
 ad,tcheck) scf=(maxcycle=1)\\title\\0,1\O,0,21.0496,-5.8826,0.5087\C,0
 ,21.5738,-4.1242,-1.0435\H,0,21.9097,-4.4276,-2.0399\H,0,20.4971,-3.95
 04,-1.0452\H,0,22.0999,-3.1971,-0.7916\C,0,21.9092,-5.2256,-0.0612\C,0
 ,23.8421,-6.885,0.0136\H,0,23.1859,-7.7487,0.0061\C,0,25.2559,-6.9277,
 -0.0225\H,0,25.8445,-7.8377,-0.0557\C,0,25.819,-5.6626,-0.021\H,0,26.8
 685,-5.398,-0.0043\S,0,24.6261,-4.4358,0.014\C,0,23.3459,-5.5883,0.077

 Normal termination of Gaussian 16 at Wed Apr  9 02:22:09 2025.
