 Gaussian 16, Revision C.01,

 ----------------------------------------------------------------------
 #t hf aug-cc-pvdz symm=none int=(grid=ultrafine) guess=(read,tcheck) s
 table=(opt,rrhf)
 ----------------------------------------------------------------------
 -----
 title
 -----
 Symbolic Z-matrix:
 Charge =  0 Multiplicity = 1

 SCF Done:  E(RHF) =  -911.017119680     A.U. after   16 cycles
 Normal termination of Gaussian 16 at Wed Apr  9 02:26:44 2025.
 Gaussian 16:  ES64L-G16RevC.01  3-Jul-2019

 ----------------------------------------------------------------------
 #t hf aug-cc-pvdz iop(5/13=1,5/36=2,99/5=2) pseudo=read geom=check gue
 ss=(read,tcheck) scf=(maxcycle=1)
 ----------------------------------------------------------------------
 -----
 title
 -----
 Structure from the checkpoint file:  "DCONF_30_-30_mol1.chk"
 Charge =  0 Multiplicity = 1

                         Standard orientation:
 ---------------------------------------------------------------------
 Center     Atomic      Atomic             Coordinates (Angstroms)
 Number     Number       Type             X           Y           Z
 ---------------------------------------------------------------------
      1          6           0        2.532544    1.446669   -0.460474
      2          1           0        2.852021    2.440377   -0.762358
      3          6           0        1.174873    1.112555   -0.513297
      4          1           0        0.429781    1.822499   -0.857775
      5          6           0        0.781044   -0.170221   -0.115675
      6         16           0       -0.927016   -0.675508   -0.179503
      7          7           0       -1.694247    0.801143    0.075336
      8          6           0       -1.657698    1.215154    1.484316
      9          1           0       -0.640710    1.120341    1.872481
     10          1           0       -2.330549    0.612786    2.107672
     11          1           0       -1.952220    2.266686    1.531076
     12          6           0       -3.051877    0.852210   -0.488574
     13          1           0       -3.019438    0.601927   -1.548230
     14          1           0       -3.408203    1.878050   -0.369502
     15          1           0       -3.742697    0.172297    0.028491
     16          6           0        1.707233   -1.112039    0.348331
     17          1           0        1.367038   -2.088235    0.680827
     18          6           0        3.061983   -0.767264    0.380291
     19          1           0        3.792036   -1.490908    0.732293
     20          6           0        3.475086    0.511242   -0.015390
     21          1           0        4.527919    0.777299    0.021655
     22          8           0       -1.148133   -1.594643    0.933058
     23          8           0       -1.267132   -1.085711   -1.534196
 ---------------------------------------------------------------------

 SCF Done:  E(RHF) =  -911.605676929     A.U. after    2 cycles

 The electronic state is 1-A.
 Alpha  occ. eigenvalues --  -94.20556 -20.53327 -20.53130 -15.54110 -11.28548
 Alpha  occ. eigenvalues --  -11.28010 -11.27611 -11.27471 -11.27328 -11.27132
 Alpha  occ. eigenvalues --  -11.26662 -11.26547  -8.45543  -6.43635  -6.43476
 Alpha  occ. eigenvalues --   -6.43388  -1.55177  -1.42895  -1.26087  -1.18044
 Alpha  occ. eigenvalues --   -1.06622  -1.04027  -0.98701  -0.97419  -0.87966
 Alpha  occ. eigenvalues --   -0.85922  -0.80621  -0.75470  -0.71921  -0.69372
 Alpha  occ. eigenvalues --   -0.68127  -0.66360  -0.65932  -0.63721  -0.62417
 Alpha  occ. eigenvalues --   -0.62084  -0.58382  -0.57846  -0.55619  -0.55346
 Alpha  occ. eigenvalues --   -0.53673  -0.53104  -0.50904  -0.48543  -0.46651
 Alpha  occ. eigenvalues --   -0.45427  -0.43595  -0.37100  -0.36626
 Alpha virt. eigenvalues --    0.02779   0.03149   0.03747   0.04515   0.04770
 Alpha virt. eigenvalues --    0.05351   0.05991   0.06606   0.07155   0.07481
 Alpha virt. eigenvalues --    0.07616   0.08479   0.08851   0.10484   0.12356

 Mulliken charges:
               1
     1  C    0.332476
     2  H   -0.245009
     3  C   -0.175385
     4  H   -0.250390
     5  C    0.869295
     6  S    3.779057
     7  N   -0.242108
     8  C   -0.505653
     9  H    0.072118
    10  H    0.237374
    11  H    0.119697
    12  C   -0.395687
    13  H    0.140124
    14  H    0.164423
    15  H    0.216647
    16  C   -0.740122
    17  H   -0.266270
    18  C    0.597584
    19  H   -0.213002
    20  C    0.046812
    21  H   -0.201939
    22  O   -1.706917
    23  O   -1.633124
 Sum of Mulliken charges =  -0.00000

 Dipole moment (field-independent basis, Debye):
    X=              1.9201    Y=              3.9747    Z=              1.4894  Tot=              4.6587

 Test job not archived.
 1\1\GINC-SE462\SP\RHF\Aug-CC-pVDZ\C8H11N1O2S1\OHZDE\09-Apr-2025\0\\#t
 hf aug-cc-pvdz iop(5/13=1,5/36=2,99/5=2) pseudo=read geom=check guess=
 (read,tcheck) scf=(maxcycle=1)\\title\\0,1\C,0,2.8679,-3.7856,-0.2492\
 H,0,2.8842,-4.7753,0.199\C,0,1.7019,-3.0154,-0.179\H,0,0.811,-3.3807,0
 .3217\C,0,1.6975,-1.7451,-0.7664\S,0,0.2574,-0.6973,-0.6951\N,0,-0.963
 7,-1.8554,-0.6526\C,0,-1.2135,-2.4541,-1.9706\H,0,-0.2676,-2.7589,-2.4
 248\H,0,-1.7221,-1.7576,-2.6491\H,0,-1.8314,-3.3433,-1.8217\C,0,-2.197
 4,-1.3716,-0.0141\H,0,-1.9726,-0.9982,0.9842\H,0,-2.8731,-2.2266,0.062

 Normal termination of Gaussian 16 at Wed Apr  9 02:27:03 2025.
