 Gaussian 16, Revision C.01,

 ----------------------------------------------------------------------
 #t hf aug-cc-pvdz symm=none int=(grid=ultrafine) guess=(read,tcheck) s
 table=(opt,rrhf)
 ----------------------------------------------------------------------
 -----
 title
 -----
 Symbolic Z-matrix:
 Charge =  0 Multiplicity = 1

 SCF Done:  E(RHF) =  -774.172148253     A.U. after   16 cycles
 Normal termination of Gaussian 16 at Wed Apr  9 02:25:57 2025.
 Gaussian 16:  ES64L-G16RevC.01  3-Jul-2019

 ----------------------------------------------------------------------
 #t hf aug-cc-pvdz iop(5/13=1,5/36=2,99/5=2) pseudo=read geom=check gue
 ss=(read,tcheck) scf=(maxcycle=1)
 ----------------------------------------------------------------------
 -----
 title
 -----
 Structure from the checkpoint file:  "DCONF_42_-90_mol1.chk"
 Charge =  0 Multiplicity = 1

                         Standard orientation:
 ---------------------------------------------------------------------
 Center     Atomic      Atomic             Coordinates (Angstroms)
 Number     Number       Type             X           Y           Z
 ---------------------------------------------------------------------
      1          6           0       -2.136042    0.033428   -0.006638
      2          7           0       -1.028577    0.236092   -0.829244
      3          1           0       -1.241594    0.675760   -1.717507
      4          7           0        0.911448    1.393214    0.008205
      5          6           0        2.199610    1.111195    0.368185
      6          1           0        2.843974    1.909919    0.716320
      7          6           0        2.578108   -0.213649    0.261069
      8          1           0        3.533807   -0.659142    0.503352
      9         16           0        1.274048   -1.139271   -0.339097
     10          6           0        0.294708    0.290889   -0.375134
     11          8           0       -3.263878    0.181727   -0.442676
     12          6           0       -1.825244   -0.395467    1.410190
     13          1           0       -1.398371   -1.402745    1.417498
     14          1           0       -2.755798   -0.395158    1.976467
     15          1           0       -1.102709    0.282357    1.872077
 ---------------------------------------------------------------------

 SCF Done:  E(RHF) =  -774.608513541     A.U. after    2 cycles

 The electronic state is 1-A.
 Alpha  occ. eigenvalues --  -94.00949 -20.52425 -15.54840 -15.53234 -11.37635
 Alpha  occ. eigenvalues --  -11.36576 -11.29469 -11.29166 -11.25330  -8.29193
 Alpha  occ. eigenvalues --   -6.26931  -6.26849  -6.26639  -1.46920  -1.32231
 Alpha  occ. eigenvalues --   -1.24526  -1.11614  -1.03181  -1.01393  -0.87497
 Alpha  occ. eigenvalues --   -0.83922  -0.80754  -0.74365  -0.69442  -0.67561
 Alpha  occ. eigenvalues --   -0.64967  -0.61577  -0.60294  -0.59431  -0.57582
 Alpha  occ. eigenvalues --   -0.54551  -0.53642  -0.49400  -0.44862  -0.43831
 Alpha  occ. eigenvalues --   -0.42963  -0.36210
 Alpha virt. eigenvalues --    0.02891   0.03878   0.04243   0.04888   0.05471
 Alpha virt. eigenvalues --    0.06325   0.07169   0.07751   0.09161   0.10035
 Alpha virt. eigenvalues --    0.10637   0.11753   0.12057   0.12344   0.13044

 Mulliken charges:
               1
     1  C    0.850382
     2  N    0.887653
     3  H    0.239766
     4  N    0.944286
     5  C   -0.223519
     6  H   -0.113078
     7  C    0.078396
     8  H   -0.140044
     9  S    0.750658
    10  C   -2.257946
    11  O   -1.295470
    12  C   -0.416623
    13  H    0.296020
    14  H    0.080435
    15  H    0.319084
 Sum of Mulliken charges =  -0.00000

 Dipole moment (field-independent basis, Debye):
    X=              4.1650    Y=             -1.7678    Z=              1.1872  Tot=              4.6778

 Test job not archived.
 1\1\GINC-SE459\SP\RHF\Aug-CC-pVDZ\C5H6N2O1S1\OHZDE\09-Apr-2025\0\\#t h
 f aug-cc-pvdz iop(5/13=1,5/36=2,99/5=2) pseudo=read geom=check guess=(
 read,tcheck) scf=(maxcycle=1)\\title\\0,1\C,0,28.5854,-16.5041,-1.1358
 \N,0,29.3128,-16.8423,0.0047\H,0,28.7561,-16.9216,0.8482\N,0,30.7477,-
 18.7775,0.0011\C,0,32.084,-19.0652,0.0046\H,0,32.4077,-20.0994,0.008\C
 ,0,32.9342,-17.9757,-0.0052\H,0,34.016,-17.9701,-0.0194\S,0,32.0216,-1
 6.5319,0.0071\C,0,30.564,-17.4704,-0.0124\O,0,27.4296,-16.1306,-1.0422
 \C,0,29.3373,-16.6124,-2.4438\H,0,30.1263,-15.8561,-2.4925\H,0,28.6304

 Normal termination of Gaussian 16 at Wed Apr  9 02:26:03 2025.
