 Gaussian 16, Revision C.01,

 ----------------------------------------------------------------------
 #t hf aug-cc-pvdz symm=none int=(grid=ultrafine) guess=(read,tcheck) s
 table=(opt,rrhf)
 ----------------------------------------------------------------------
 -----
 title
 -----
 Symbolic Z-matrix:
 Charge =  0 Multiplicity = 1

 SCF Done:  E(RHF) =  -774.179822446     A.U. after   16 cycles
 Normal termination of Gaussian 16 at Wed Apr  9 02:26:04 2025.
 Gaussian 16:  ES64L-G16RevC.01  3-Jul-2019

 ----------------------------------------------------------------------
 #t hf aug-cc-pvdz iop(5/13=1,5/36=2,99/5=2) pseudo=read geom=check gue
 ss=(read,tcheck) scf=(maxcycle=1)
 ----------------------------------------------------------------------
 -----
 title
 -----
 Structure from the checkpoint file:  "DCONF_42_-140_mol1.chk"
 Charge =  0 Multiplicity = 1

                         Standard orientation:
 ---------------------------------------------------------------------
 Center     Atomic      Atomic             Coordinates (Angstroms)
 Number     Number       Type             X           Y           Z
 ---------------------------------------------------------------------
      1          6           0       -1.991329   -0.133567    0.048386
      2          7           0       -0.975569    0.693937   -0.421215
      3          1           0       -1.181872    1.684162   -0.493062
      4          7           0        1.195652    1.456262    0.109907
      5          6           0        2.470727    0.974211    0.267718
      6          1           0        3.272581    1.662455    0.507004
      7          6           0        2.612581   -0.387017    0.124842
      8          1           0        3.504519   -0.986661    0.245533
      9         16           0        1.093025   -1.110003   -0.220867
     10          6           0        0.379706    0.460526   -0.166750
     11          8           0       -1.782477   -1.287848    0.382439
     12          6           0       -3.354249    0.521478    0.075835
     13          1           0       -3.481932    1.226549   -0.749128
     14          1           0       -4.118828   -0.253058    0.023363
     15          1           0       -3.468252    1.064206    1.019621
 ---------------------------------------------------------------------

 SCF Done:  E(RHF) =  -774.616516869     A.U. after    2 cycles

 The electronic state is 1-A.
 Alpha  occ. eigenvalues --  -93.99100 -20.53553 -15.56169 -15.50906 -11.38594
 Alpha  occ. eigenvalues --  -11.35787 -11.27808 -11.26727 -11.26603  -8.27294
 Alpha  occ. eigenvalues --   -6.25033  -6.24940  -6.24718  -1.48079  -1.31596
 Alpha  occ. eigenvalues --   -1.24502  -1.09740  -1.05167  -0.99280  -0.87948
 Alpha  occ. eigenvalues --   -0.82556  -0.80125  -0.72329  -0.70394  -0.66614
 Alpha  occ. eigenvalues --   -0.65518  -0.62103  -0.60448  -0.58741  -0.58431
 Alpha  occ. eigenvalues --   -0.54653  -0.52100  -0.47892  -0.47291  -0.44855
 Alpha  occ. eigenvalues --   -0.40841  -0.33405
 Alpha virt. eigenvalues --    0.02972   0.04030   0.04694   0.04779   0.04878
 Alpha virt. eigenvalues --    0.06676   0.08505   0.09174   0.09315   0.10695
 Alpha virt. eigenvalues --    0.10986   0.11645   0.12776   0.13010   0.13263

 Mulliken charges:
               1
     1  C    0.953954
     2  N    0.712579
     3  H    0.157440
     4  N    0.884349
     5  C   -0.060879
     6  H   -0.110650
     7  C   -0.053201
     8  H   -0.150407
     9  S    0.805146
    10  C   -2.156813
    11  O   -1.263525
    12  C   -0.371250
    13  H    0.198866
    14  H    0.176664
    15  H    0.277727
 Sum of Mulliken charges =  -0.00000

 Dipole moment (field-independent basis, Debye):
    X=             -1.0251    Y=              1.4047    Z=             -0.4718  Tot=              1.8018

 Test job not archived.
 1\1\GINC-SE090\SP\RHF\Aug-CC-pVDZ\C5H6N2O1S1\OHZDE\09-Apr-2025\0\\#t h
 f aug-cc-pvdz iop(5/13=1,5/36=2,99/5=2) pseudo=read geom=check guess=(
 read,tcheck) scf=(maxcycle=1)\\title\\0,1\C,0,28.9599,-15.7561,-0.7246
 \N,0,29.3066,-16.881,0.018\H,0,28.5841,-17.5764,0.1686\N,0,30.7368,-18
 .7601,-0.0127\C,0,32.0747,-19.0645,0.0087\H,0,32.3829,-20.1032,0.0038\
 C,0,32.9289,-17.9857,0.0116\H,0,34.0101,-17.9838,-0.0148\S,0,32.0345,-
 16.5192,-0.0149\C,0,30.5828,-17.4524,-0.0106\O,0,29.7979,-14.9788,-1.1
 502\C,0,27.4702,-15.5854,-0.9222\H,0,26.9035,-15.9362,-0.0563\H,0,27.2

 Normal termination of Gaussian 16 at Wed Apr  9 02:26:11 2025.
