 Gaussian 16, Revision C.01,

 ----------------------------------------------------------------------
 #t hf aug-cc-pvdz symm=none int=(grid=ultrafine) guess=(read,tcheck) s
 table=(opt,rrhf)
 ----------------------------------------------------------------------
 -----
 title
 -----
 Symbolic Z-matrix:
 Charge =  0 Multiplicity = 1

 SCF Done:  E(RHF) =  -256.172946014     A.U. after   12 cycles
 Normal termination of Gaussian 16 at Wed Apr  9 02:31:23 2025.
 Gaussian 16:  ES64L-G16RevC.01  3-Jul-2019

 ----------------------------------------------------------------------
 #t hf aug-cc-pvdz iop(5/13=1,5/36=2,99/5=2) pseudo=read geom=check gue
 ss=(read,tcheck) scf=(maxcycle=1)
 ----------------------------------------------------------------------
 -----
 title
 -----
 Structure from the checkpoint file:  "DCONF_8_0_mol1.chk"
 Charge =  0 Multiplicity = 1

                         Standard orientation:
 ---------------------------------------------------------------------
 Center     Atomic      Atomic             Coordinates (Angstroms)
 Number     Number       Type             X           Y           Z
 ---------------------------------------------------------------------
      1          6           0       -0.003453    0.815382    0.000107
      2          1           0        0.256039    1.416382   -0.878569
      3          1           0        0.255978    1.416525    0.878718
      4          6           0        0.864618   -0.447119    0.000027
      5          1           0        0.624695   -1.056938   -0.876063
      6          1           0        0.624845   -1.056687    0.876421
      7          6           0        2.352347   -0.096415   -0.000010
      8          1           0        2.614151    0.493483   -0.884792
      9          1           0        2.971267   -0.998215   -0.000970
     10          1           0        2.614811    0.492129    0.885191
     11          6           0       -1.518333    0.540281   -0.000100
     12          1           0       -2.000656    0.952441   -0.889308
     13          1           0       -2.000838    0.952314    0.889181
     14          9           0       -1.792374   -0.831579    0.000006
 ---------------------------------------------------------------------

 SCF Done:  E(RHF) =  -256.441928030     A.U. after    2 cycles

 The electronic state is 1-A.
 Alpha  occ. eigenvalues --  -26.43517 -11.31507 -11.23682 -11.22850 -11.22410
 Alpha  occ. eigenvalues --   -1.55558  -1.07679  -0.98476  -0.87564  -0.79691
 Alpha  occ. eigenvalues --   -0.69562  -0.67390  -0.64682  -0.62833  -0.57289
 Alpha  occ. eigenvalues --   -0.55981  -0.53295  -0.50542  -0.49012  -0.47677
 Alpha  occ. eigenvalues --   -0.46600
 Alpha virt. eigenvalues --    0.03684   0.03976   0.03980   0.04705   0.06480
 Alpha virt. eigenvalues --    0.06720   0.07347   0.07451   0.09966   0.11737
 Alpha virt. eigenvalues --    0.12727   0.13361   0.14565   0.16210   0.17076

 Mulliken charges:
               1
     1  C   -0.551825
     2  H    0.121856
     3  H    0.121833
     4  C   -0.221133
     5  H    0.146448
     6  H    0.146917
     7  C   -0.400430
     8  H    0.167427
     9  H    0.127009
    10  H    0.166725
    11  C    0.693728
    12  H    0.113655
    13  H    0.113777
    14  F   -0.745988
 Sum of Mulliken charges =  -0.00000

 Dipole moment (field-independent basis, Debye):
    X=              0.5943    Y=              1.6537    Z=             -0.0001  Tot=              1.7573

 Test job not archived.
 1\1\GINC-SE328\SP\RHF\Aug-CC-pVDZ\C4H9F1\OHZDE\09-Apr-2025\0\\#t hf au
 g-cc-pvdz iop(5/13=1,5/36=2,99/5=2) pseudo=read geom=check guess=(read
 ,tcheck) scf=(maxcycle=1)\\title\\0,1\C,0,0.0239,-0.0376,-0.0059\H,0,-
 0.0099,-0.696,-0.8811\H,0,0.0054,-0.6875,0.8761\C,0,-1.2398,0.8287,0.0
 007\H,0,-1.2426,1.4797,-0.8786\H,0,-1.2275,1.488,0.8738\C,0,-2.5021,-0
 .0331,0.0158\H,0,-2.5421,-0.682,-0.8655\H,0,-3.4037,0.5861,0.0196\H,0,
 -2.5279,-0.6723,0.9044\C,0,1.3387,0.7634,-0.0214\H,0,1.9292,0.5477,-0.
 9147\H,0,1.9447,0.5566,0.8637\F,0,1.1015,2.1421,-0.026\\Version=ES64L-

 Normal termination of Gaussian 16 at Wed Apr  9 02:31:27 2025.
