 Gaussian 16, Revision C.01,

 ----------------------------------------------------------------------
 #t hf aug-cc-pvdz symm=none int=(grid=ultrafine) guess=(read,tcheck) s
 table=(opt,rrhf)
 ----------------------------------------------------------------------
 -----
 title
 -----
 Symbolic Z-matrix:
 Charge =  0 Multiplicity = 1

 SCF Done:  E(RHF) =  -559.160444212     A.U. after   15 cycles

 1\1\GINC-SE029\Stability\RHF\Aug-CC-pVDZ\C12H9F1\OHZDE\09-Apr-2025\0\\
 #t hf aug-cc-pvdz symm=none int=(grid=ultrafine) guess=(read,tcheck) s
 table=(opt,rrhf)\\title\\0,1\C,0,12.8159,-33.1773,-1.1888\H,0,13.3455,
 -32.9787,-2.1179\C,0,11.4174,-33.2168,-1.1641\H,0,10.8558,-33.0484,-2.
 0793\C,0,10.7431,-33.4799,0.0349\H,0,9.657,-33.5133,0.0527\C,0,11.4712
 ,-33.6998,1.2106\H,0,10.9519,-33.9104,2.142\C,0,12.8701,-33.6585,1.187
 6\H,0,13.4423,-33.8364,2.0955\C,0,13.5505,-33.3867,-0.0105\C,0,17.1463
 ,-32.2271,0.4634\H,0,17.6781,-31.3585,0.8411\C,0,15.7471,-32.2433,0.46

 Normal termination of Gaussian 16 at Wed Apr  9 02:30:16 2025.
 Gaussian 16:  ES64L-G16RevC.01  3-Jul-2019

 ----------------------------------------------------------------------
 #t hf aug-cc-pvdz iop(5/13=1,5/36=2,99/5=2) pseudo=read geom=check gue
 ss=(read,tcheck) scf=(maxcycle=1)
 ----------------------------------------------------------------------
 -----
 title
 -----
 Structure from the checkpoint file:  "DCONF_47_100_mol1.chk"
 Charge =  0 Multiplicity = 1

                         Standard orientation:
 ---------------------------------------------------------------------
 Center     Atomic      Atomic             Coordinates (Angstroms)
 Number     Number       Type             X           Y           Z
 ---------------------------------------------------------------------
      1          6           0       -1.537708    0.354576    1.142781
      2          1           0       -0.992179    0.736538    2.002809
      3          6           0       -2.936050    0.396808    1.114022
      4          1           0       -3.481501    0.814410    1.956302
      5          6           0       -3.630852   -0.090798    0.000023
      6          1           0       -4.716781   -0.054989   -0.022816
      7          6           0       -2.923470   -0.624514   -1.084188
      8          1           0       -3.458645   -0.998368   -1.953297
      9          6           0       -1.524774   -0.669210   -1.055733
     10          1           0       -0.968508   -1.075026   -1.897888
     11          6           0       -0.823963   -0.189249    0.062643
     12          6           0        2.752460   -1.468153    0.332148
     13          1           0        3.269779   -2.400805    0.538245
     14          6           0        1.353749   -1.428342    0.339356
     15          1           0        0.776588   -2.324511    0.555251
     16          6           0        0.658801   -0.233456    0.085518
     17          6           0        1.421120    0.904432   -0.199532
     18          6           0        2.812868    0.894508   -0.216185
     19          1           0        3.348560    1.811023   -0.443989
     20          6           0        3.481051   -0.305803    0.050984
     21          1           0        4.567087   -0.327994    0.041411
     22          9           0        0.781802    2.063881   -0.467451
 ---------------------------------------------------------------------

 SCF Done:  E(RHF) =  -559.720635675     A.U. after    2 cycles

 The electronic state is 1-A.
 Alpha  occ. eigenvalues --  -26.47337 -11.33784 -11.26082 -11.25991 -11.25836
 Alpha  occ. eigenvalues --  -11.25599 -11.25517 -11.25160 -11.24806 -11.24780
 Alpha  occ. eigenvalues --  -11.24714 -11.24666 -11.24661  -1.60270  -1.17539
 Alpha  occ. eigenvalues --   -1.14686  -1.06178  -1.02229  -1.01643  -0.99201
 Alpha  occ. eigenvalues --   -0.87305  -0.85072  -0.83594  -0.81256  -0.74460
 Alpha  occ. eigenvalues --   -0.71781  -0.69975  -0.67985  -0.67161  -0.64597
 Alpha  occ. eigenvalues --   -0.64238  -0.62443  -0.60654  -0.60010  -0.59430
 Alpha  occ. eigenvalues --   -0.55045  -0.53166  -0.51821  -0.50552  -0.50228
 Alpha  occ. eigenvalues --   -0.50044  -0.36086  -0.35080  -0.34539  -0.33803
 Alpha virt. eigenvalues --    0.03215   0.03493   0.03786   0.03915   0.04453
 Alpha virt. eigenvalues --    0.05388   0.05644   0.06098   0.07183   0.08836
 Alpha virt. eigenvalues --    0.09275   0.09834   0.10823   0.11296   0.11650

 Mulliken charges:
               1
     1  C   -0.301168
     2  H   -0.320205
     3  C   -0.040738
     4  H   -0.211899
     5  C    0.023548
     6  H   -0.218416
     7  C   -0.068054
     8  H   -0.212270
     9  C   -0.307180
    10  H   -0.302174
    11  C    2.216737
    12  C   -0.172152
    13  H   -0.214724
    14  C   -0.125580
    15  H   -0.300773
    16  C    0.977553
    17  C    1.100173
    18  C   -0.294221
    19  H   -0.194048
    20  C    0.233833
    21  H   -0.204283
    22  F   -1.063959
 Sum of Mulliken charges =  -0.00000

 Dipole moment (field-independent basis, Debye):
    X=              0.5225    Y=             -1.2209    Z=              0.2614  Tot=              1.3535

 Test job not archived.
 1\1\GINC-SE029\SP\RHF\Aug-CC-pVDZ\C12H9F1\OHZDE\09-Apr-2025\0\\#t hf a
 ug-cc-pvdz iop(5/13=1,5/36=2,99/5=2) pseudo=read geom=check guess=(rea
 d,tcheck) scf=(maxcycle=1)\\title\\0,1\C,0,12.8159,-33.1773,-1.1888\H,
 0,13.3455,-32.9787,-2.1179\C,0,11.4174,-33.2168,-1.1641\H,0,10.8558,-3
 3.0484,-2.0793\C,0,10.7431,-33.4799,0.0349\H,0,9.657,-33.5133,0.0527\C
 ,0,11.4712,-33.6998,1.2106\H,0,10.9519,-33.9104,2.142\C,0,12.8701,-33.
 6585,1.1876\H,0,13.4423,-33.8364,2.0955\C,0,13.5505,-33.3867,-0.0105\C
 ,0,17.1463,-32.2271,0.4634\H,0,17.6781,-31.3585,0.8411\C,0,15.7471,-32

 Normal termination of Gaussian 16 at Wed Apr  9 02:30:34 2025.
