 Gaussian 16, Revision C.01,

 ----------------------------------------------------------------------
 #t hf aug-cc-pvdz symm=none int=(grid=ultrafine) guess=(read,tcheck) s
 table=(opt,rrhf)
 ----------------------------------------------------------------------
 -----
 title
 -----
 Symbolic Z-matrix:
 Charge =  0 Multiplicity = 1

 SCF Done:  E(RHF) =  -719.115876860     A.U. after   16 cycles
 Normal termination of Gaussian 16 at Wed Apr  9 02:22:42 2025.
 Gaussian 16:  ES64L-G16RevC.01  3-Jul-2019

 ----------------------------------------------------------------------
 #t hf aug-cc-pvdz iop(5/13=1,5/36=2,99/5=2) pseudo=read geom=check gue
 ss=(read,tcheck) scf=(maxcycle=1)
 ----------------------------------------------------------------------
 -----
 title
 -----
 Structure from the checkpoint file:  "DCONF_28_50_mol1.chk"
 Charge =  0 Multiplicity = 1

                         Standard orientation:
 ---------------------------------------------------------------------
 Center     Atomic      Atomic             Coordinates (Angstroms)
 Number     Number       Type             X           Y           Z
 ---------------------------------------------------------------------
      1          8           0        1.967332   -1.162319   -0.646033
      2          6           0        2.502763    0.894155    0.496076
      3          1           0        2.209624    1.906461    0.205742
      4          1           0        3.536400    0.688251    0.215112
      5          1           0        2.390373    0.818436    1.583057
      6          6           0        1.584791   -0.121014   -0.133883
      7          7           0       -0.424015    1.328148   -0.286057
      8          6           0       -1.783747    1.231608   -0.254724
      9          1           0       -2.389964    2.105415   -0.463524
     10          6           0       -2.283783   -0.022611    0.049451
     11          1           0       -3.317924   -0.320988    0.161487
     12         16           0       -1.003314   -1.126293    0.279366
     13          6           0        0.122304    0.155301    0.009568
 ---------------------------------------------------------------------

 SCF Done:  E(RHF) =  -719.494882332     A.U. after    2 cycles

 The electronic state is 1-A.
 Alpha  occ. eigenvalues --  -94.00780 -20.55498 -15.53645 -11.36480 -11.32843
 Alpha  occ. eigenvalues --  -11.29272 -11.29164 -11.25281  -8.28986  -6.26724
 Alpha  occ. eigenvalues --   -6.26638  -6.26436  -1.48110  -1.30303  -1.11275
 Alpha  occ. eigenvalues --   -1.06362  -1.00994  -0.87485  -0.83125  -0.74954
 Alpha  occ. eigenvalues --   -0.71353  -0.65790  -0.64405  -0.62980  -0.59795
 Alpha  occ. eigenvalues --   -0.58935  -0.56173  -0.53547  -0.50990  -0.49431
 Alpha  occ. eigenvalues --   -0.43581  -0.42347  -0.35881
 Alpha virt. eigenvalues --    0.03076   0.03940   0.04383   0.04622   0.05511
 Alpha virt. eigenvalues --    0.06201   0.07462   0.09417   0.10125   0.10595
 Alpha virt. eigenvalues --    0.11120   0.12354   0.12726   0.12822   0.13713

 Mulliken charges:
               1
     1  O   -1.333119
     2  C   -0.467893
     3  H    0.298818
     4  H    0.139158
     5  H    0.298301
     6  C    1.412606
     7  N    0.948620
     8  C   -0.136263
     9  H   -0.097293
    10  C   -0.109698
    11  H   -0.128884
    12  S    0.619549
    13  C   -1.443902
 Sum of Mulliken charges =  -0.00000

 Dipole moment (field-independent basis, Debye):
    X=             -2.0517    Y=              0.8546    Z=              1.7115  Tot=              2.8052

 Test job not archived.
 1\1\GINC-SE334\SP\RHF\Aug-CC-pVDZ\C5H5N1O1S1\OHZDE\09-Apr-2025\0\\#t h
 f aug-cc-pvdz iop(5/13=1,5/36=2,99/5=2) pseudo=read geom=check guess=(
 read,tcheck) scf=(maxcycle=1)\\title\\0,1\O,0,21.747,-16.8122,-0.7728\
 C,0,21.1205,-18.5243,0.8072\H,0,21.316,-19.5971,0.7306\H,0,20.0914,-18
 .2914,0.5307\H,0,21.3022,-18.2305,1.8467\C,0,22.0764,-17.7513,-0.0639\
 N,0,23.9533,-19.3727,0.0188\C,0,25.3159,-19.3931,-0.0268\H,0,25.8386,-
 20.3417,-0.0665\C,0,25.9295,-18.1525,-0.0212\H,0,26.9886,-17.9304,-0.0
 184\S,0,24.755,-16.9157,0.0169\C,0,23.5187,-18.12,0.0762\\Version=ES64

 Normal termination of Gaussian 16 at Wed Apr  9 02:22:47 2025.
