 Gaussian 16, Revision C.01,

 ----------------------------------------------------------------------
 #t hf aug-cc-pvdz symm=none int=(grid=ultrafine) guess=(read,tcheck) s
 table=(opt,rrhf)
 ----------------------------------------------------------------------
 -----
 title
 -----
 Symbolic Z-matrix:
 Charge =  0 Multiplicity = 1

 SCF Done:  E(RHF) =  -681.468705570     A.U. after   13 cycles
 Normal termination of Gaussian 16 at Wed Apr  9 02:20:24 2025.
 Gaussian 16:  ES64L-G16RevC.01  3-Jul-2019

 ----------------------------------------------------------------------
 #t hf aug-cc-pvdz iop(5/13=1,5/36=2,99/5=2) pseudo=read geom=check gue
 ss=(read,tcheck) scf=(maxcycle=1)
 ----------------------------------------------------------------------
 -----
 title
 -----
 Structure from the checkpoint file:  "DCONF_16_-120_mol1.chk"
 Charge =  0 Multiplicity = 1

                         Standard orientation:
 ---------------------------------------------------------------------
 Center     Atomic      Atomic             Coordinates (Angstroms)
 Number     Number       Type             X           Y           Z
 ---------------------------------------------------------------------
      1          6           0        1.383101    1.243037   -0.392275
      2          1           0        1.553559    1.185747   -1.466789
      3          1           0        0.840384    2.149968   -0.126885
      4          1           0        2.326682    1.186674    0.152456
      5         16           0        0.417492   -0.163758    0.104038
      6          8           0        1.083957   -1.352952   -0.406834
      7          7           0       -0.991204    0.048459   -0.787026
      8          1           0       -1.037344   -0.699918   -1.473008
      9          8           0        0.097825   -0.007532    1.514524
     10          6           0       -2.245672    0.191129   -0.031418
     11          1           0       -2.477047   -0.679234    0.588872
     12          1           0       -2.182516    1.069828    0.609926
     13          1           0       -3.043999    0.346725   -0.759353
 ---------------------------------------------------------------------

 SCF Done:  E(RHF) =  -681.828895884     A.U. after    2 cycles

 The electronic state is 1-A.
 Alpha  occ. eigenvalues --  -94.21022 -20.53837 -20.53731 -15.54346 -11.28502
 Alpha  occ. eigenvalues --  -11.28492  -8.46019  -6.44141  -6.43964  -6.43830
 Alpha  occ. eigenvalues --   -1.55817  -1.43806  -1.24561  -1.06407  -0.96366
 Alpha  occ. eigenvalues --   -0.85187  -0.74207  -0.70443  -0.69075  -0.65030
 Alpha  occ. eigenvalues --   -0.62785  -0.60869  -0.60042  -0.57226  -0.52796
 Alpha  occ. eigenvalues --   -0.49147  -0.46614  -0.46229  -0.45466
 Alpha virt. eigenvalues --    0.03015   0.04111   0.04791   0.05575   0.05826
 Alpha virt. eigenvalues --    0.06171   0.07235   0.10054   0.12396   0.12728
 Alpha virt. eigenvalues --    0.13472   0.14661   0.15205   0.15796   0.16410

 Mulliken charges:
               1
     1  C   -0.625242
     2  H    0.248712
     3  H    0.246370
     4  H    0.275898
     5  S    3.044899
     6  O   -1.517900
     7  N   -0.333179
     8  H    0.228792
     9  O   -1.506429
    10  C   -0.402683
    11  H    0.144726
    12  H    0.117381
    13  H    0.078655
 Sum of Mulliken charges =  -0.00000

 Dipole moment (field-independent basis, Debye):
    X=             -1.5354    Y=              2.7137    Z=             -2.3111  Tot=              3.8811

 Test job not archived.
 1\1\GINC-SE195\SP\RHF\Aug-CC-pVDZ\C2H7N1O2S1\OHZDE\09-Apr-2025\0\\#t h
 f aug-cc-pvdz iop(5/13=1,5/36=2,99/5=2) pseudo=read geom=check guess=(
 read,tcheck) scf=(maxcycle=1)\\title\\0,1\C,0,-1.1185,-1.3992,-0.6208\
 H,0,-0.8752,-0.7947,0.2523\H,0,-0.4289,-1.2024,-1.4413\H,0,-2.1489,-1.
 2271,-0.9353\S,0,-0.9965,-3.1148,-0.174\O,0,-1.8003,-3.3123,1.0236\N,0
 ,0.6179,-3.2445,0.2736\H,0,0.6468,-3.4232,1.2736\O,0,-1.2049,-3.9032,-
 1.3786\C,0,1.449,-4.1911,-0.4868\H,0,1.0939,-5.2235,-0.4245\H,0,1.4699
 ,-3.8919,-1.5344\H,0,2.4616,-4.1255,-0.0846\\Version=ES64L-G16RevC.01\

 Normal termination of Gaussian 16 at Wed Apr  9 02:20:28 2025.
