 Gaussian 16, Revision C.01,

 ----------------------------------------------------------------------
 #t hf aug-cc-pvdz symm=none int=(grid=ultrafine) guess=(read,tcheck) s
 table=(opt,rrhf)
 ----------------------------------------------------------------------
 -----
 title
 -----
 Symbolic Z-matrix:
 Charge =  0 Multiplicity = 1

 SCF Done:  E(RHF) =  -719.113924082     A.U. after   16 cycles
 Normal termination of Gaussian 16 at Wed Apr  9 02:22:38 2025.
 Gaussian 16:  ES64L-G16RevC.01  3-Jul-2019

 ----------------------------------------------------------------------
 #t hf aug-cc-pvdz iop(5/13=1,5/36=2,99/5=2) pseudo=read geom=check gue
 ss=(read,tcheck) scf=(maxcycle=1)
 ----------------------------------------------------------------------
 -----
 title
 -----
 Structure from the checkpoint file:  "DCONF_28_-60_mol1.chk"
 Charge =  0 Multiplicity = 1

                         Standard orientation:
 ---------------------------------------------------------------------
 Center     Atomic      Atomic             Coordinates (Angstroms)
 Number     Number       Type             X           Y           Z
 ---------------------------------------------------------------------
      1          8           0       -1.975995   -1.059480   -0.798893
      2          6           0       -2.496778    0.823764    0.615839
      3          1           0       -2.213247    1.866581    0.448578
      4          1           0       -3.536463    0.650892    0.334823
      5          1           0       -2.358001    0.612174    1.681895
      6          6           0       -1.588294   -0.095673   -0.157671
      7          7           0        0.441859    1.318401   -0.329328
      8          6           0        1.801680    1.206743   -0.284361
      9          1           0        2.419362    2.066505   -0.516608
     10          6           0        2.284598   -0.041501    0.063928
     11          1           0        3.313648   -0.348667    0.195456
     12         16           0        0.987653   -1.121533    0.319969
     13          6           0       -0.120006    0.164015    0.001064
 ---------------------------------------------------------------------

 SCF Done:  E(RHF) =  -719.492801737     A.U. after    2 cycles

 The electronic state is 1-A.
 Alpha  occ. eigenvalues --  -94.00759 -20.55669 -15.53492 -11.36609 -11.32942
 Alpha  occ. eigenvalues --  -11.29178 -11.29084 -11.25474  -8.28972  -6.26713
 Alpha  occ. eigenvalues --   -6.26627  -6.26421  -1.48265  -1.30233  -1.11208
 Alpha  occ. eigenvalues --   -1.06402  -1.01081  -0.87467  -0.83065  -0.74940
 Alpha  occ. eigenvalues --   -0.71339  -0.65814  -0.64626  -0.62970  -0.59832
 Alpha  occ. eigenvalues --   -0.58993  -0.56337  -0.53535  -0.51012  -0.49381
 Alpha  occ. eigenvalues --   -0.43591  -0.42347  -0.35878
 Alpha virt. eigenvalues --    0.03099   0.03907   0.04393   0.04955   0.05748
 Alpha virt. eigenvalues --    0.06128   0.07447   0.09474   0.10116   0.10507
 Alpha virt. eigenvalues --    0.11093   0.12305   0.12640   0.12844   0.13676

 Mulliken charges:
               1
     1  O   -1.327112
     2  C   -0.474364
     3  H    0.298554
     4  H    0.140437
     5  H    0.294394
     6  C    1.393258
     7  N    0.941560
     8  C   -0.113888
     9  H   -0.097680
    10  C   -0.108231
    11  H   -0.129524
    12  S    0.606879
    13  C   -1.424283
 Sum of Mulliken charges =  -0.00000

 Dipole moment (field-independent basis, Debye):
    X=              1.9451    Y=              0.6430    Z=              2.0919  Tot=              2.9279

 Test job not archived.
 1\1\GINC-SE341\SP\RHF\Aug-CC-pVDZ\C5H5N1O1S1\OHZDE\09-Apr-2025\0\\#t h
 f aug-cc-pvdz iop(5/13=1,5/36=2,99/5=2) pseudo=read geom=check guess=(
 read,tcheck) scf=(maxcycle=1)\\title\\0,1\O,0,21.7274,-16.9393,0.9087\
 C,0,21.1436,-18.3603,-0.9512\H,0,21.3208,-19.4362,-1.0341\H,0,20.106,-
 18.1538,-0.6856\H,0,21.3762,-17.9128,-1.9239\C,0,22.0727,-17.7543,0.06
 79\N,0,23.9519,-19.3703,-0.0201\C,0,25.316,-19.3925,0.0283\H,0,25.8368
 ,-20.3421,0.0694\C,0,25.9314,-18.154,0.0231\H,0,26.9904,-17.9324,0.020
 5\S,0,24.757,-16.9158,-0.0186\C,0,23.5197,-18.1185,-0.0806\\Version=ES

 Normal termination of Gaussian 16 at Wed Apr  9 02:22:43 2025.
