 Gaussian 16, Revision C.01,

 ----------------------------------------------------------------------
 #t hf aug-cc-pvdz symm=none int=(grid=ultrafine) guess=(read,tcheck) s
 table=(opt,rrhf)
 ----------------------------------------------------------------------
 -----
 title
 -----
 Symbolic Z-matrix:
 Charge =  0 Multiplicity = 1

 SCF Done:  E(RHF) =  -575.157977666     A.U. after   15 cycles
 Normal termination of Gaussian 16 at Wed Apr  9 02:29:47 2025.
 Gaussian 16:  ES64L-G16RevC.01  3-Jul-2019

 ----------------------------------------------------------------------
 #t hf aug-cc-pvdz iop(5/13=1,5/36=2,99/5=2) pseudo=read geom=check gue
 ss=(read,tcheck) scf=(maxcycle=1)
 ----------------------------------------------------------------------
 -----
 title
 -----
 Structure from the checkpoint file:  "DCONF_48_120_mol1.chk"
 Charge =  0 Multiplicity = 1

                         Standard orientation:
 ---------------------------------------------------------------------
 Center     Atomic      Atomic             Coordinates (Angstroms)
 Number     Number       Type             X           Y           Z
 ---------------------------------------------------------------------
      1          6           0       -1.549860    0.756598    0.861623
      2          1           0       -1.007163    1.444474    1.503644
      3          6           0       -2.944391    0.771681    0.796622
      4          1           0       -3.518587    1.477759    1.390281
      5          6           0       -3.581272   -0.141575   -0.048377
      6          1           0       -4.663260   -0.169426   -0.137218
      7          6           0       -2.792328   -1.029097   -0.788158
      8          1           0       -3.254851   -1.751533   -1.457909
      9          7           0       -1.448753   -1.055449   -0.740454
     10          6           0       -0.844106   -0.172781    0.081686
     11          6           0        2.714009   -1.461997    0.403039
     12          1           0        3.222227   -2.389415    0.650760
     13          6           0        1.317336   -1.406907    0.415515
     14          1           0        0.727528   -2.286669    0.659327
     15          6           0        0.637375   -0.216081    0.111172
     16          6           0        1.408537    0.895420   -0.242479
     17          6           0        2.799430    0.867740   -0.269768
     18          1           0        3.343545    1.761977   -0.557375
     19          6           0        3.454917   -0.323822    0.059164
     20          1           0        4.540567   -0.359936    0.042350
     21          9           0        0.781488    2.047316   -0.576768
 ---------------------------------------------------------------------

 SCF Done:  E(RHF) =  -575.729302489     A.U. after    2 cycles

 The electronic state is 1-A.
 Alpha  occ. eigenvalues --  -26.47643 -15.51058 -11.33988 -11.29440 -11.28540
 Alpha  occ. eigenvalues --  -11.27083 -11.26028 -11.25930 -11.25764 -11.25461
 Alpha  occ. eigenvalues --  -11.25281 -11.25230 -11.25007  -1.60507  -1.26060
 Alpha  occ. eigenvalues --   -1.16457  -1.09186  -1.07101  -1.02324  -1.00739
 Alpha  occ. eigenvalues --   -0.89129  -0.88077  -0.84964  -0.83083  -0.75186
 Alpha  occ. eigenvalues --   -0.72416  -0.70522  -0.69215  -0.68198  -0.67008
 Alpha  occ. eigenvalues --   -0.65132  -0.62572  -0.61269  -0.60090  -0.59422
 Alpha  occ. eigenvalues --   -0.56516  -0.55368  -0.53412  -0.51487  -0.51150
 Alpha  occ. eigenvalues --   -0.45835  -0.40544  -0.37697  -0.34991  -0.33401
 Alpha virt. eigenvalues --    0.03281   0.03400   0.03802   0.04102   0.04408
 Alpha virt. eigenvalues --    0.05684   0.06288   0.06502   0.07074   0.08656
 Alpha virt. eigenvalues --    0.09227   0.10162   0.10511   0.11159   0.11475

 Mulliken charges:
               1
     1  C    1.029921
     2  H   -0.257344
     3  C   -0.282295
     4  H   -0.164750
     5  C    0.847276
     6  H   -0.189316
     7  C   -0.860610
     8  H   -0.223331
     9  N    1.588982
    10  C   -2.516557
    11  C   -0.095329
    12  H   -0.217231
    13  C    0.037155
    14  H   -0.243240
    15  C    1.591769
    16  C    1.331588
    17  C   -0.179228
    18  H   -0.193632
    19  C    0.262951
    20  H   -0.202198
    21  F   -1.064581
 Sum of Mulliken charges =   0.00000

 Dipole moment (field-independent basis, Debye):
    X=             -0.6187    Y=              0.3282    Z=              1.7020  Tot=              1.8405

 Test job not archived.
 1\1\GINC-SE344\SP\RHF\Aug-CC-pVDZ\C11H8F1N1\OHZDE\09-Apr-2025\0\\#t hf
  aug-cc-pvdz iop(5/13=1,5/36=2,99/5=2) pseudo=read geom=check guess=(r
 ead,tcheck) scf=(maxcycle=1)\\title\\0,1\C,0,21.7676,-33.8962,-0.9826\
 H,0,22.2631,-34.4128,-1.7996\C,0,20.3752,-33.8351,-0.901\H,0,19.7551,-
 34.3076,-1.6579\C,0,19.8008,-33.1528,0.1752\H,0,18.7231,-33.0782,0.286
 4\C,0,20.6473,-32.5616,1.1193\H,0,20.2341,-32.025,1.9712\N,0,21.9896,-
 32.6133,1.0583\C,0,22.5339,-33.2705,0.0131\C,0,26.1735,-32.1848,0.0034
 \H,0,26.7453,-31.2614,0.0149\C,0,24.7764,-32.1403,-0.0005\H,0,24.2495,

 Normal termination of Gaussian 16 at Wed Apr  9 02:30:04 2025.
