 Gaussian 16, Revision C.01,

 ----------------------------------------------------------------------
 #t hf aug-cc-pvdz symm=none int=(grid=ultrafine) guess=(read,tcheck) s
 table=(opt,rrhf)
 ----------------------------------------------------------------------
 -----
 title
 -----
 Symbolic Z-matrix:
 Charge =  0 Multiplicity = 1

 SCF Done:  E(RHF) =  -796.895218006     A.U. after   16 cycles
 Normal termination of Gaussian 16 at Wed Apr  9 02:29:00 2025.
 Gaussian 16:  ES64L-G16RevC.01  3-Jul-2019

 ----------------------------------------------------------------------
 #t hf aug-cc-pvdz iop(5/13=1,5/36=2,99/5=2) pseudo=read geom=check gue
 ss=(read,tcheck) scf=(maxcycle=1)
 ----------------------------------------------------------------------
 -----
 title
 -----
 Structure from the checkpoint file:  "DCONF_52_-50_mol1.chk"
 Charge =  0 Multiplicity = 1

                         Standard orientation:
 ---------------------------------------------------------------------
 Center     Atomic      Atomic             Coordinates (Angstroms)
 Number     Number       Type             X           Y           Z
 ---------------------------------------------------------------------
      1          6           0        1.346073   -1.043147    0.514456
      2          1           0        0.754333   -1.857607    0.922627
      3          6           0        2.739395   -1.113157    0.479839
      4          1           0        3.256767   -1.996524    0.844275
      5          6           0        3.451045   -0.019052   -0.019943
      6          1           0        4.536006   -0.022910   -0.065972
      7          6           0        2.730533    1.095198   -0.463741
      8          1           0        3.250774    1.966149   -0.857753
      9          7           0        1.389023    1.174052   -0.458184
     10          6           0        0.708771    0.115777    0.035625
     11          6           0       -1.523466    1.277018    0.503774
     12          1           0       -1.072953    2.190849    0.875676
     13          6           0       -2.914999    1.019191    0.431830
     14          1           0       -3.686903    1.713423    0.745667
     15          6           0       -3.192158   -0.238590   -0.075398
     16          1           0       -4.159363   -0.689056   -0.258585
     17         16           0       -1.758167   -1.088576   -0.475130
     18          6           0       -0.757051    0.222517    0.027467
 ---------------------------------------------------------------------

 SCF Done:  E(RHF) =  -797.356765619     A.U. after    2 cycles

 The electronic state is 1-A.
 Alpha  occ. eigenvalues --  -93.98114 -15.51073 -11.29971 -11.28735 -11.27368
 Alpha  occ. eigenvalues --  -11.27317 -11.27311 -11.25443 -11.25374 -11.24957
 Alpha  occ. eigenvalues --  -11.24743  -8.26312  -6.24081  -6.23987  -6.23781
 Alpha  occ. eigenvalues --   -1.26198  -1.18963  -1.09362  -1.06173  -1.00874
 Alpha  occ. eigenvalues --   -0.97991  -0.88031  -0.87521  -0.78030  -0.76561
 Alpha  occ. eigenvalues --   -0.72350  -0.69954  -0.68489  -0.64502  -0.60306
 Alpha  occ. eigenvalues --   -0.59162  -0.58167  -0.56733  -0.54247  -0.53567
 Alpha  occ. eigenvalues --   -0.52905  -0.48696  -0.45969  -0.40753  -0.37639
 Alpha  occ. eigenvalues --   -0.35588  -0.31326
 Alpha virt. eigenvalues --    0.03210   0.03593   0.03856   0.04390   0.04562
 Alpha virt. eigenvalues --    0.06093   0.06389   0.06752   0.07885   0.08828
 Alpha virt. eigenvalues --    0.10028   0.10467   0.11045   0.11698   0.11799

 Mulliken charges:
               1
     1  C    0.906915
     2  H   -0.201447
     3  C   -0.316292
     4  H   -0.163151
     5  C    0.808018
     6  H   -0.184904
     7  C   -0.903126
     8  H   -0.218146
     9  N    1.604796
    10  C   -2.100463
    11  C    0.260196
    12  H   -0.181196
    13  C    0.275440
    14  H   -0.111331
    15  C   -0.601049
    16  H   -0.160673
    17  S    0.595921
    18  C    0.690492
 Sum of Mulliken charges =  -0.00000

 Dipole moment (field-independent basis, Debye):
    X=              0.9711    Y=             -1.3252    Z=              1.2366  Tot=              2.0564

 Test job not archived.
 1\1\GINC-SE335\SP\RHF\Aug-CC-pVDZ\C9H7N1S1\OHZDE\09-Apr-2025\0\\#t hf
 aug-cc-pvdz iop(5/13=1,5/36=2,99/5=2) pseudo=read geom=check guess=(re
 ad,tcheck) scf=(maxcycle=1)\\title\\0,1\C,0,30.1839,-8.3557,0.0077\H,0
 ,30.7517,-7.4301,0.0389\C,0,28.7885,-8.3437,-0.0049\H,0,28.2447,-7.402
 9,-0.0038\C,0,28.1099,-9.5655,-0.0051\H,0,27.0249,-9.6102,-0.0123\C,0,
 28.864,-10.744,0.0058\H,0,28.3701,-11.7138,0.0076\N,0,30.2074,-10.7771
 ,-0.003\C,0,30.8559,-9.5914,0.007\C,0,33.1403,-10.4085,0.8221\H,0,32.7
 33,-11.111,1.5411\C,0,34.5191,-10.1623,0.6069\H,0,35.3234,-10.6528,1.1

 Normal termination of Gaussian 16 at Wed Apr  9 02:29:12 2025.
