 Gaussian 16, Revision C.01,

 ----------------------------------------------------------------------
 #t hf aug-cc-pvdz symm=none int=(grid=ultrafine) guess=(read,tcheck) s
 table=(opt,rrhf)
 ----------------------------------------------------------------------
 -----
 title
 -----
 Symbolic Z-matrix:
 Charge =  0 Multiplicity = 1

 SCF Done:  E(RHF) =  -812.895461258     A.U. after   17 cycles
 Normal termination of Gaussian 16 at Wed Apr  9 02:29:55 2025.
 Gaussian 16:  ES64L-G16RevC.01  3-Jul-2019

 ----------------------------------------------------------------------
 #t hf aug-cc-pvdz iop(5/13=1,5/36=2,99/5=2) pseudo=read geom=check gue
 ss=(read,tcheck) scf=(maxcycle=1)
 ----------------------------------------------------------------------
 -----
 title
 -----
 Structure from the checkpoint file:  "DCONF_56_-10_mol1.chk"
 Charge =  0 Multiplicity = 1

                         Standard orientation:
 ---------------------------------------------------------------------
 Center     Atomic      Atomic             Coordinates (Angstroms)
 Number     Number       Type             X           Y           Z
 ---------------------------------------------------------------------
      1          6           0        1.327224   -1.135381    0.174157
      2          1           0        0.743709   -2.039743    0.324871
      3          6           0        2.719443   -1.198941    0.127447
      4          1           0        3.230813   -2.151627    0.235570
      5          6           0        3.438079   -0.010540   -0.029914
      6          1           0        4.523495   -0.004631   -0.062272
      7          6           0        2.718998    1.185031   -0.144098
      8          1           0        3.242176    2.132481   -0.260100
      9          7           0        1.380063    1.264865   -0.124658
     10          6           0        0.695180    0.111820    0.014779
     11          7           0       -1.434386    1.365361    0.173326
     12          6           0       -2.779946    1.148627    0.122731
     13          1           0       -3.459918    1.987677    0.218405
     14          6           0       -3.173533   -0.165347   -0.044620
     15          1           0       -4.175748   -0.568034   -0.105583
     16         16           0       -1.796796   -1.170386   -0.150329
     17          6           0       -0.774702    0.224477    0.065134
 ---------------------------------------------------------------------

 SCF Done:  E(RHF) =  -813.369846241     A.U. after    2 cycles

 The electronic state is 1-A.
 Alpha  occ. eigenvalues --  -93.99370 -15.51477 -15.51272 -11.32112 -11.30516
 Alpha  occ. eigenvalues --  -11.29026 -11.27947 -11.27746 -11.27742 -11.26368
 Alpha  occ. eigenvalues --  -11.25998  -8.27632  -6.25384  -6.25298  -6.25090
 Alpha  occ. eigenvalues --   -1.29265  -1.25896  -1.10344  -1.09471  -1.07376
 Alpha  occ. eigenvalues --   -1.00028  -0.89574  -0.88487  -0.82181  -0.78571
 Alpha  occ. eigenvalues --   -0.73297  -0.70329  -0.69142  -0.65973  -0.61759
 Alpha  occ. eigenvalues --   -0.60294  -0.59821  -0.58654  -0.55747  -0.55180
 Alpha  occ. eigenvalues --   -0.51930  -0.46907  -0.46158  -0.41960  -0.40721
 Alpha  occ. eigenvalues --   -0.39107  -0.32199
 Alpha virt. eigenvalues --    0.03014   0.03447   0.03698   0.03804   0.04692
 Alpha virt. eigenvalues --    0.05025   0.06640   0.07653   0.09032   0.09272
 Alpha virt. eigenvalues --    0.10294   0.10792   0.11218   0.11873   0.12413

 Mulliken charges:
               1
     1  C    1.133161
     2  H   -0.177092
     3  C   -0.271035
     4  H   -0.171927
     5  C    0.766544
     6  H   -0.182748
     7  C   -0.883884
     8  H   -0.202756
     9  N    1.625991
    10  C   -1.164373
    11  N    1.223237
    12  C   -0.091208
    13  H   -0.127531
    14  C   -0.166033
    15  H   -0.151201
    16  S    0.725420
    17  C   -1.884563
 Sum of Mulliken charges =   0.00000

 Dipole moment (field-independent basis, Debye):
    X=              0.9367    Y=             -3.7292    Z=              0.0267  Tot=              3.8451

 Test job not archived.
 1\1\GINC-SE131\SP\RHF\Aug-CC-pVDZ\C8H6N2S1\OHZDE\09-Apr-2025\0\\#t hf
 aug-cc-pvdz iop(5/13=1,5/36=2,99/5=2) pseudo=read geom=check guess=(re
 ad,tcheck) scf=(maxcycle=1)\\title\\0,1\C,0,30.1206,-21.0948,0.0111\H,
 0,30.6754,-20.1607,0.0381\C,0,28.7263,-21.0819,-0.0049\H,0,28.1845,-20
 .14,0.0039\C,0,28.0463,-22.303,-0.0013\H,0,26.9613,-22.3475,-0.0032\C,
 0,28.804,-23.48,0.0069\H,0,28.3118,-24.4508,0.0178\N,0,30.145,-23.514,
 -0.0008\C,0,30.7921,-22.3312,-0.0171\N,0,32.9674,-23.4881,0.2303\C,0,3
 4.303,-23.2359,0.1179\H,0,35.014,-24.0354,0.2934\C,0,34.6463,-21.9392,

 Normal termination of Gaussian 16 at Wed Apr  9 02:30:06 2025.
