 Gaussian 16, Revision C.01,

 ----------------------------------------------------------------------
 #t hf aug-cc-pvdz symm=none int=(grid=ultrafine) guess=(read,tcheck) s
 table=(opt,rrhf)
 ----------------------------------------------------------------------
 -----
 title
 -----
 Symbolic Z-matrix:
 Charge =  0 Multiplicity = 1

 SCF Done:  E(RHF) =  -812.904720196     A.U. after   16 cycles
 Normal termination of Gaussian 16 at Wed Apr  9 02:29:44 2025.
 Gaussian 16:  ES64L-G16RevC.01  3-Jul-2019

 ----------------------------------------------------------------------
 #t hf aug-cc-pvdz iop(5/13=1,5/36=2,99/5=2) pseudo=read geom=check gue
 ss=(read,tcheck) scf=(maxcycle=1)
 ----------------------------------------------------------------------
 -----
 title
 -----
 Structure from the checkpoint file:  "DCONF_56_-160_mol1.chk"
 Charge =  0 Multiplicity = 1

                         Standard orientation:
 ---------------------------------------------------------------------
 Center     Atomic      Atomic             Coordinates (Angstroms)
 Number     Number       Type             X           Y           Z
 ---------------------------------------------------------------------
      1          6           0       -1.481415    1.269065   -0.191740
      2          1           0       -1.000595    2.230582   -0.341204
      3          6           0       -2.868070    1.124727   -0.165811
      4          1           0       -3.514543    1.987112   -0.304957
      5          6           0       -3.409782   -0.151582    0.026706
      6          1           0       -4.483378   -0.311991    0.049409
      7          6           0       -2.534010   -1.229021    0.198019
      8          1           0       -2.918593   -2.234966    0.353096
      9          7           0       -1.196162   -1.109988    0.193606
     10          6           0       -0.689099    0.124692   -0.001139
     11          7           0        1.432592    1.362387    0.208639
     12          6           0        2.778265    1.132076    0.193826
     13          1           0        3.465463    1.955716    0.350902
     14          6           0        3.153391   -0.182691   -0.013469
     15          1           0        4.153608   -0.592629   -0.062058
     16         16           0        1.769218   -1.169334   -0.197333
     17          6           0        0.773312    0.230856    0.003013
 ---------------------------------------------------------------------

 SCF Done:  E(RHF) =  -813.378423144     A.U. after    2 cycles

 The electronic state is 1-A.
 Alpha  occ. eigenvalues --  -93.98968 -15.51923 -15.51462 -11.31771 -11.30238
 Alpha  occ. eigenvalues --  -11.29210 -11.27738 -11.27602 -11.27364 -11.25980
 Alpha  occ. eigenvalues --  -11.25819  -8.27166  -6.24905  -6.24817  -6.24614
 Alpha  occ. eigenvalues --   -1.29233  -1.26243  -1.10070  -1.09232  -1.07275
 Alpha  occ. eigenvalues --   -1.00024  -0.89328  -0.88616  -0.81851  -0.78505
 Alpha  occ. eigenvalues --   -0.72990  -0.70335  -0.68891  -0.65462  -0.61659
 Alpha  occ. eigenvalues --   -0.60847  -0.60118  -0.57919  -0.55834  -0.54697
 Alpha  occ. eigenvalues --   -0.51733  -0.48209  -0.45846  -0.41330  -0.41266
 Alpha  occ. eigenvalues --   -0.38608  -0.32005
 Alpha virt. eigenvalues --    0.03106   0.03727   0.03869   0.04013   0.04372
 Alpha virt. eigenvalues --    0.05020   0.07033   0.07900   0.08501   0.09572
 Alpha virt. eigenvalues --    0.10319   0.10647   0.10814   0.11765   0.12444

 Mulliken charges:
               1
     1  C    1.108978
     2  H   -0.228240
     3  C   -0.165908
     4  H   -0.160607
     5  C    0.760518
     6  H   -0.186790
     7  C   -0.877317
     8  H   -0.206357
     9  N    1.592281
    10  C   -1.085211
    11  N    1.346197
    12  C   -0.235461
    13  H   -0.147592
    14  C   -0.009844
    15  H   -0.151656
    16  S    0.631255
    17  C   -1.984246
 Sum of Mulliken charges =  -0.00000

 Dipole moment (field-independent basis, Debye):
    X=             -1.3085    Y=              0.2580    Z=             -0.5797  Tot=              1.4543

 Test job not archived.
 1\1\GINC-SE459\SP\RHF\Aug-CC-pVDZ\C8H6N2S1\OHZDE\09-Apr-2025\0\\#t hf
 aug-cc-pvdz iop(5/13=1,5/36=2,99/5=2) pseudo=read geom=check guess=(re
 ad,tcheck) scf=(maxcycle=1)\\title\\0,1\C,0,30.1275,-21.0891,-0.008\H,
 0,30.7127,-20.175,-0.01\C,0,28.7332,-21.0819,0.0059\H,0,28.187,-20.142
 4,0.0074\C,0,28.0524,-22.305,0.002\H,0,26.9675,-22.3476,0.0078\C,0,28.
 8025,-23.4859,-0.0029\H,0,28.308,-24.4551,-0.003\N,0,30.1453,-23.5159,
 0.0009\C,0,30.7871,-22.3295,-0.0036\N,0,33.0301,-21.381,0.3795\C,0,34.
 3423,-21.7532,0.3187\H,0,35.1145,-21.0448,0.5965\C,0,34.5723,-23.0531,

 Normal termination of Gaussian 16 at Wed Apr  9 02:29:55 2025.
