 Gaussian 16, Revision C.01,

 ----------------------------------------------------------------------
 #t hf aug-cc-pvdz symm=none int=(grid=ultrafine) guess=(read,tcheck) s
 table=(opt,rrhf)
 ----------------------------------------------------------------------
 -----
 title
 -----
 Symbolic Z-matrix:
 Charge =  0 Multiplicity = 1

 SCF Done:  E(RHF) =  -796.897644539     A.U. after   15 cycles
 Normal termination of Gaussian 16 at Wed Apr  9 02:28:49 2025.
 Gaussian 16:  ES64L-G16RevC.01  3-Jul-2019

 ----------------------------------------------------------------------
 #t hf aug-cc-pvdz iop(5/13=1,5/36=2,99/5=2) pseudo=read geom=check gue
 ss=(read,tcheck) scf=(maxcycle=1)
 ----------------------------------------------------------------------
 -----
 title
 -----
 Structure from the checkpoint file:  "DCONF_52_-150_mol1.chk"
 Charge =  0 Multiplicity = 1

                         Standard orientation:
 ---------------------------------------------------------------------
 Center     Atomic      Atomic             Coordinates (Angstroms)
 Number     Number       Type             X           Y           Z
 ---------------------------------------------------------------------
      1          6           0       -1.502725    1.238145   -0.305692
      2          1           0       -1.037668    2.181028   -0.578359
      3          6           0       -2.890491    1.105212   -0.269366
      4          1           0       -3.531607    1.951345   -0.501905
      5          6           0       -3.436898   -0.144130    0.041930
      6          1           0       -4.510978   -0.300133    0.073542
      7          6           0       -2.562357   -1.202793    0.308268
      8          1           0       -2.949052   -2.192820    0.542498
      9          7           0       -1.224478   -1.087224    0.305614
     10          6           0       -0.703171    0.124214    0.010430
     11          6           0        1.537368    1.342279    0.323158
     12          1           0        1.113297    2.305131    0.589412
     13          6           0        2.925320    1.066463    0.267768
     14          1           0        3.705850    1.790789    0.473459
     15          6           0        3.180300   -0.255901   -0.055133
     16          1           0        4.142605   -0.739608   -0.166896
     17         16           0        1.738157   -1.150511   -0.289426
     18          6           0        0.757387    0.230347    0.021931
 ---------------------------------------------------------------------

 SCF Done:  E(RHF) =  -797.358839122     A.U. after    2 cycles

 The electronic state is 1-A.
 Alpha  occ. eigenvalues --  -93.97724 -15.50992 -11.30025 -11.28769 -11.27359
 Alpha  occ. eigenvalues --  -11.27334 -11.27222 -11.25444 -11.25263 -11.25158
 Alpha  occ. eigenvalues --  -11.24807  -8.25892  -6.23652  -6.23552  -6.23350
 Alpha  occ. eigenvalues --   -1.26317  -1.18806  -1.09355  -1.06249  -1.00926
 Alpha  occ. eigenvalues --   -0.97859  -0.88228  -0.87409  -0.77965  -0.76609
 Alpha  occ. eigenvalues --   -0.72667  -0.69551  -0.68589  -0.64562  -0.60362
 Alpha  occ. eigenvalues --   -0.59289  -0.58067  -0.56817  -0.54305  -0.53487
 Alpha  occ. eigenvalues --   -0.52733  -0.48933  -0.45628  -0.40880  -0.38315
 Alpha  occ. eigenvalues --   -0.35385  -0.30635
 Alpha virt. eigenvalues --    0.03112   0.03469   0.03731   0.04298   0.04915
 Alpha virt. eigenvalues --    0.05230   0.06317   0.06701   0.08238   0.09148
 Alpha virt. eigenvalues --    0.09555   0.10832   0.11119   0.11324   0.12433

 Mulliken charges:
               1
     1  C    1.139007
     2  H   -0.235039
     3  C   -0.327560
     4  H   -0.167689
     5  C    0.797946
     6  H   -0.188333
     7  C   -0.900304
     8  H   -0.218409
     9  N    1.637385
    10  C   -2.529939
    11  C    0.331806
    12  H   -0.231569
    13  C    0.195949
    14  H   -0.132131
    15  C   -0.567180
    16  H   -0.160446
    17  S    0.527260
    18  C    1.029246
 Sum of Mulliken charges =   0.00000

 Dipole moment (field-independent basis, Debye):
    X=             -1.1901    Y=              2.4486    Z=             -0.3114  Tot=              2.7403

 Test job not archived.
 1\1\GINC-SE367\SP\RHF\Aug-CC-pVDZ\C9H7N1S1\OHZDE\09-Apr-2025\0\\#t hf
 aug-cc-pvdz iop(5/13=1,5/36=2,99/5=2) pseudo=read geom=check guess=(re
 ad,tcheck) scf=(maxcycle=1)\\title\\0,1\C,0,30.1857,-8.3559,-0.0186\H,
 0,30.7524,-7.4302,-0.0584\C,0,28.7914,-8.3445,0.0075\H,0,28.2476,-7.40
 36,0.0016\C,0,28.1104,-9.5662,0.0106\H,0,27.0255,-9.6094,0.0211\C,0,28
 .863,-10.7451,-0.0071\H,0,28.3695,-11.7151,-0.0175\N,0,30.2055,-10.776
 2,-0.004\C,0,30.8573,-9.5923,-0.0004\C,0,33.2129,-8.7359,0.5646\H,0,32
 .8925,-7.8289,1.0671\C,0,34.5635,-9.1363,0.4193\H,0,35.4155,-8.5729,0.

 Normal termination of Gaussian 16 at Wed Apr  9 02:28:59 2025.
