 Gaussian 16, Revision C.01,

 ----------------------------------------------------------------------
 #t hf aug-cc-pvdz symm=none int=(grid=ultrafine) guess=(read,tcheck) s
 table=(opt,rrhf)
 ----------------------------------------------------------------------
 -----
 title
 -----
 Symbolic Z-matrix:
 Charge =  0 Multiplicity = 1

 SCF Done:  E(RHF) =  -796.904054567     A.U. after   17 cycles
 Normal termination of Gaussian 16 at Wed Apr  9 02:29:39 2025.
 Gaussian 16:  ES64L-G16RevC.01  3-Jul-2019

 ----------------------------------------------------------------------
 #t hf aug-cc-pvdz iop(5/13=1,5/36=2,99/5=2) pseudo=read geom=check gue
 ss=(read,tcheck) scf=(maxcycle=1)
 ----------------------------------------------------------------------
 -----
 title
 -----
 Structure from the checkpoint file:  "DCONF_55_-130_mol1.chk"
 Charge =  0 Multiplicity = 1

                         Standard orientation:
 ---------------------------------------------------------------------
 Center     Atomic      Atomic             Coordinates (Angstroms)
 Number     Number       Type             X           Y           Z
 ---------------------------------------------------------------------
      1          6           0       -1.436812    1.182379   -0.431886
      2          1           0       -0.927005    2.081039   -0.768268
      3          6           0       -2.831847    1.100304   -0.439190
      4          1           0       -3.419319    1.944746   -0.790081
      5          6           0       -3.473746   -0.063127    0.006119
      6          1           0       -4.558596   -0.123975   -0.001405
      7          6           0       -2.713431   -1.145986    0.464010
      8          1           0       -3.207296   -2.043344    0.827496
      9          6           0       -1.316951   -1.067058    0.480935
     10          1           0       -0.726313   -1.895568    0.865107
     11          6           0       -0.671923    0.091088    0.014568
     12          7           0        1.440450    1.243746    0.565189
     13          6           0        2.791973    1.042861    0.494397
     14          1           0        3.465898    1.803717    0.871496
     15          6           0        3.191861   -0.158820   -0.056040
     16          1           0        4.197945   -0.526019   -0.209815
     17         16           0        1.819004   -1.067155   -0.519406
     18          6           0        0.792121    0.206305    0.060363
 ---------------------------------------------------------------------

 SCF Done:  E(RHF) =  -797.366079827     A.U. after    2 cycles

 The electronic state is 1-A.
 Alpha  occ. eigenvalues --  -93.99153 -15.51222 -11.32204 -11.27898 -11.27393
 Alpha  occ. eigenvalues --  -11.26502 -11.25769 -11.25535 -11.25462 -11.25384
 Alpha  occ. eigenvalues --  -11.25284  -8.27401  -6.25151  -6.25065  -6.24857
 Alpha  occ. eigenvalues --   -1.28668  -1.16365  -1.09575  -1.06088  -1.02433
 Alpha  occ. eigenvalues --   -0.98833  -0.86514  -0.84895  -0.81473  -0.76993
 Alpha  occ. eigenvalues --   -0.72546  -0.69335  -0.65546  -0.64828  -0.61284
 Alpha  occ. eigenvalues --   -0.60822  -0.59136  -0.57651  -0.52606  -0.52125
 Alpha  occ. eigenvalues --   -0.51475  -0.51436  -0.46672  -0.41386  -0.37678
 Alpha  occ. eigenvalues --   -0.35331  -0.32377
 Alpha virt. eigenvalues --    0.03369   0.03521   0.03777   0.04522   0.04805
 Alpha virt. eigenvalues --    0.06001   0.06541   0.06864   0.08186   0.09589
 Alpha virt. eigenvalues --    0.10138   0.10272   0.11053   0.11292   0.11775

 Mulliken charges:
               1
     1  C   -0.185618
     2  H   -0.250908
     3  C    0.101808
     4  H   -0.213281
     5  C    0.015370
     6  H   -0.207939
     7  C    0.142440
     8  H   -0.216258
     9  C   -0.030766
    10  H   -0.242937
    11  C    2.633489
    12  N    1.269605
    13  C   -0.230257
    14  H   -0.127041
    15  C   -0.048820
    16  H   -0.144110
    17  S    0.552372
    18  C   -2.817149
 Sum of Mulliken charges =   0.00000

 Dipole moment (field-independent basis, Debye):
    X=             -0.0970    Y=             -1.4304    Z=             -0.6501  Tot=              1.5742

 Test job not archived.
 1\1\GINC-SE247\SP\RHF\Aug-CC-pVDZ\C9H7N1S1\OHZDE\09-Apr-2025\0\\#t hf
 aug-cc-pvdz iop(5/13=1,5/36=2,99/5=2) pseudo=read geom=check guess=(re
 ad,tcheck) scf=(maxcycle=1)\\title\\0,1\C,0,21.8307,-21.1411,-0.0038\H
 ,0,22.398,-20.2144,0.0027\C,0,20.4333,-21.1301,0.0043\H,0,19.9021,-20.
 1819,0.0129\C,0,19.717,-22.3346,0.0044\H,0,18.6305,-22.3226,0.0101\C,0
 ,20.4052,-23.5539,0.0005\H,0,19.8541,-24.4905,0.0191\C,0,21.8039,-23.5
 715,0.0001\H,0,22.3396,-24.5176,0.0282\C,0,22.5228,-22.3642,-0.0216\N,
 0,24.713,-21.6311,0.8499\C,0,26.0471,-21.8721,0.6653\H,0,26.7742,-21.3

 Normal termination of Gaussian 16 at Wed Apr  9 02:29:50 2025.
