 Gaussian 16, Revision C.01,

 ----------------------------------------------------------------------
 #t hf aug-cc-pvdz symm=none int=(grid=ultrafine) guess=(read,tcheck) s
 table=(opt,rrhf)
 ----------------------------------------------------------------------
 -----
 title
 -----
 Symbolic Z-matrix:
 Charge =  0 Multiplicity = 1

 SCF Done:  E(RHF) =  -355.053555735     A.U. after   12 cycles
 Normal termination of Gaussian 16 at Wed Apr  9 02:31:27 2025.
 Gaussian 16:  ES64L-G16RevC.01  3-Jul-2019

 ----------------------------------------------------------------------
 #t hf aug-cc-pvdz iop(5/13=1,5/36=2,99/5=2) pseudo=read geom=check gue
 ss=(read,tcheck) scf=(maxcycle=1)
 ----------------------------------------------------------------------
 -----
 title
 -----
 Structure from the checkpoint file:  "DCONF_9_-10_mol1.chk"
 Charge =  0 Multiplicity = 1

                         Standard orientation:
 ---------------------------------------------------------------------
 Center     Atomic      Atomic             Coordinates (Angstroms)
 Number     Number       Type             X           Y           Z
 ---------------------------------------------------------------------
      1          6           0        0.262155   -0.539693    0.457253
      2          1           0        0.537097   -0.675485    1.509601
      3          1           0        0.309005   -1.525805   -0.014390
      4          6           0        1.266804    0.412389   -0.195538
      5          1           0        1.224208    1.384274    0.304092
      6          1           0        0.985798    0.582810   -1.239560
      7          6           0        2.685216   -0.151867   -0.121968
      8          1           0        2.987812   -0.312430    0.918079
      9          1           0        3.404659    0.532232   -0.580318
     10          1           0        2.751655   -1.111781   -0.643668
     11          6           0       -1.189804   -0.076675    0.400820
     12          1           0       -1.722014   -0.140980    1.351575
     13          9           0       -1.889052   -0.838634   -0.503143
     14          9           0       -1.291442    1.216660   -0.035614
 ---------------------------------------------------------------------

 SCF Done:  E(RHF) =  -355.408479025     A.U. after    2 cycles

 The electronic state is 1-A.
 Alpha  occ. eigenvalues --  -26.46774 -26.46472 -11.41188 -11.24962 -11.23939
 Alpha  occ. eigenvalues --  -11.23200  -1.63155  -1.56291  -1.09057  -0.99512
 Alpha  occ. eigenvalues --   -0.89172  -0.81857  -0.76067  -0.73141  -0.71547
 Alpha  occ. eigenvalues --   -0.65034  -0.62786  -0.60769  -0.59154  -0.57199
 Alpha  occ. eigenvalues --   -0.55044  -0.54258  -0.50237  -0.48949  -0.48469
 Alpha virt. eigenvalues --    0.03404   0.03742   0.04284   0.04957   0.06312
 Alpha virt. eigenvalues --    0.07151   0.07533   0.08008   0.11584   0.12299
 Alpha virt. eigenvalues --    0.13008   0.13463   0.14777   0.15626   0.16372

 Mulliken charges:
               1
     1  C   -0.579196
     2  H    0.135422
     3  H    0.161941
     4  C   -0.267615
     5  H    0.161948
     6  H    0.125060
     7  C   -0.417023
     8  H    0.175325
     9  H    0.125828
    10  H    0.169943
    11  C    1.721978
    12  H    0.028134
    13  F   -0.761525
    14  F   -0.780220
 Sum of Mulliken charges =  -0.00000

 Dipole moment (field-independent basis, Debye):
    X=              1.5618    Y=             -0.5840    Z=              1.5648  Tot=              2.2867

 Test job not archived.
 1\1\GINC-SE073\SP\RHF\Aug-CC-pVDZ\C4H8F2\OHZDE\09-Apr-2025\0\\#t hf au
 g-cc-pvdz iop(5/13=1,5/36=2,99/5=2) pseudo=read geom=check guess=(read
 ,tcheck) scf=(maxcycle=1)\\title\\0,1\C,0,-0.117,-0.0992,-0.0782\H,0,-
 0.1676,0.4022,-1.0516\H,0,-0.2136,0.6777,0.6861\C,0,1.2366,-0.8026,0.0
 439\H,0,1.3262,-1.5576,-0.7422\H,0,1.2886,-1.335,0.9988\C,0,2.3866,0.1
 987,-0.059\H,0,2.3583,0.7283,-1.017\H,0,3.3542,-0.3046,0.0192\H,0,2.32
 8,0.9448,0.7397\C,0,-1.3294,-1.0156,0.0485\H,0,-2.0852,-0.875,-0.7263\
 F,0,-1.9491,-0.8073,1.2565\F,0,-0.9692,-2.336,0.0306\\Version=ES64L-G1

 Normal termination of Gaussian 16 at Wed Apr  9 02:31:31 2025.
