 Gaussian 16, Revision C.01,

 ----------------------------------------------------------------------
 #t hf aug-cc-pvdz symm=none int=(grid=ultrafine) guess=(read,tcheck) s
 table=(opt,rrhf)
 ----------------------------------------------------------------------
 -----
 title
 -----
 Symbolic Z-matrix:
 Charge =  0 Multiplicity = 1

 SCF Done:  E(RHF) =  -911.016371585     A.U. after   16 cycles
 Normal termination of Gaussian 16 at Wed Apr  9 02:28:11 2025.
 Gaussian 16:  ES64L-G16RevC.01  3-Jul-2019

 ----------------------------------------------------------------------
 #t hf aug-cc-pvdz iop(5/13=1,5/36=2,99/5=2) pseudo=read geom=check gue
 ss=(read,tcheck) scf=(maxcycle=1)
 ----------------------------------------------------------------------
 -----
 title
 -----
 Structure from the checkpoint file:  "DCONF_30_160_mol1.chk"
 Charge =  0 Multiplicity = 1

                         Standard orientation:
 ---------------------------------------------------------------------
 Center     Atomic      Atomic             Coordinates (Angstroms)
 Number     Number       Type             X           Y           Z
 ---------------------------------------------------------------------
      1          6           0        3.085721   -0.772273    0.305232
      2          1           0        3.829040   -1.518582    0.571824
      3          6           0        1.730028   -1.113181    0.316777
      4          1           0        1.404856   -2.108079    0.606621
      5          6           0        0.782812   -0.138229   -0.021983
      6         16           0       -0.910488   -0.680674   -0.134162
      7          7           0       -1.721897    0.785142    0.023053
      8          6           0       -1.777953    1.248836    1.415946
      9          1           0       -0.785294    1.186917    1.868330
     10          1           0       -2.477006    0.655878    2.019272
     11          1           0       -2.092764    2.295585    1.407042
     12          6           0       -3.041339    0.793089   -0.626676
     13          1           0       -2.937582    0.507231   -1.672587
     14          1           0       -3.420140    1.815967   -0.566579
     15          1           0       -3.752990    0.118932   -0.130827
     16          6           0        1.167120    1.150017   -0.411171
     17          1           0        0.411270    1.873072   -0.700029
     18          6           0        2.527088    1.480349   -0.401356
     19          1           0        2.836869    2.482788   -0.684042
     20          6           0        3.485844    0.522049   -0.051048
     21          1           0        4.540505    0.783088   -0.053626
     22          8           0       -1.157616   -1.559942    1.004626
     23          8           0       -1.178835   -1.155301   -1.483938
 ---------------------------------------------------------------------

 SCF Done:  E(RHF) =  -911.604812985     A.U. after    2 cycles

 The electronic state is 1-A.
 Alpha  occ. eigenvalues --  -94.20561 -20.53282 -20.53161 -15.54140 -11.28528
 Alpha  occ. eigenvalues --  -11.28069 -11.27640 -11.27435 -11.27325 -11.27092
 Alpha  occ. eigenvalues --  -11.26632 -11.26531  -8.45546  -6.43638  -6.43481
 Alpha  occ. eigenvalues --   -6.43392  -1.55181  -1.42877  -1.26115  -1.18017
 Alpha  occ. eigenvalues --   -1.06616  -1.03999  -0.98747  -0.97438  -0.87997
 Alpha  occ. eigenvalues --   -0.85893  -0.80618  -0.75466  -0.71885  -0.69419
 Alpha  occ. eigenvalues --   -0.68109  -0.66371  -0.65945  -0.63619  -0.62429
 Alpha  occ. eigenvalues --   -0.62067  -0.58404  -0.57890  -0.55638  -0.55367
 Alpha  occ. eigenvalues --   -0.53720  -0.53083  -0.50910  -0.48517  -0.46688
 Alpha  occ. eigenvalues --   -0.45380  -0.43598  -0.37018  -0.36591
 Alpha virt. eigenvalues --    0.02785   0.03156   0.03759   0.04516   0.04779
 Alpha virt. eigenvalues --    0.05358   0.05987   0.06613   0.07147   0.07562
 Alpha virt. eigenvalues --    0.07612   0.08328   0.08852   0.10678   0.12385

 Mulliken charges:
               1
     1  C    0.632549
     2  H   -0.214831
     3  C   -0.712005
     4  H   -0.272991
     5  C    0.957946
     6  S    3.787691
     7  N   -0.270381
     8  C   -0.499633
     9  H    0.059460
    10  H    0.244820
    11  H    0.127552
    12  C   -0.389192
    13  H    0.146233
    14  H    0.162432
    15  H    0.217619
    16  C   -0.284184
    17  H   -0.266751
    18  C    0.359800
    19  H   -0.242778
    20  C    0.005424
    21  H   -0.202563
    22  O   -1.708863
    23  O   -1.637351
 Sum of Mulliken charges =   0.00000

 Dipole moment (field-independent basis, Debye):
    X=              1.7528    Y=              4.0045    Z=              1.1769  Tot=              4.5270

 Test job not archived.
 1\1\GINC-SE120\SP\RHF\Aug-CC-pVDZ\C8H11N1O2S1\OHZDE\09-Apr-2025\0\\#t
 hf aug-cc-pvdz iop(5/13=1,5/36=2,99/5=2) pseudo=read geom=check guess=
 (read,tcheck) scf=(maxcycle=1)\\title\\0,1\C,0,4.0677,-1.8747,-1.2041\
 H,0,4.9849,-1.4257,-1.5752\C,0,2.8774,-1.1424,-1.2384\H,0,2.8497,-0.13
 69,-1.648\C,0,1.7014,-1.7373,-0.7634\S,0,0.2563,-0.6975,-0.6956\N,0,-0
 .9635,-1.8559,-0.6518\C,0,-1.2297,-2.4406,-1.973\H,0,-0.2895,-2.7362,-
 2.4447\H,0,-1.7505,-1.7385,-2.6364\H,0,-1.8422,-3.3339,-1.8256\C,0,-2.
 1884,-1.387,0.0137\H,0,-1.9484,-1.0256,1.0128\H,0,-2.8584,-2.2464,0.09

 Normal termination of Gaussian 16 at Wed Apr  9 02:28:30 2025.
