 Gaussian 16, Revision C.01,

 ----------------------------------------------------------------------
 #t hf aug-cc-pvdz symm=none int=(grid=ultrafine) guess=(read,tcheck) s
 table=(opt,rrhf)
 ----------------------------------------------------------------------
 -----
 title
 -----
 Symbolic Z-matrix:
 Charge =  0 Multiplicity = 1

 SCF Done:  E(RHF) =  -780.897781432     A.U. after   17 cycles

 1\1\GINC-SE080\Stability\RHF\Aug-CC-pVDZ\C10H8S1\OHZDE\09-Apr-2025\0\\
 #t hf aug-cc-pvdz symm=none int=(grid=ultrafine) guess=(read,tcheck) s
 table=(opt,rrhf)\\title\\0,1\C,0,21.7692,-10.9442,-0.0045\H,0,22.2917,
 -11.8978,-0.0271\C,0,20.3716,-10.9317,0.0058\H,0,19.8265,-11.8718,-0.0
 111\C,0,19.6772,-9.7162,-0.0127\H,0,18.5907,-9.705,-0.0158\C,0,20.3965
 ,-8.5146,-0.0037\H,0,19.8696,-7.564,-0.0155\C,0,21.7938,-8.5267,0.0051
 \H,0,22.3364,-7.5859,0.0396\C,0,22.5048,-9.7429,0.035\C,0,24.8296,-8.6
 893,-0.3016\H,0,24.4778,-7.7203,-0.6384\C,0,26.1979,-9.0227,-0.1496\H,

 Normal termination of Gaussian 16 at Wed Apr  9 02:28:21 2025.
 Gaussian 16:  ES64L-G16RevC.01  3-Jul-2019

 ----------------------------------------------------------------------
 #t hf aug-cc-pvdz iop(5/13=1,5/36=2,99/5=2) pseudo=read geom=check gue
 ss=(read,tcheck) scf=(maxcycle=1)
 ----------------------------------------------------------------------
 -----
 title
 -----
 Structure from the checkpoint file:  "DCONF_51_-10_mol1.chk"
 Charge =  0 Multiplicity = 1

                         Standard orientation:
 ---------------------------------------------------------------------
 Center     Atomic      Atomic             Coordinates (Angstroms)
 Number     Number       Type             X           Y           Z
 ---------------------------------------------------------------------
      1          6           0        1.338499   -1.129515    0.204801
      2          1           0        0.754064   -2.030050    0.378991
      3          6           0        2.732875   -1.217563    0.165954
      4          1           0        3.213907   -2.181140    0.312025
      5          6           0        3.507537   -0.064755   -0.009849
      6          1           0        4.591958   -0.130108   -0.029287
      7          6           0        2.870558    1.170301   -0.183660
      8          1           0        3.460193    2.072623   -0.323477
      9          6           0        1.475945    1.255914   -0.163762
     10          1           0        0.996935    2.217416   -0.327386
     11          6           0        0.684345    0.101913    0.001192
     12          6           0       -1.553574    1.355342    0.221877
     13          1           0       -1.127764    2.335992    0.404007
     14          6           0       -2.945047    1.100854    0.147423
     15          1           0       -3.714308    1.857552    0.255835
     16          6           0       -3.223168   -0.236909   -0.068427
     17          1           0       -4.190245   -0.716269   -0.150093
     18         16           0       -1.790707   -1.167999   -0.184510
     19          6           0       -0.776877    0.208078    0.089706
 ---------------------------------------------------------------------

 SCF Done:  E(RHF) =  -781.347337033     A.U. after    2 cycles

 The electronic state is 1-A.
 Alpha  occ. eigenvalues --  -93.97934 -11.27961 -11.27291 -11.26471 -11.25069
 Alpha  occ. eigenvalues --  -11.25060 -11.25040 -11.24961 -11.24931 -11.24857
 Alpha  occ. eigenvalues --  -11.24820  -8.26158  -6.23929  -6.23831  -6.23627
 Alpha  occ. eigenvalues --   -1.19720  -1.15365  -1.04992  -1.02338  -1.00611
 Alpha  occ. eigenvalues --   -0.96622  -0.85035  -0.84195  -0.77049  -0.75740
 Alpha  occ. eigenvalues --   -0.72552  -0.68544  -0.64588  -0.64031  -0.60359
 Alpha  occ. eigenvalues --   -0.59100  -0.56855  -0.55218  -0.54224  -0.51975
 Alpha  occ. eigenvalues --   -0.51092  -0.50591  -0.47955  -0.38552  -0.35859
 Alpha  occ. eigenvalues --   -0.34908  -0.29545
 Alpha virt. eigenvalues --    0.03303   0.03386   0.03694   0.04364   0.04723
 Alpha virt. eigenvalues --    0.05518   0.06502   0.06901   0.07485   0.09129
 Alpha virt. eigenvalues --    0.09899   0.10618   0.11111   0.11610   0.12250

 Mulliken charges:
               1
     1  C    0.024369
     2  H   -0.236327
     3  C    0.004139
     4  H   -0.225662
     5  C    0.017138
     6  H   -0.215799
     7  C   -0.037391
     8  H   -0.232204
     9  C    0.182396
    10  H   -0.276702
    11  C    1.511713
    12  C    0.365425
    13  H   -0.263058
    14  C    0.082486
    15  H   -0.153660
    16  C   -0.762786
    17  H   -0.182883
    18  S    0.629245
    19  C   -0.230440
 Sum of Mulliken charges =   0.00000

 Dipole moment (field-independent basis, Debye):
    X=              0.0357    Y=              0.7000    Z=              0.1046  Tot=              0.7086

 Test job not archived.
 1\1\GINC-SE080\SP\RHF\Aug-CC-pVDZ\C10H8S1\OHZDE\09-Apr-2025\0\\#t hf a
 ug-cc-pvdz iop(5/13=1,5/36=2,99/5=2) pseudo=read geom=check guess=(rea
 d,tcheck) scf=(maxcycle=1)\\title\\0,1\C,0,21.7692,-10.9442,-0.0045\H,
 0,22.2917,-11.8978,-0.0271\C,0,20.3716,-10.9317,0.0058\H,0,19.8265,-11
 .8718,-0.0111\C,0,19.6772,-9.7162,-0.0127\H,0,18.5907,-9.705,-0.0158\C
 ,0,20.3965,-8.5146,-0.0037\H,0,19.8696,-7.564,-0.0155\C,0,21.7938,-8.5
 267,0.0051\H,0,22.3364,-7.5859,0.0396\C,0,22.5048,-9.7429,0.035\C,0,24
 .8296,-8.6893,-0.3016\H,0,24.4778,-7.7203,-0.6384\C,0,26.1979,-9.0227,

 Normal termination of Gaussian 16 at Wed Apr  9 02:28:33 2025.
