 Gaussian 16, Revision C.01,

 ----------------------------------------------------------------------
 #t hf aug-cc-pvdz symm=none int=(grid=ultrafine) guess=(read,tcheck) s
 table=(opt,rrhf)
 ----------------------------------------------------------------------
 -----
 title
 -----
 Symbolic Z-matrix:
 Charge =  0 Multiplicity = 1

 SCF Done:  E(RHF) =  -796.900964074     A.U. after   16 cycles
 Normal termination of Gaussian 16 at Wed Apr  9 02:28:45 2025.
 Gaussian 16:  ES64L-G16RevC.01  3-Jul-2019

 ----------------------------------------------------------------------
 #t hf aug-cc-pvdz iop(5/13=1,5/36=2,99/5=2) pseudo=read geom=check gue
 ss=(read,tcheck) scf=(maxcycle=1)
 ----------------------------------------------------------------------
 -----
 title
 -----
 Structure from the checkpoint file:  "DCONF_55_-100_mol1.chk"
 Charge =  0 Multiplicity = 1

                         Standard orientation:
 ---------------------------------------------------------------------
 Center     Atomic      Atomic             Coordinates (Angstroms)
 Number     Number       Type             X           Y           Z
 ---------------------------------------------------------------------
      1          6           0       -1.399291    1.077663   -0.594518
      2          1           0       -0.862993    1.899913   -1.061408
      3          6           0       -2.795993    1.019630   -0.637637
      4          1           0       -3.353904    1.800510   -1.147635
      5          6           0       -3.474865   -0.038036   -0.018960
      6          1           0       -4.560043   -0.081456   -0.052785
      7          6           0       -2.753965   -1.038265    0.644936
      8          1           0       -3.279002   -1.853992    1.134906
      9          6           0       -1.356790   -0.982277    0.692308
     10          1           0       -0.790741   -1.746755    1.219272
     11          6           0       -0.674129    0.069791    0.061077
     12          7           0        1.453058    0.955165    0.970826
     13          6           0        2.804437    0.792820    0.816426
     14          1           0        3.484967    1.376233    1.426174
     15          6           0        3.193447   -0.134829   -0.129269
     16          1           0        4.196283   -0.421776   -0.416532
     17         16           0        1.809904   -0.826362   -0.859968
     18          6           0        0.796410    0.160664    0.142592
 ---------------------------------------------------------------------

 SCF Done:  E(RHF) =  -797.363121383     A.U. after    2 cycles

 The electronic state is 1-A.
 Alpha  occ. eigenvalues --  -93.99182 -15.51341 -11.32153 -11.27847 -11.27413
 Alpha  occ. eigenvalues --  -11.26473 -11.25683 -11.25585 -11.25488 -11.25348
 Alpha  occ. eigenvalues --  -11.25315  -8.27412  -6.25161  -6.25073  -6.24868
 Alpha  occ. eigenvalues --   -1.28646  -1.16332  -1.09511  -1.05964  -1.02426
 Alpha  occ. eigenvalues --   -0.98897  -0.86384  -0.84516  -0.81908  -0.77027
 Alpha  occ. eigenvalues --   -0.72383  -0.69496  -0.65579  -0.64742  -0.61523
 Alpha  occ. eigenvalues --   -0.60802  -0.59034  -0.57502  -0.52627  -0.52047
 Alpha  occ. eigenvalues --   -0.51493  -0.51292  -0.46621  -0.41296  -0.35882
 Alpha  occ. eigenvalues --   -0.35280  -0.34080
 Alpha virt. eigenvalues --    0.03363   0.03513   0.03757   0.04417   0.04852
 Alpha virt. eigenvalues --    0.05919   0.06773   0.07646   0.08252   0.09371
 Alpha virt. eigenvalues --    0.09753   0.10169   0.10621   0.11179   0.11707

 Mulliken charges:
               1
     1  C   -0.264268
     2  H   -0.244174
     3  C    0.123031
     4  H   -0.212418
     5  C    0.058103
     6  H   -0.210122
     7  C    0.133492
     8  H   -0.213319
     9  C   -0.191375
    10  H   -0.248412
    11  C    2.595591
    12  N    1.127489
    13  C   -0.155261
    14  H   -0.123901
    15  C    0.019512
    16  H   -0.139548
    17  S    0.440564
    18  C   -2.494985
 Sum of Mulliken charges =  -0.00000

 Dipole moment (field-independent basis, Debye):
    X=             -0.0309    Y=             -1.1471    Z=             -1.1808  Tot=              1.6466

 Test job not archived.
 1\1\GINC-SE462\SP\RHF\Aug-CC-pVDZ\C9H7N1S1\OHZDE\09-Apr-2025\0\\#t hf
 aug-cc-pvdz iop(5/13=1,5/36=2,99/5=2) pseudo=read geom=check guess=(re
 ad,tcheck) scf=(maxcycle=1)\\title\\0,1\C,0,21.8286,-21.1406,-0.0049\H
 ,0,22.3917,-20.2108,0.0044\C,0,20.4301,-21.129,0.0032\H,0,19.8975,-20.
 1817,0.0131\C,0,19.7173,-22.3349,0.006\H,0,18.6308,-22.3243,0.0129\C,0
 ,20.4061,-23.5541,0.002\H,0,19.8553,-24.4909,0.0151\C,0,21.8051,-23.56
 97,-0.0036\H,0,22.3472,-24.5123,0.0091\C,0,22.521,-22.362,-0.0202\N,0,
 24.7185,-22.151,1.1036\C,0,26.0542,-22.2436,0.8142\H,0,26.7827,-22.090

 Normal termination of Gaussian 16 at Wed Apr  9 02:28:56 2025.
