 Gaussian 16, Revision C.01,

 ----------------------------------------------------------------------
 #t hf aug-cc-pvdz symm=none int=(grid=ultrafine) guess=(read,tcheck) s
 table=(opt,rrhf)
 ----------------------------------------------------------------------
 -----
 title
 -----
 Symbolic Z-matrix:
 Charge =  0 Multiplicity = 1

 SCF Done:  E(RHF) =  -796.906012094     A.U. after   17 cycles
 Normal termination of Gaussian 16 at Wed Apr  9 02:30:05 2025.
 Gaussian 16:  ES64L-G16RevC.01  3-Jul-2019

 ----------------------------------------------------------------------
 #t hf aug-cc-pvdz iop(5/13=1,5/36=2,99/5=2) pseudo=read geom=check gue
 ss=(read,tcheck) scf=(maxcycle=1)
 ----------------------------------------------------------------------
 -----
 title
 -----
 Structure from the checkpoint file:  "DCONF_55_0_mol2.chk"
 Charge =  0 Multiplicity = 1

                         Standard orientation:
 ---------------------------------------------------------------------
 Center     Atomic      Atomic             Coordinates (Angstroms)
 Number     Number       Type             X           Y           Z
 ---------------------------------------------------------------------
      1          6           0        1.441918    1.262754   -0.099778
      2          1           0        0.931624    2.217352   -0.184703
      3          6           0        2.835752    1.182905   -0.134781
      4          1           0        3.421450    2.091254   -0.250925
      5          6           0        3.480494   -0.057876   -0.040659
      6          1           0        4.564779   -0.116404   -0.077858
      7          6           0        2.716902   -1.222204    0.105007
      8          1           0        3.207128   -2.188881    0.185632
      9          6           0        1.322404   -1.148389    0.162781
     10          1           0        0.743853   -2.059365    0.300471
     11          6           0        0.673127    0.094535    0.055622
     12          7           0       -1.440048    1.353487    0.170582
     13          6           0       -2.789772    1.158366    0.102002
     14          1           0       -3.459179    2.007325    0.180296
     15          6           0       -3.195802   -0.151239   -0.060054
     16          1           0       -4.202526   -0.540513   -0.131798
     17         16           0       -1.830493   -1.175995   -0.138355
     18          6           0       -0.791508    0.202939    0.076274
 ---------------------------------------------------------------------

 SCF Done:  E(RHF) =  -797.367988478     A.U. after    2 cycles

 The electronic state is 1-A.
 Alpha  occ. eigenvalues --  -93.99102 -15.51049 -11.32363 -11.27958 -11.27404
 Alpha  occ. eigenvalues --  -11.26571 -11.25861 -11.25555 -11.25382 -11.25250
 Alpha  occ. eigenvalues --  -11.25175  -8.27372  -6.25125  -6.25038  -6.24828
 Alpha  occ. eigenvalues --   -1.28713  -1.16351  -1.09621  -1.06148  -1.02399
 Alpha  occ. eigenvalues --   -0.98810  -0.86642  -0.85206  -0.81051  -0.76915
 Alpha  occ. eigenvalues --   -0.72824  -0.69135  -0.65607  -0.64820  -0.60968
 Alpha  occ. eigenvalues --   -0.60681  -0.59124  -0.58263  -0.52811  -0.51826
 Alpha  occ. eigenvalues --   -0.51710  -0.51451  -0.46545  -0.41607  -0.38871
 Alpha  occ. eigenvalues --   -0.35307  -0.31247
 Alpha virt. eigenvalues --    0.03322   0.03507   0.03773   0.04522   0.04765
 Alpha virt. eigenvalues --    0.04820   0.06637   0.07122   0.08881   0.09739
 Alpha virt. eigenvalues --    0.10313   0.10940   0.11106   0.11279   0.12161

 Mulliken charges:
               1
     1  C   -0.342397
     2  H   -0.310356
     3  C    0.302234
     4  H   -0.224505
     5  C   -0.059945
     6  H   -0.209402
     7  C    0.239214
     8  H   -0.228769
     9  C   -0.085904
    10  H   -0.197075
    11  C    2.765142
    12  N    1.425841
    13  C   -0.196741
    14  H   -0.165984
    15  C   -0.206912
    16  H   -0.156204
    17  S    0.728057
    18  C   -3.076294
 Sum of Mulliken charges =  -0.00000

 Dipole moment (field-independent basis, Debye):
    X=              0.1494    Y=             -1.4909    Z=             -0.2583  Tot=              1.5205

 Test job not archived.
 1\1\GINC-SE015\SP\RHF\Aug-CC-pVDZ\C9H7N1S1\OHZDE\09-Apr-2025\0\\#t hf
 aug-cc-pvdz iop(5/13=1,5/36=2,99/5=2) pseudo=read geom=check guess=(re
 ad,tcheck) scf=(maxcycle=1)\\title\\0,1\C,0,21.8321,-21.1444,0.0005\H,
 0,22.4016,-20.22,0.0052\C,0,20.4356,-21.1327,-0.0047\H,0,19.908,-20.18
 23,-0.0021\C,0,19.7134,-22.3337,0.006\H,0,18.627,-22.32,0.0115\C,0,20.
 4024,-23.5524,0.0063\H,0,19.852,-24.4896,0.0078\C,0,21.7998,-23.5725,-
 0.0105\H,0,22.3207,-24.5273,-0.0345\C,0,22.5263,-22.3683,-0.0083\N,0,2
 4.7202,-21.263,-0.178\C,0,26.0517,-21.5341,-0.0433\H,0,26.7775,-20.741

 Normal termination of Gaussian 16 at Wed Apr  9 02:30:16 2025.
