 Gaussian 16, Revision C.01,

 ----------------------------------------------------------------------
 #t hf aug-cc-pvdz symm=none int=(grid=ultrafine) guess=(read,tcheck) s
 table=(opt,rrhf)
 ----------------------------------------------------------------------
 -----
 title
 -----
 Symbolic Z-matrix:
 Charge =  0 Multiplicity = 1

 SCF Done:  E(RHF) =  -559.161063600     A.U. after   17 cycles

 1\1\GINC-SE341\Stability\RHF\Aug-CC-pVDZ\C12H9F1\OHZDE\09-Apr-2025\0\\
 #t hf aug-cc-pvdz symm=none int=(grid=ultrafine) guess=(read,tcheck) s
 table=(opt,rrhf)\\title\\0,1\C,0,12.8196,-33.7918,-1.1444\H,0,13.3493,
 -34.1771,-2.0106\C,0,11.4233,-33.7178,-1.1561\H,0,10.8749,-34.056,-2.0
 315\C,0,10.7322,-33.2001,-0.0534\H,0,9.6469,-33.1448,-0.0658\C,0,11.44
 67,-32.7579,1.0664\H,0,10.918,-32.3606,1.9292\C,0,12.8433,-32.8311,1.0
 809\H,0,13.3954,-32.5111,1.9617\C,0,13.5449,-33.3553,-0.0206\C,0,17.14
 4,-32.2319,0.468\H,0,17.6722,-31.3557,0.8328\C,0,15.7463,-32.2491,0.46

 Normal termination of Gaussian 16 at Wed Apr  9 02:30:15 2025.
 Gaussian 16:  ES64L-G16RevC.01  3-Jul-2019

 ----------------------------------------------------------------------
 #t hf aug-cc-pvdz iop(5/13=1,5/36=2,99/5=2) pseudo=read geom=check gue
 ss=(read,tcheck) scf=(maxcycle=1)
 ----------------------------------------------------------------------
 -----
 title
 -----
 Structure from the checkpoint file:  "DCONF_47_0_mol2.chk"
 Charge =  0 Multiplicity = 1

                         Standard orientation:
 ---------------------------------------------------------------------
 Center     Atomic      Atomic             Coordinates (Angstroms)
 Number     Number       Type             X           Y           Z
 ---------------------------------------------------------------------
      1          6           0       -1.515219    0.933769    0.613678
      2          1           0       -0.952535    1.736829    1.080392
      3          6           0       -2.913170    0.956750    0.635429
      4          1           0       -3.429290    1.785611    1.112980
      5          6           0       -3.647769   -0.086241    0.057403
      6          1           0       -4.734180   -0.064614    0.075591
      7          6           0       -2.975123   -1.154798   -0.547359
      8          1           0       -3.537440   -1.965362   -1.004067
      9          6           0       -1.576958   -1.180129   -0.570843
     10          1           0       -1.056190   -1.998037   -1.063642
     11          6           0       -0.831526   -0.133274    0.002530
     12          6           0        2.691138   -1.512728    0.379652
     13          1           0        3.163816   -2.457079    0.633770
     14          6           0        1.296891   -1.419733    0.342932
     15          1           0        0.687286   -2.288576    0.578903
     16          6           0        0.645390   -0.212733    0.021789
     17          6           0        1.466065    0.897283   -0.224329
     18          6           0        2.855542    0.834420   -0.193180
     19          1           0        3.428606    1.730853   -0.409690
     20          6           0        3.473237   -0.381118    0.119096
     21          1           0        4.557329   -0.441140    0.151054
     22          9           0        0.895734    2.079190   -0.552898
 ---------------------------------------------------------------------

 SCF Done:  E(RHF) =  -559.720548029     A.U. after    2 cycles

 The electronic state is 1-A.
 Alpha  occ. eigenvalues --  -26.47564 -11.33899 -11.26380 -11.26005 -11.25860
 Alpha  occ. eigenvalues --  -11.25771 -11.25582 -11.25229 -11.24842 -11.24778
 Alpha  occ. eigenvalues --  -11.24723 -11.24664 -11.24609  -1.60509  -1.17644
 Alpha  occ. eigenvalues --   -1.14718  -1.06332  -1.02413  -1.01606  -0.99217
 Alpha  occ. eigenvalues --   -0.87520  -0.85808  -0.82867  -0.81448  -0.74607
 Alpha  occ. eigenvalues --   -0.71714  -0.70231  -0.68257  -0.67311  -0.64888
 Alpha  occ. eigenvalues --   -0.63909  -0.62283  -0.60930  -0.60024  -0.59264
 Alpha  occ. eigenvalues --   -0.55103  -0.53124  -0.52557  -0.50651  -0.50349
 Alpha  occ. eigenvalues --   -0.49924  -0.38378  -0.35148  -0.34694  -0.31732
 Alpha virt. eigenvalues --    0.03193   0.03340   0.03719   0.04176   0.04485
 Alpha virt. eigenvalues --    0.05291   0.05938   0.06443   0.07349   0.07610
 Alpha virt. eigenvalues --    0.09592   0.10117   0.10202   0.11249   0.11608

 Mulliken charges:
               1
     1  C   -0.023232
     2  H   -0.307510
     3  C    0.059978
     4  H   -0.223138
     5  C    0.025702
     6  H   -0.212597
     7  C   -0.052951
     8  H   -0.221929
     9  C   -0.232316
    10  H   -0.290429
    11  C    1.612888
    12  C   -0.137943
    13  H   -0.222381
    14  C   -0.092411
    15  H   -0.260843
    16  C    0.838870
    17  C    1.143877
    18  C   -0.185089
    19  H   -0.202984
    20  C    0.252993
    21  H   -0.198773
    22  F   -1.069782
 Sum of Mulliken charges =   0.00000

 Dipole moment (field-independent basis, Debye):
    X=              0.4903    Y=             -1.2147    Z=              0.4296  Tot=              1.3785

 Test job not archived.
 1\1\GINC-SE341\SP\RHF\Aug-CC-pVDZ\C12H9F1\OHZDE\09-Apr-2025\0\\#t hf a
 ug-cc-pvdz iop(5/13=1,5/36=2,99/5=2) pseudo=read geom=check guess=(rea
 d,tcheck) scf=(maxcycle=1)\\title\\0,1\C,0,12.8196,-33.7918,-1.1444\H,
 0,13.3493,-34.1771,-2.0106\C,0,11.4233,-33.7178,-1.1561\H,0,10.8749,-3
 4.056,-2.0315\C,0,10.7322,-33.2001,-0.0534\H,0,9.6469,-33.1448,-0.0658
 \C,0,11.4467,-32.7579,1.0664\H,0,10.918,-32.3606,1.9292\C,0,12.8433,-3
 2.8311,1.0809\H,0,13.3954,-32.5111,1.9617\C,0,13.5449,-33.3553,-0.0206
 \C,0,17.144,-32.2319,0.468\H,0,17.6722,-31.3557,0.8328\C,0,15.7463,-32

 Normal termination of Gaussian 16 at Wed Apr  9 02:30:33 2025.
