 Gaussian 16, Revision C.01,

 ----------------------------------------------------------------------
 #t hf aug-cc-pvdz symm=none int=(grid=ultrafine) guess=(read,tcheck) s
 table=(opt,rrhf)
 ----------------------------------------------------------------------
 -----
 title
 -----
 Symbolic Z-matrix:
 Charge =  0 Multiplicity = 1

 SCF Done:  E(RHF) =  -758.167403540     A.U. after   15 cycles
 Normal termination of Gaussian 16 at Wed Apr  9 02:25:04 2025.
 Gaussian 16:  ES64L-G16RevC.01  3-Jul-2019

 ----------------------------------------------------------------------
 #t hf aug-cc-pvdz iop(5/13=1,5/36=2,99/5=2) pseudo=read geom=check gue
 ss=(read,tcheck) scf=(maxcycle=1)
 ----------------------------------------------------------------------
 -----
 title
 -----
 Structure from the checkpoint file:  "DCONF_38_-100_mol1.chk"
 Charge =  0 Multiplicity = 1

                         Standard orientation:
 ---------------------------------------------------------------------
 Center     Atomic      Atomic             Coordinates (Angstroms)
 Number     Number       Type             X           Y           Z
 ---------------------------------------------------------------------
      1          6           0       -2.157796    0.048674   -0.010230
      2          7           0       -1.054884    0.260212   -0.827497
      3          1           0       -1.262890    0.274721   -1.819514
      4          6           0        1.071273    1.385575   -0.151361
      5          1           0        0.684845    2.395329   -0.239107
      6          6           0        2.390737    1.041430    0.235527
      7          1           0        3.164190    1.758013    0.488418
      8          6           0        2.593836   -0.327260    0.258486
      9          1           0        3.498384   -0.860612    0.520946
     10         16           0        1.186823   -1.191162   -0.195600
     11          6           0        0.284901    0.274582   -0.406159
     12          8           0       -3.276902   -0.042178   -0.489109
     13          6           0       -1.864679   -0.047819    1.471191
     14          1           0       -1.188858    0.746889    1.795341
     15          1           0       -1.384331   -1.004945    1.695678
     16          1           0       -2.810729    0.014044    2.008455
 ---------------------------------------------------------------------

 SCF Done:  E(RHF) =  -758.591671505     A.U. after    2 cycles

 The electronic state is 1-A.
 Alpha  occ. eigenvalues --  -93.99319 -20.51543 -15.54167 -11.36779 -11.31854
 Alpha  occ. eigenvalues --  -11.28791 -11.26422 -11.26319 -11.24728  -8.27538
 Alpha  occ. eigenvalues --   -6.25295  -6.25205  -6.24997  -1.46007  -1.26628
 Alpha  occ. eigenvalues --   -1.18641  -1.02598  -1.01892  -0.99149  -0.85188
 Alpha  occ. eigenvalues --   -0.79673  -0.78815  -0.73528  -0.68568  -0.64846
 Alpha  occ. eigenvalues --   -0.63794  -0.59677  -0.58947  -0.57934  -0.57071
 Alpha  occ. eigenvalues --   -0.54567  -0.52939  -0.50205  -0.43190  -0.42846
 Alpha  occ. eigenvalues --   -0.37167  -0.34711
 Alpha virt. eigenvalues --    0.02998   0.03440   0.04067   0.04568   0.05530
 Alpha virt. eigenvalues --    0.05985   0.06565   0.08153   0.08499   0.09693
 Alpha virt. eigenvalues --    0.10966   0.11892   0.12337   0.12928   0.13180

 Mulliken charges:
               1
     1  C    0.853641
     2  N    0.996045
     3  H    0.199171
     4  C    0.353449
     5  H   -0.184322
     6  C    0.340134
     7  H   -0.103013
     8  C   -0.568026
     9  H   -0.128840
    10  S    0.806562
    11  C   -1.520189
    12  O   -1.289093
    13  C   -0.437898
    14  H    0.289753
    15  H    0.310448
    16  H    0.082175
 Sum of Mulliken charges =   0.00000

 Dipole moment (field-independent basis, Debye):
    X=              4.0191    Y=              0.8546    Z=              1.2554  Tot=              4.2965

 Test job not archived.
 1\1\GINC-SE403\SP\RHF\Aug-CC-pVDZ\C6H7N1O1S1\OHZDE\09-Apr-2025\0\\#t h
 f aug-cc-pvdz iop(5/13=1,5/36=2,99/5=2) pseudo=read geom=check guess=(
 read,tcheck) scf=(maxcycle=1)\\title\\0,1\C,0,28.752,-4.237,-1.0809\N,
 0,29.4395,-4.7231,0.0237\H,0,28.9909,-4.5376,0.9136\C,0,31.0802,-6.607
 8,0.0113\H,0,30.3328,-7.3939,0.003\C,0,32.4834,-6.8081,0.0151\H,0,32.9
 661,-7.779,0.0098\C,0,33.1865,-5.6162,0.0257\H,0,34.26,-5.4778,0.0253\
 S,0,32.144,-4.2578,0.038\C,0,30.7344,-5.2669,0.0072\O,0,27.6671,-3.693
 8,-0.9471\C,0,29.4346,-4.4385,-2.4163\H,0,29.8196,-5.4559,-2.5165\H,0,

 Normal termination of Gaussian 16 at Wed Apr  9 02:25:12 2025.
