 Gaussian 16, Revision C.01,

 ----------------------------------------------------------------------
 #t hf aug-cc-pvdz symm=none int=(grid=ultrafine) guess=(read,tcheck) s
 table=(opt,rrhf)
 ----------------------------------------------------------------------
 -----
 title
 -----
 Symbolic Z-matrix:
 Charge =  0 Multiplicity = 1

 SCF Done:  E(RHF) =  -774.174211382     A.U. after   16 cycles
 Normal termination of Gaussian 16 at Wed Apr  9 02:26:06 2025.
 Gaussian 16:  ES64L-G16RevC.01  3-Jul-2019

 ----------------------------------------------------------------------
 #t hf aug-cc-pvdz iop(5/13=1,5/36=2,99/5=2) pseudo=read geom=check gue
 ss=(read,tcheck) scf=(maxcycle=1)
 ----------------------------------------------------------------------
 -----
 title
 -----
 Structure from the checkpoint file:  "DCONF_42_-50_mol1.chk"
 Charge =  0 Multiplicity = 1

                         Standard orientation:
 ---------------------------------------------------------------------
 Center     Atomic      Atomic             Coordinates (Angstroms)
 Number     Number       Type             X           Y           Z
 ---------------------------------------------------------------------
      1          6           0       -2.163681   -0.068488   -0.002043
      2          7           0       -0.998471   -0.682877   -0.462005
      3          1           0       -1.156506   -1.451941   -1.102872
      4          7           0        0.640155    1.062843   -0.670269
      5          6           0        1.960329    1.272963   -0.374567
      6          1           0        2.410404    2.232394   -0.600842
      7          6           0        2.631552    0.201043    0.176865
      8          1           0        3.677472    0.129877    0.443714
      9         16           0        1.555439   -1.113522    0.380028
     10          6           0        0.290155   -0.162697   -0.334802
     11          8           0       -3.251914   -0.506731   -0.333441
     12          6           0       -1.971107    1.107994    0.924774
     13          1           0       -1.183842    0.912820    1.657661
     14          1           0       -2.918925    1.296614    1.428098
     15          1           0       -1.675588    1.985789    0.345869
 ---------------------------------------------------------------------

 SCF Done:  E(RHF) =  -774.610719869     A.U. after    2 cycles

 The electronic state is 1-A.
 Alpha  occ. eigenvalues --  -94.00835 -20.52378 -15.55199 -15.52848 -11.37550
 Alpha  occ. eigenvalues --  -11.36864 -11.29446 -11.28906 -11.24761  -8.29083
 Alpha  occ. eigenvalues --   -6.26827  -6.26741  -6.26525  -1.46865  -1.32300
 Alpha  occ. eigenvalues --   -1.24544  -1.11510  -1.03146  -1.01134  -0.87577
 Alpha  occ. eigenvalues --   -0.84817  -0.79700  -0.74482  -0.69259  -0.67465
 Alpha  occ. eigenvalues --   -0.64815  -0.61161  -0.60249  -0.59757  -0.57225
 Alpha  occ. eigenvalues --   -0.54644  -0.53339  -0.49136  -0.45678  -0.43466
 Alpha  occ. eigenvalues --   -0.42934  -0.35614
 Alpha virt. eigenvalues --    0.02965   0.03778   0.04320   0.04774   0.05853
 Alpha virt. eigenvalues --    0.06340   0.07284   0.07755   0.09001   0.09528
 Alpha virt. eigenvalues --    0.10311   0.11724   0.12396   0.12630   0.13070

 Mulliken charges:
               1
     1  C    0.829472
     2  N    0.929405
     3  H    0.232851
     4  N    0.935310
     5  C   -0.072899
     6  H   -0.129905
     7  C   -0.023730
     8  H   -0.135701
     9  S    0.735996
    10  C   -2.245484
    11  O   -1.321411
    12  C   -0.438190
    13  H    0.295605
    14  H    0.060953
    15  H    0.347729
 Sum of Mulliken charges =  -0.00000

 Dipole moment (field-independent basis, Debye):
    X=              4.2944    Y=             -0.0125    Z=              1.3634  Tot=              4.5057

 Test job not archived.
 1\1\GINC-SE338\SP\RHF\Aug-CC-pVDZ\C5H6N2O1S1\OHZDE\09-Apr-2025\0\\#t h
 f aug-cc-pvdz iop(5/13=1,5/36=2,99/5=2) pseudo=read geom=check guess=(
 read,tcheck) scf=(maxcycle=1)\\title\\0,1\C,0,28.2953,-17.1239,-0.9192
 \N,0,29.3164,-16.8446,-0.0103\H,0,29.0251,-16.2945,0.7895\N,0,30.7458,
 -18.7766,0.0036\C,0,32.0843,-19.0641,-0.011\H,0,32.4066,-20.0987,-0.01
 22\C,0,32.9336,-17.9769,0.0068\H,0,34.0147,-17.9708,0.0443\S,0,32.0215
 ,-16.5294,-0.0071\C,0,30.5628,-17.4715,0.0181\O,0,27.1807,-16.664,-0.7
 395\C,0,28.6789,-17.9751,-2.106\H,0,29.6468,-17.6743,-2.5155\H,0,27.89

 Normal termination of Gaussian 16 at Wed Apr  9 02:26:13 2025.
