 Gaussian 16, Revision C.01,

 ----------------------------------------------------------------------
 #t hf aug-cc-pvdz symm=none int=(grid=ultrafine) guess=(read,tcheck) s
 table=(opt,rrhf)
 ----------------------------------------------------------------------
 -----
 title
 -----
 Symbolic Z-matrix:
 Charge =  0 Multiplicity = 1

 SCF Done:  E(RHF) =  -681.467854092     A.U. after   13 cycles
 Normal termination of Gaussian 16 at Wed Apr  9 02:20:21 2025.
 Gaussian 16:  ES64L-G16RevC.01  3-Jul-2019

 ----------------------------------------------------------------------
 #t hf aug-cc-pvdz iop(5/13=1,5/36=2,99/5=2) pseudo=read geom=check gue
 ss=(read,tcheck) scf=(maxcycle=1)
 ----------------------------------------------------------------------
 -----
 title
 -----
 Structure from the checkpoint file:  "DCONF_16_150_mol1.chk"
 Charge =  0 Multiplicity = 1

                         Standard orientation:
 ---------------------------------------------------------------------
 Center     Atomic      Atomic             Coordinates (Angstroms)
 Number     Number       Type             X           Y           Z
 ---------------------------------------------------------------------
      1          6           0       -1.619328    1.078807    0.198695
      2          1           0       -1.314150    1.743790    1.005048
      3          1           0       -1.721424    1.616579   -0.743991
      4          1           0       -2.552913    0.569996    0.444124
      5         16           0       -0.391955   -0.190671    0.007793
      6          8           0       -0.115903   -0.781952    1.306880
      7          7           0        0.958722    0.733202   -0.393790
      8          1           0        0.948947    0.874105   -1.401888
      9          8           0       -0.796232   -1.018555   -1.121990
     10          6           0        2.247558    0.157346    0.035051
     11          1           0        2.259526    0.091178    1.122082
     12          1           0        2.437802   -0.835300   -0.386303
     13          1           0        3.030132    0.845102   -0.288814
 ---------------------------------------------------------------------

 SCF Done:  E(RHF) =  -681.828292031     A.U. after    2 cycles

 The electronic state is 1-A.
 Alpha  occ. eigenvalues --  -94.20955 -20.53771 -20.53667 -15.54555 -11.28750
 Alpha  occ. eigenvalues --  -11.28300  -8.45981  -6.44089  -6.43916  -6.43808
 Alpha  occ. eigenvalues --   -1.55736  -1.43608  -1.24704  -1.06696  -0.95870
 Alpha  occ. eigenvalues --   -0.85279  -0.74552  -0.69933  -0.69216  -0.65164
 Alpha  occ. eigenvalues --   -0.62651  -0.60642  -0.59880  -0.57314  -0.52843
 Alpha  occ. eigenvalues --   -0.49252  -0.47222  -0.46070  -0.44997
 Alpha virt. eigenvalues --    0.02950   0.04066   0.04804   0.05477   0.05894
 Alpha virt. eigenvalues --    0.06218   0.07049   0.10459   0.12296   0.12517
 Alpha virt. eigenvalues --    0.13529   0.14347   0.15137   0.15830   0.16524

 Mulliken charges:
               1
     1  C   -0.607004
     2  H    0.258153
     3  H    0.231990
     4  H    0.275121
     5  S    3.093445
     6  O   -1.558804
     7  N   -0.319044
     8  H    0.215594
     9  O   -1.524349
    10  C   -0.441698
    11  H    0.152462
    12  H    0.150967
    13  H    0.073168
 Sum of Mulliken charges =  -0.00000

 Dipole moment (field-independent basis, Debye):
    X=              0.7343    Y=              3.7276    Z=             -0.9023  Tot=              3.9049

 Test job not archived.
 1\1\GINC-SE333\SP\RHF\Aug-CC-pVDZ\C2H7N1O2S1\OHZDE\09-Apr-2025\0\\#t h
 f aug-cc-pvdz iop(5/13=1,5/36=2,99/5=2) pseudo=read geom=check guess=(
 read,tcheck) scf=(maxcycle=1)\\title\\0,1\C,0,-1.0993,-1.4018,-0.6324\
 H,0,-0.8773,-0.792,0.2419\H,0,-0.3949,-1.2091,-1.4417\H,0,-2.1214,-1.2
 346,-0.976\S,0,-0.998,-3.1153,-0.1762\O,0,-1.7909,-3.3341,1.0225\N,0,0
 .6169,-3.2228,0.2925\H,0,1.1693,-3.413,-0.5411\O,0,-1.2309,-3.8999,-1.
 3826\C,0,0.8893,-4.2314,1.3342\H,0,0.3468,-3.9592,2.2385\H,0,0.604,-5.
 246,1.0371\H,0,1.9606,-4.2008,1.5384\\Version=ES64L-G16RevC.01\State=1

 Normal termination of Gaussian 16 at Wed Apr  9 02:20:25 2025.
