 Gaussian 16, Revision C.01,

 ----------------------------------------------------------------------
 #t hf aug-cc-pvdz symm=none int=(grid=ultrafine) guess=(read,tcheck) s
 table=(opt,rrhf)
 ----------------------------------------------------------------------
 -----
 title
 -----
 Symbolic Z-matrix:
 Charge =  0 Multiplicity = 1

 SCF Done:  E(RHF) =  -703.117314911     A.U. after   16 cycles
 Normal termination of Gaussian 16 at Wed Apr  9 02:22:01 2025.
 Gaussian 16:  ES64L-G16RevC.01  3-Jul-2019

 ----------------------------------------------------------------------
 #t hf aug-cc-pvdz iop(5/13=1,5/36=2,99/5=2) pseudo=read geom=check gue
 ss=(read,tcheck) scf=(maxcycle=1)
 ----------------------------------------------------------------------
 -----
 title
 -----
 Structure from the checkpoint file:  "DCONF_24_-160_mol1.chk"
 Charge =  0 Multiplicity = 1

                         Standard orientation:
 ---------------------------------------------------------------------
 Center     Atomic      Atomic             Coordinates (Angstroms)
 Number     Number       Type             X           Y           Z
 ---------------------------------------------------------------------
      1          8           0       -2.222984    1.305833   -0.206676
      2          6           0       -2.316021   -1.052111    0.236947
      3          1           0       -1.961669   -1.840031   -0.435435
      4          1           0       -3.390997   -0.917280    0.112957
      5          1           0       -2.100903   -1.369556    1.262382
      6          6           0       -1.611478    0.258274   -0.043865
      7          6           0        0.682031    1.371737    0.099115
      8          1           0        0.263557    2.368961    0.178639
      9          6           0        2.056671    1.049945    0.130589
     10          1           0        2.857948    1.772817    0.236925
     11          6           0        2.280349   -0.313856    0.018413
     12          1           0        3.228646   -0.835823   -0.005321
     13         16           0        0.818971   -1.188487   -0.125524
     14          6           0       -0.127594    0.251017   -0.055925
 ---------------------------------------------------------------------

 SCF Done:  E(RHF) =  -703.484369815     A.U. after    2 cycles

 The electronic state is 1-A.
 Alpha  occ. eigenvalues --  -93.99710 -20.53483 -11.35272 -11.29429 -11.27913
 Alpha  occ. eigenvalues --  -11.26793 -11.26288 -11.25058  -8.27926  -6.25691
 Alpha  occ. eigenvalues --   -6.25597  -6.25395  -1.46297  -1.20712  -1.05156
 Alpha  occ. eigenvalues --   -1.02347  -0.99012  -0.85034  -0.78429  -0.73874
 Alpha  occ. eigenvalues --   -0.70329  -0.63283  -0.62990  -0.61652  -0.58701
 Alpha  occ. eigenvalues --   -0.56395  -0.55343  -0.54690  -0.50439  -0.49633
 Alpha  occ. eigenvalues --   -0.42120  -0.37049  -0.34440
 Alpha virt. eigenvalues --    0.03019   0.03812   0.04032   0.04661   0.05738
 Alpha virt. eigenvalues --    0.05992   0.06159   0.08843   0.09933   0.10739
 Alpha virt. eigenvalues --    0.11536   0.12705   0.12724   0.13177   0.13759

 Mulliken charges:
               1
     1  O   -1.434950
     2  C   -0.618039
     3  H    0.287644
     4  H    0.091032
     5  H    0.291861
     6  C    0.734935
     7  C   -0.071850
     8  H   -0.169346
     9  C    0.448072
    10  H   -0.110631
    11  C   -0.785751
    12  H   -0.153128
    13  S    0.888833
    14  C    0.601318
 Sum of Mulliken charges =   0.00000

 Dipole moment (field-independent basis, Debye):
    X=              2.4612    Y=             -1.8511    Z=              0.6608  Tot=              3.1498

 Test job not archived.
 1\1\GINC-SE345\SP\RHF\Aug-CC-pVDZ\C6H6O1S1\OHZDE\09-Apr-2025\0\\#t hf
 aug-cc-pvdz iop(5/13=1,5/36=2,99/5=2) pseudo=read geom=check guess=(re
 ad,tcheck) scf=(maxcycle=1)\\title\\0,1\O,0,21.0489,-6.0614,0.2076\C,0
 ,21.5638,-3.809,-0.4458\H,0,22.1007,-3.0766,0.1656\H,0,20.4888,-3.6555
 ,-0.3461\H,0,21.8625,-3.6541,-1.4876\C,0,21.9086,-5.2225,-0.0269\C,0,2
 3.8441,-6.8878,0.0054\H,0,23.1862,-7.7498,0.0006\C,0,25.2556,-6.9283,-
 0.0088\H,0,25.8473,-7.8369,-0.0241\C,0,25.8182,-5.661,-0.0104\H,0,26.8
 679,-5.3958,-0.0015\S,0,24.6265,-4.4359,0.007\C,0,23.3452,-5.5894,0.03

 Normal termination of Gaussian 16 at Wed Apr  9 02:22:06 2025.
