 Gaussian 16, Revision C.01,

 ----------------------------------------------------------------------
 #t hf aug-cc-pvdz symm=none int=(grid=ultrafine) guess=(read,tcheck) s
 table=(opt,rrhf)
 ----------------------------------------------------------------------
 -----
 title
 -----
 Symbolic Z-matrix:
 Charge =  0 Multiplicity = 1

 SCF Done:  E(RHF) =  -355.056436548     A.U. after   12 cycles
 Normal termination of Gaussian 16 at Wed Apr  9 02:32:29 2025.
 Gaussian 16:  ES64L-G16RevC.01  3-Jul-2019

 ----------------------------------------------------------------------
 #t hf aug-cc-pvdz iop(5/13=1,5/36=2,99/5=2) pseudo=read geom=check gue
 ss=(read,tcheck) scf=(maxcycle=1)
 ----------------------------------------------------------------------
 -----
 title
 -----
 Structure from the checkpoint file:  "DCONF_9_100_mol1.chk"
 Charge =  0 Multiplicity = 1

                         Standard orientation:
 ---------------------------------------------------------------------
 Center     Atomic      Atomic             Coordinates (Angstroms)
 Number     Number       Type             X           Y           Z
 ---------------------------------------------------------------------
      1          6           0        0.265881   -0.258622   -0.375452
      2          1           0        0.331137   -1.332986   -0.575505
      3          1           0        0.283507    0.261374   -1.338060
      4          6           0        1.445500    0.163833    0.502570
      5          1           0        1.411467   -0.401411    1.441598
      6          1           0        1.345159    1.223914    0.764541
      7          6           0        2.786429   -0.069282   -0.191728
      8          1           0        2.910382   -1.125744   -0.449568
      9          1           0        3.621677    0.223501    0.450637
     10          1           0        2.849602    0.512732   -1.116372
     11          6           0       -1.072025    0.007391    0.284159
     12          1           0       -1.025501    0.098601    1.372296
     13          9           0       -1.960509   -0.997388   -0.002876
     14          9           0       -1.626396    1.161843   -0.204554
 ---------------------------------------------------------------------

 SCF Done:  E(RHF) =  -355.411558357     A.U. after    2 cycles

 The electronic state is 1-A.
 Alpha  occ. eigenvalues --  -26.46691 -26.46564 -11.41077 -11.24879 -11.24839
 Alpha  occ. eigenvalues --  -11.23711  -1.63081  -1.56258  -1.09790  -0.99654
 Alpha  occ. eigenvalues --   -0.88868  -0.83497  -0.75260  -0.73441  -0.70931
 Alpha  occ. eigenvalues --   -0.65553  -0.62796  -0.60753  -0.59295  -0.59026
 Alpha  occ. eigenvalues --   -0.55224  -0.53574  -0.50376  -0.49531  -0.49343
 Alpha virt. eigenvalues --    0.03429   0.03648   0.04169   0.04907   0.06559
 Alpha virt. eigenvalues --    0.06951   0.07418   0.08081   0.10916   0.12607
 Alpha virt. eigenvalues --    0.13473   0.13837   0.14950   0.15677   0.16419

 Mulliken charges:
               1
     1  C   -0.497895
     2  H    0.153422
     3  H    0.140718
     4  C   -0.420063
     5  H    0.133101
     6  H    0.144154
     7  C   -0.376598
     8  H    0.182722
     9  H    0.123726
    10  H    0.176406
    11  C    1.785513
    12  H   -0.011911
    13  F   -0.771803
    14  F   -0.761494
 Sum of Mulliken charges =  -0.00000

 Dipole moment (field-independent basis, Debye):
    X=              2.4710    Y=             -0.2106    Z=              0.8387  Tot=              2.6180

 Test job not archived.
 1\1\GINC-SE159\SP\RHF\Aug-CC-pVDZ\C4H8F2\OHZDE\09-Apr-2025\0\\#t hf au
 g-cc-pvdz iop(5/13=1,5/36=2,99/5=2) pseudo=read geom=check guess=(read
 ,tcheck) scf=(maxcycle=1)\\title\\0,1\C,0,-0.1298,-0.0794,-0.0832\H,0,
 -0.1981,0.3958,-1.0671\H,0,-0.2332,0.7043,0.6734\C,0,1.2182,-0.7925,0.
 0404\H,0,1.2973,-1.5455,-0.7528\H,0,1.2616,-1.3295,0.9955\C,0,2.3908,0
 .1824,-0.0548\H,0,2.3716,0.7191,-1.0085\H,0,3.3483,-0.3405,0.0211\H,0,
 2.3443,0.9231,0.7495\C,0,-1.3025,-1.0292,0.0528\H,0,-1.0589,-2.0749,-0
 .1514\F,0,-2.3148,-0.6724,-0.8012\F,0,-1.8266,-0.9658,1.3178\\Version=

 Normal termination of Gaussian 16 at Wed Apr  9 02:32:35 2025.
