 Gaussian 16, Revision C.01,

 ----------------------------------------------------------------------
 #t hf aug-cc-pvdz symm=none int=(grid=ultrafine) guess=(read,tcheck) s
 table=(opt,rrhf)
 ----------------------------------------------------------------------
 -----
 title
 -----
 Symbolic Z-matrix:
 Charge =  0 Multiplicity = 1

 SCF Done:  E(RHF) =  -453.945051690     A.U. after   11 cycles
 Normal termination of Gaussian 16 at Wed Apr  9 02:20:25 2025.
 Gaussian 16:  ES64L-G16RevC.01  3-Jul-2019

 ----------------------------------------------------------------------
 #t hf aug-cc-pvdz iop(5/13=1,5/36=2,99/5=2) pseudo=read geom=check gue
 ss=(read,tcheck) scf=(maxcycle=1)
 ----------------------------------------------------------------------
 -----
 title
 -----
 Structure from the checkpoint file:  "DCONF_10_0_mol2.chk"
 Charge =  0 Multiplicity = 1

                         Standard orientation:
 ---------------------------------------------------------------------
 Center     Atomic      Atomic             Coordinates (Angstroms)
 Number     Number       Type             X           Y           Z
 ---------------------------------------------------------------------
      1          6           0       -0.451507    0.622780    0.000659
      2          1           0       -0.532488    1.262459   -0.883786
      3          1           0       -0.531785    1.261752    0.885645
      4          6           0       -1.547728   -0.442550    0.000409
      5          1           0       -1.430017   -1.080935    0.881502
      6          1           0       -1.429395   -1.081508   -0.880267
      7          6           0       -2.937725    0.193732   -0.000262
      8          1           0       -3.079144    0.822230    0.884534
      9          1           0       -3.079173    0.820196   -0.886547
     10          1           0       -3.718287   -0.571598    0.000500
     11          6           0        0.936718    0.045027   -0.000151
     12          9           0        1.162412   -0.724763    1.083931
     13          9           0        1.876556    1.011687   -0.000784
     14          9           0        1.161225   -0.725427   -1.083760
 ---------------------------------------------------------------------

 SCF Done:  E(RHF) =  -454.386134239     A.U. after    2 cycles

 The electronic state is 1-A.
 Alpha  occ. eigenvalues --  -26.49631 -26.49622 -26.49601 -11.50760 -11.26503
 Alpha  occ. eigenvalues --  -11.25040 -11.24025  -1.70487  -1.60331  -1.60298
 Alpha  occ. eigenvalues --   -1.10904  -1.00864  -0.90813  -0.84504  -0.80324
 Alpha  occ. eigenvalues --   -0.79678  -0.76006  -0.68944  -0.67907  -0.65290
 Alpha  occ. eigenvalues --   -0.62837  -0.62362  -0.61059  -0.60473  -0.57341
 Alpha  occ. eigenvalues --   -0.56628  -0.51543  -0.50943  -0.50198
 Alpha virt. eigenvalues --    0.03433   0.03981   0.04214   0.05169   0.07061
 Alpha virt. eigenvalues --    0.07237   0.07889   0.09059   0.10966   0.13230
 Alpha virt. eigenvalues --    0.13683   0.13981   0.15161   0.15638   0.16574

 Mulliken charges:
               1
     1  C   -0.794288
     2  H    0.166849
     3  H    0.166567
     4  C   -0.313649
     5  H    0.140741
     6  H    0.141114
     7  C   -0.404902
     8  H    0.175385
     9  H    0.175233
    10  H    0.119814
    11  C    2.804373
    12  F   -0.796499
    13  F   -0.784209
    14  F   -0.796528
 Sum of Mulliken charges =  -0.00000

 Dipole moment (field-independent basis, Debye):
    X=             -2.5005    Y=              0.6863    Z=             -0.0002  Tot=              2.5930

 Test job not archived.
 1\1\GINC-SE051\SP\RHF\Aug-CC-pVDZ\C4H7F3\OHZDE\09-Apr-2025\0\\#t hf au
 g-cc-pvdz iop(5/13=1,5/36=2,99/5=2) pseudo=read geom=check guess=(read
 ,tcheck) scf=(maxcycle=1)\\title\\0,1\C,0,-0.1442,0.0058,0.1879\H,0,0.
 1804,-0.6016,-0.6628\H,0,0.0479,-0.5658,1.1013\C,0,0.6018,1.3397,0.216
 6\H,0,0.2427,1.9353,1.0616\H,0,0.373,1.9005,-0.695\C,0,2.1112,1.1272,0
 .3328\H,0,2.3588,0.5831,1.2496\H,0,2.49,0.5497,-0.5163\H,0,2.6404,2.08
 35,0.3539\C,0,-1.6352,0.1627,0.0727\F,0,-2.1499,0.8574,1.1077\F,0,-2.2
 596,-1.032,0.0494\F,0,-1.9877,0.8151,-1.0535\\Version=ES64L-G16RevC.01

 Normal termination of Gaussian 16 at Wed Apr  9 02:20:29 2025.
