 Gaussian 16, Revision C.01,

 ----------------------------------------------------------------------
 #t hf aug-cc-pvdz symm=none int=(grid=ultrafine) guess=(read,tcheck) s
 table=(opt,rrhf)
 ----------------------------------------------------------------------
 -----
 title
 -----
 Symbolic Z-matrix:
 Charge =  0 Multiplicity = 1

 SCF Done:  E(RHF) =  -217.134794776     A.U. after   12 cycles
 Normal termination of Gaussian 16 at Wed Apr  9 02:31:12 2025.
 Gaussian 16:  ES64L-G16RevC.01  3-Jul-2019

 ----------------------------------------------------------------------
 #t hf aug-cc-pvdz iop(5/13=1,5/36=2,99/5=2) pseudo=read geom=check gue
 ss=(read,tcheck) scf=(maxcycle=1)
 ----------------------------------------------------------------------
 -----
 title
 -----
 Structure from the checkpoint file:  "DCONF_7_10_mol1.chk"
 Charge =  0 Multiplicity = 1

                         Standard orientation:
 ---------------------------------------------------------------------
 Center     Atomic      Atomic             Coordinates (Angstroms)
 Number     Number       Type             X           Y           Z
 ---------------------------------------------------------------------
      1          9           0        1.240285   -0.769063   -0.036638
      2          6           0        0.882983    0.580048    0.050455
      3          1           0        1.410442    1.101933   -0.751141
      4          1           0        1.262395    0.932139    1.013092
      5          6           0       -0.640856    0.767056   -0.048426
      6          1           0       -0.883046    1.262792   -0.993753
      7          1           0       -0.965071    1.439537    0.751642
      8          6           0       -1.425970   -0.545546    0.026947
      9          1           0       -1.154693   -1.212055   -0.793155
     10          1           0       -1.231881   -1.074122    0.963348
     11          1           0       -2.497655   -0.338000   -0.034146
 ---------------------------------------------------------------------

 SCF Done:  E(RHF) =  -217.360039282     A.U. after    2 cycles

 The electronic state is 1-A.
 Alpha  occ. eigenvalues --  -26.43577 -11.31520 -11.23979 -11.22574  -1.55634
 Alpha  occ. eigenvalues --   -1.05890  -0.93621  -0.81417  -0.69446  -0.68156
 Alpha  occ. eigenvalues --   -0.64275  -0.60556  -0.55397  -0.53432  -0.51527
 Alpha  occ. eigenvalues --   -0.48807  -0.47266
 Alpha virt. eigenvalues --    0.03657   0.04231   0.04253   0.04962   0.07068
 Alpha virt. eigenvalues --    0.07305   0.07989   0.11139   0.12517   0.14493
 Alpha virt. eigenvalues --    0.15073   0.15746   0.16465   0.16821   0.17296

 Mulliken charges:
               1
     1  F   -0.734615
     2  C    0.673337
     3  H    0.102696
     4  H    0.095793
     5  C   -0.646472
     6  H    0.140277
     7  H    0.162360
     8  C   -0.253566
     9  H    0.183191
    10  H    0.162932
    11  H    0.114068
 Sum of Mulliken charges =  -0.00000

 Dipole moment (field-independent basis, Debye):
    X=             -0.7110    Y=              1.7215    Z=              0.0915  Tot=              1.8647

 Test job not archived.
 1\1\GINC-SE029\SP\RHF\Aug-CC-pVDZ\C3H7F1\OHZDE\09-Apr-2025\0\\#t hf au
 g-cc-pvdz iop(5/13=1,5/36=2,99/5=2) pseudo=read geom=check guess=(read
 ,tcheck) scf=(maxcycle=1)\\title\\0,1\F,0,13.2427,-26.4697,0.005\C,0,1
 4.3984,-25.6825,0.0001\H,0,14.3471,-25.0354,0.8786\H,0,14.3401,-25.064
 8,-0.8997\C,0,15.6701,-26.5483,-0.0015\H,0,16.1822,-26.4392,0.9597\H,0
 ,16.3533,-26.1679,-0.767\C,0,15.3987,-28.0362,-0.2413\H,0,14.7594,-28.
 4489,0.5406\H,0,14.9013,-28.2023,-1.1999\H,0,16.343,-28.5872,-0.2447\\
 Version=ES64L-G16RevC.01\State=1-A\HF=-217.3600393\RMSD=8.042e-03\Dipo

 Normal termination of Gaussian 16 at Wed Apr  9 02:31:15 2025.
