 Gaussian 16, Revision C.01,

 ----------------------------------------------------------------------
 #t hf aug-cc-pvdz symm=none int=(grid=ultrafine) guess=(read,tcheck) s
 table=(opt,rrhf)
 ----------------------------------------------------------------------
 -----
 title
 -----
 Symbolic Z-matrix:
 Charge =  0 Multiplicity = 1

 SCF Done:  E(RHF) =  -796.895589883     A.U. after   16 cycles
 Normal termination of Gaussian 16 at Wed Apr  9 02:29:04 2025.
 Gaussian 16:  ES64L-G16RevC.01  3-Jul-2019

 ----------------------------------------------------------------------
 #t hf aug-cc-pvdz iop(5/13=1,5/36=2,99/5=2) pseudo=read geom=check gue
 ss=(read,tcheck) scf=(maxcycle=1)
 ----------------------------------------------------------------------
 -----
 title
 -----
 Structure from the checkpoint file:  "DCONF_52_-130_mol1.chk"
 Charge =  0 Multiplicity = 1

                         Standard orientation:
 ---------------------------------------------------------------------
 Center     Atomic      Atomic             Coordinates (Angstroms)
 Number     Number       Type             X           Y           Z
 ---------------------------------------------------------------------
      1          6           0       -1.495335    1.164743   -0.481576
      2          1           0       -1.015872    2.050905   -0.887771
      3          6           0       -2.885302    1.053579   -0.423637
      4          1           0       -3.519921    1.862895   -0.774571
      5          6           0       -3.439999   -0.129111    0.075003
      6          1           0       -4.515218   -0.268181    0.135113
      7          6           0       -2.574231   -1.144424    0.495893
      8          1           0       -2.970571   -2.081238    0.883073
      9          7           0       -1.234513   -1.046901    0.470852
     10          6           0       -0.706416    0.098637   -0.013474
     11          6           0        1.509431    1.280199    0.494306
     12          1           0        1.056779    2.187035    0.882868
     13          6           0        2.903179    1.028223    0.446991
     14          1           0        3.666749    1.722521    0.780145
     15          6           0        3.188059   -0.230635   -0.054444
     16          1           0        4.160052   -0.681463   -0.209632
     17         16           0        1.765366   -1.094631   -0.459743
     18          6           0        0.756239    0.220446    0.002722
 ---------------------------------------------------------------------

 SCF Done:  E(RHF) =  -797.356738602     A.U. after    2 cycles

 The electronic state is 1-A.
 Alpha  occ. eigenvalues --  -93.97745 -15.51111 -11.29962 -11.28777 -11.27357
 Alpha  occ. eigenvalues --  -11.27341 -11.27174 -11.25469 -11.25393 -11.25026
 Alpha  occ. eigenvalues --  -11.24782  -8.25926  -6.23689  -6.23591  -6.23387
 Alpha  occ. eigenvalues --   -1.26299  -1.18809  -1.09383  -1.06211  -1.00840
 Alpha  occ. eigenvalues --   -0.97882  -0.88139  -0.87452  -0.77953  -0.76606
 Alpha  occ. eigenvalues --   -0.72419  -0.69742  -0.68684  -0.64468  -0.60370
 Alpha  occ. eigenvalues --   -0.59228  -0.58170  -0.56776  -0.54335  -0.53330
 Alpha  occ. eigenvalues --   -0.52729  -0.48721  -0.45826  -0.40820  -0.37606
 Alpha  occ. eigenvalues --   -0.35348  -0.31277
 Alpha virt. eigenvalues --    0.03118   0.03536   0.03749   0.04270   0.04842
 Alpha virt. eigenvalues --    0.05450   0.06360   0.06629   0.08243   0.08929
 Alpha virt. eigenvalues --    0.09833   0.10629   0.11128   0.11478   0.11982

 Mulliken charges:
               1
     1  C    1.041315
     2  H   -0.225234
     3  C   -0.302424
     4  H   -0.159998
     5  C    0.814470
     6  H   -0.187446
     7  C   -0.810998
     8  H   -0.212826
     9  N    1.556512
    10  C   -2.393297
    11  C    0.371605
    12  H   -0.201062
    13  C    0.283765
    14  H   -0.120588
    15  C   -0.572830
    16  H   -0.147280
    17  S    0.534175
    18  C    0.732141
 Sum of Mulliken charges =  -0.00000

 Dipole moment (field-independent basis, Debye):
    X=             -1.2995    Y=              2.3592    Z=             -0.4432  Tot=              2.7297

 Test job not archived.
 1\1\GINC-SE128\SP\RHF\Aug-CC-pVDZ\C9H7N1S1\OHZDE\09-Apr-2025\0\\#t hf
 aug-cc-pvdz iop(5/13=1,5/36=2,99/5=2) pseudo=read geom=check guess=(re
 ad,tcheck) scf=(maxcycle=1)\\title\\0,1\C,0,30.1878,-8.3592,-0.0211\H,
 0,30.7628,-7.4382,-0.0571\C,0,28.7926,-8.3431,0.0086\H,0,28.2503,-7.40
 14,0.0093\C,0,28.1111,-9.564,0.0154\H,0,27.0262,-9.6061,0.0318\C,0,28.
 8612,-10.7449,-0.0043\H,0,28.3644,-11.7133,-0.0067\N,0,30.2042,-10.781
 2,-0.0083\C,0,30.8552,-9.5972,-0.016\C,0,33.1625,-8.9362,0.8803\H,0,32
 .7913,-8.2109,1.5975\C,0,34.5254,-9.2894,0.719\H,0,35.3446,-8.8601,1.2

 Normal termination of Gaussian 16 at Wed Apr  9 02:29:15 2025.
