 Gaussian 16, Revision C.01,

 ----------------------------------------------------------------------
 #t hf aug-cc-pvdz symm=none int=(grid=ultrafine) guess=(read,tcheck) s
 table=(opt,rrhf)
 ----------------------------------------------------------------------
 -----
 title
 -----
 Symbolic Z-matrix:
 Charge =  0 Multiplicity = 1

 SCF Done:  E(RHF) =  -1153.54745534     A.U. after   15 cycles
 Normal termination of Gaussian 16 at Wed Apr  9 02:23:59 2025.
 Gaussian 16:  ES64L-G16RevC.01  3-Jul-2019

 ----------------------------------------------------------------------
 #t hf aug-cc-pvdz iop(5/13=1,5/36=2,99/5=2) pseudo=read geom=check gue
 ss=(read,tcheck) scf=(maxcycle=1)
 ----------------------------------------------------------------------
 -----
 title
 -----
 Structure from the checkpoint file:  "DCONF_29_110_mol1.chk"
 Charge =  0 Multiplicity = 1

                         Standard orientation:
 ---------------------------------------------------------------------
 Center     Atomic      Atomic             Coordinates (Angstroms)
 Number     Number       Type             X           Y           Z
 ---------------------------------------------------------------------
      1          6           0       -2.742562   -0.160921    0.057593
      2          1           0       -3.745029   -0.568271    0.068589
      3          6           0       -2.351808    1.166285    0.102220
      4          1           0       -3.030567    2.009475    0.152936
      5          7           0       -1.005905    1.386533    0.067705
      6          6           0       -0.374092    0.230663    0.013045
      7         16           0       -1.371983   -1.174255   -0.055076
      8         16           0        1.403725    0.098119   -0.168323
      9          6           0        1.913319   -0.509369    1.428161
     10          1           0        1.639590    0.224087    2.188110
     11          1           0        2.998782   -0.619392    1.376423
     12          1           0        1.441568   -1.475869    1.607902
     13          8           0        1.948029    1.428223   -0.360177
     14          8           0        1.621968   -0.980416   -1.127276
 ---------------------------------------------------------------------

 SCF Done:  E(RHF) =  -1154.02650442     A.U. after    2 cycles

 The electronic state is 1-A.
 Alpha  occ. eigenvalues --  -94.20874 -94.02644 -20.54475 -20.54411 -15.55398
 Alpha  occ. eigenvalues --  -11.35251 -11.30872 -11.30478 -11.29672  -8.46095
 Alpha  occ. eigenvalues --   -8.30827  -6.44207  -6.44013  -6.43941  -6.28567
 Alpha  occ. eigenvalues --   -6.28484  -6.28274  -1.55924  -1.44181  -1.32166
 Alpha  occ. eigenvalues --   -1.13053  -1.09577  -1.03942  -0.91732  -0.85141
 Alpha  occ. eigenvalues --   -0.78517  -0.74820  -0.68710  -0.67783  -0.67108
 Alpha  occ. eigenvalues --   -0.63136  -0.62252  -0.61145  -0.60064  -0.54965
 Alpha  occ. eigenvalues --   -0.52045  -0.49834  -0.49441  -0.46802  -0.45107
 Alpha  occ. eigenvalues --   -0.44010  -0.37797
 Alpha virt. eigenvalues --    0.02584   0.03392   0.04017   0.04081   0.05280
 Alpha virt. eigenvalues --    0.05476   0.07757   0.09548   0.10082   0.10361
 Alpha virt. eigenvalues --    0.10905   0.11410   0.12407   0.12757   0.13139

 Mulliken charges:
               1
     1  C   -0.130353
     2  H   -0.121267
     3  C   -0.075108
     4  H   -0.093147
     5  N    0.939455
     6  C   -1.859231
     7  S    0.642087
     8  S    3.803775
     9  C   -0.733776
    10  H    0.245475
    11  H    0.234318
    12  H    0.249099
    13  O   -1.558937
    14  O   -1.542392
 Sum of Mulliken charges =  -0.00000

 Dipole moment (field-independent basis, Debye):
    X=             -3.7694    Y=             -2.7630    Z=              3.8686  Tot=              6.0670

 Test job not archived.
 1\1\GINC-SE041\SP\RHF\Aug-CC-pVDZ\C4H5N1O2S2\OHZDE\09-Apr-2025\0\\#t h
 f aug-cc-pvdz iop(5/13=1,5/36=2,99/5=2) pseudo=read geom=check guess=(
 read,tcheck) scf=(maxcycle=1)\\title\\0,1\C,0,2.0229,-24.6256,-0.8863\
 H,0,0.9693,-24.6334,-1.133\C,0,2.8137,-25.6759,-0.4531\H,0,2.4636,-26.
 689,-0.294\N,0,4.1207,-25.3693,-0.2104\C,0,4.3276,-24.094,-0.4731\S,0,
 2.9458,-23.1907,-0.972\S,0,5.8913,-23.2753,-0.1638\C,0,6.5079,-22.9798
 ,-1.81\H,0,6.6476,-23.9387,-2.3114\H,0,7.4659,-22.47,-1.6861\H,0,5.803
 8,-22.341,-2.344\O,0,6.775,-24.2079,0.5082\O,0,5.549,-21.9757,0.4057\\

 Normal termination of Gaussian 16 at Wed Apr  9 02:24:07 2025.
