 Gaussian 16, Revision C.01,

 ----------------------------------------------------------------------
 #t hf aug-cc-pvdz symm=none int=(grid=ultrafine) guess=(read,tcheck) s
 table=(opt,rrhf)
 ----------------------------------------------------------------------
 -----
 title
 -----
 Symbolic Z-matrix:
 Charge =  0 Multiplicity = 1

 SCF Done:  E(RHF) =  -719.117758819     A.U. after   16 cycles
 Normal termination of Gaussian 16 at Wed Apr  9 02:22:40 2025.
 Gaussian 16:  ES64L-G16RevC.01  3-Jul-2019

 ----------------------------------------------------------------------
 #t hf aug-cc-pvdz iop(5/13=1,5/36=2,99/5=2) pseudo=read geom=check gue
 ss=(read,tcheck) scf=(maxcycle=1)
 ----------------------------------------------------------------------
 -----
 title
 -----
 Structure from the checkpoint file:  "DCONF_28_-40_mol1.chk"
 Charge =  0 Multiplicity = 1

                         Standard orientation:
 ---------------------------------------------------------------------
 Center     Atomic      Atomic             Coordinates (Angstroms)
 Number     Number       Type             X           Y           Z
 ---------------------------------------------------------------------
      1          8           0       -1.964315   -1.232172   -0.505342
      2          6           0       -2.504947    0.942811    0.388042
      3          1           0       -2.210302    1.913629   -0.017451
      4          1           0       -3.534868    0.700630    0.123105
      5          1           0       -2.404622    0.999139    1.477265
      6          6           0       -1.582385   -0.140145   -0.108720
      7          7           0        0.410418    1.337794   -0.234453
      8          6           0        1.769897    1.253390   -0.212103
      9          1           0        2.367630    2.140670   -0.386521
     10          6           0        2.283265   -0.008470    0.037473
     11          1           0        3.320916   -0.301465    0.128177
     12         16           0        1.015548   -1.133025    0.228834
     13          6           0       -0.123484    0.147183    0.011639
 ---------------------------------------------------------------------

 SCF Done:  E(RHF) =  -719.496909803     A.U. after    2 cycles

 The electronic state is 1-A.
 Alpha  occ. eigenvalues --  -94.00794 -20.55367 -15.53758 -11.36379 -11.32762
 Alpha  occ. eigenvalues --  -11.29373 -11.29202 -11.25124  -8.28994  -6.26729
 Alpha  occ. eigenvalues --   -6.26644  -6.26444  -1.47973  -1.30369  -1.11330
 Alpha  occ. eigenvalues --   -1.06329  -1.00922  -0.87509  -0.83182  -0.74965
 Alpha  occ. eigenvalues --   -0.71375  -0.65770  -0.64229  -0.62972  -0.59816
 Alpha  occ. eigenvalues --   -0.58847  -0.56062  -0.53527  -0.50971  -0.49494
 Alpha  occ. eigenvalues --   -0.43538  -0.42388  -0.35884
 Alpha virt. eigenvalues --    0.03053   0.03946   0.04185   0.04421   0.05459
 Alpha virt. eigenvalues --    0.06248   0.07471   0.09366   0.10168   0.10665
 Alpha virt. eigenvalues --    0.11142   0.12300   0.12761   0.12818   0.13700

 Mulliken charges:
               1
     1  O   -1.344176
     2  C   -0.456928
     3  H    0.298022
     4  H    0.136456
     5  H    0.303211
     6  C    1.438197
     7  N    0.966559
     8  C   -0.155580
     9  H   -0.097362
    10  C   -0.106742
    11  H   -0.130716
    12  S    0.633445
    13  C   -1.484386
 Sum of Mulliken charges =  -0.00000

 Dipole moment (field-independent basis, Debye):
    X=              2.1423    Y=              1.0028    Z=              1.3504  Tot=              2.7237

 Test job not archived.
 1\1\GINC-SE149\SP\RHF\Aug-CC-pVDZ\C5H5N1O1S1\OHZDE\09-Apr-2025\0\\#t h
 f aug-cc-pvdz iop(5/13=1,5/36=2,99/5=2) pseudo=read geom=check guess=(
 read,tcheck) scf=(maxcycle=1)\\title\\0,1\O,0,21.7565,-16.7151,0.625\C
 ,0,21.1066,-18.6531,-0.6567\H,0,21.3129,-19.6995,-0.4196\H,0,20.085,-1
 8.3816,-0.388\H,0,21.2536,-18.5268,-1.7347\C,0,22.0788,-17.7478,0.0546
 \N,0,23.9546,-19.375,-0.0159\C,0,25.3162,-19.3936,0.0229\H,0,25.8412,-
 20.3413,0.0577\C,0,25.9282,-18.1512,0.0179\H,0,26.987,-17.9282,0.0155\
 S,0,24.7531,-16.9157,-0.0142\C,0,23.5179,-18.122,-0.0654\\Version=ES64

 Normal termination of Gaussian 16 at Wed Apr  9 02:22:45 2025.
