 Gaussian 16, Revision C.01,

 ----------------------------------------------------------------------
 #t hf aug-cc-pvdz symm=none int=(grid=ultrafine) guess=(read,tcheck) s
 table=(opt,rrhf)
 ----------------------------------------------------------------------
 -----
 title
 -----
 Symbolic Z-matrix:
 Charge =  0 Multiplicity = 1

 SCF Done:  E(RHF) =  -911.020952599     A.U. after   15 cycles
 Normal termination of Gaussian 16 at Wed Apr  9 02:27:23 2025.
 Gaussian 16:  ES64L-G16RevC.01  3-Jul-2019

 ----------------------------------------------------------------------
 #t hf aug-cc-pvdz iop(5/13=1,5/36=2,99/5=2) pseudo=read geom=check gue
 ss=(read,tcheck) scf=(maxcycle=1)
 ----------------------------------------------------------------------
 -----
 title
 -----
 Structure from the checkpoint file:  "DCONF_30_0_mol2.chk"
 Charge =  0 Multiplicity = 1

                         Standard orientation:
 ---------------------------------------------------------------------
 Center     Atomic      Atomic             Coordinates (Angstroms)
 Number     Number       Type             X           Y           Z
 ---------------------------------------------------------------------
      1          6           0        2.661686   -1.197191    0.235712
      2          1           0        3.195725   -2.128952    0.401429
      3          6           0        1.313934   -1.229095   -0.139077
      4          1           0        0.791396   -2.169880   -0.285599
      5          6           0        0.643278   -0.019676   -0.361115
      6         16           0       -1.093482   -0.045665   -0.757502
      7          7           0       -1.876222    0.037140    0.720537
      8          6           0       -1.700387   -1.132725    1.585527
      9          1           0       -1.855541   -2.043449    1.006784
     10          1           0       -0.704770   -1.151963    2.055099
     11          1           0       -2.459561   -1.079977    2.370010
     12          6           0       -1.716248    1.300683    1.444842
     13          1           0       -1.876204    2.136667    0.763951
     14          1           0       -2.480013    1.331671    2.226124
     15          1           0       -0.724035    1.383861    1.914497
     16          6           0        1.297059    1.213041   -0.232421
     17          1           0        0.763158    2.132844   -0.452686
     18          6           0        2.644672    1.228561    0.143244
     19          1           0        3.165621    2.177464    0.237380
     20          6           0        3.325398    0.027657    0.381274
     21          1           0        4.373136    0.045908    0.668603
     22          8           0       -1.401285    1.188653   -1.458369
     23          8           0       -1.395716   -1.352537   -1.313784
 ---------------------------------------------------------------------

 SCF Done:  E(RHF) =  -911.609493132     A.U. after    2 cycles

 The electronic state is 1-A.
 Alpha  occ. eigenvalues --  -94.20783 -20.53444 -20.53430 -15.53982 -11.28610
 Alpha  occ. eigenvalues --  -11.27893 -11.27887 -11.27741 -11.27720 -11.27479
 Alpha  occ. eigenvalues --  -11.26937 -11.26920  -8.45704  -6.43841  -6.43633
 Alpha  occ. eigenvalues --   -6.43543  -1.55650  -1.43645  -1.26061  -1.18259
 Alpha  occ. eigenvalues --   -1.06518  -1.04307  -0.98797  -0.97650  -0.88678
 Alpha  occ. eigenvalues --   -0.86332  -0.80856  -0.75243  -0.72632  -0.69546
 Alpha  occ. eigenvalues --   -0.68437  -0.66587  -0.66099  -0.64581  -0.62722
 Alpha  occ. eigenvalues --   -0.62134  -0.58615  -0.57736  -0.55743  -0.55395
 Alpha  occ. eigenvalues --   -0.53825  -0.53312  -0.50331  -0.48986  -0.46713
 Alpha  occ. eigenvalues --   -0.46050  -0.43789  -0.37667  -0.36966
 Alpha virt. eigenvalues --    0.02634   0.03104   0.03405   0.04296   0.04866
 Alpha virt. eigenvalues --    0.05311   0.06397   0.06424   0.06943   0.07496
 Alpha virt. eigenvalues --    0.07669   0.08619   0.09684   0.09964   0.11613

 Mulliken charges:
               1
     1  C    0.405641
     2  H   -0.218411
     3  C   -0.380704
     4  H   -0.282883
     5  C    0.614264
     6  S    4.020622
     7  N   -0.029759
     8  C   -0.512076
     9  H    0.106868
    10  H    0.297225
    11  H    0.082304
    12  C   -0.511399
    13  H    0.106275
    14  H    0.078849
    15  H    0.300311
    16  C   -0.377951
    17  H   -0.283372
    18  C    0.407105
    19  H   -0.219530
    20  C    0.004072
    21  H   -0.198656
    22  O   -1.702359
    23  O   -1.706434
 Sum of Mulliken charges =   0.00000

 Dipole moment (field-independent basis, Debye):
    X=              3.7663    Y=              0.2809    Z=              4.8506  Tot=              6.1476

 Test job not archived.
 1\1\GINC-SE459\SP\RHF\Aug-CC-pVDZ\C8H11N1O2S1\OHZDE\09-Apr-2025\0\\#t
 hf aug-cc-pvdz iop(5/13=1,5/36=2,99/5=2) pseudo=read geom=check guess=
 (read,tcheck) scf=(maxcycle=1)\\title\\0,1\C,0,3.4972,-2.787,-1.96\H,0
 ,3.9524,-3.0537,-2.91\C,0,2.3517,-1.9836,-1.9427\H,0,1.9149,-1.6043,-2
 .8619\C,0,1.7844,-1.6384,-0.7095\S,0,0.2793,-0.6856,-0.6782\N,0,-0.951
 9,-1.8206,-0.6861\C,0,-1.0657,-2.6084,-1.9166\H,0,-1.0123,-1.9472,-2.7
 817\H,0,-0.2834,-3.38,-1.9856\H,0,-2.0433,-3.097,-1.9062\C,0,-1.0519,-
 2.6456,0.5206\H,0,-0.982,-2.0122,1.4049\H,0,-2.0326,-3.1281,0.5096\H,0

 Normal termination of Gaussian 16 at Wed Apr  9 02:27:42 2025.
