 Gaussian 16, Revision C.01,

 ----------------------------------------------------------------------
 #t hf aug-cc-pvdz symm=none int=(grid=ultrafine) guess=(read,tcheck) s
 table=(opt,rrhf)
 ----------------------------------------------------------------------
 -----
 title
 -----
 Symbolic Z-matrix:
 Charge =  0 Multiplicity = 1

 SCF Done:  E(RHF) =  -1153.55235026     A.U. after   16 cycles
 Normal termination of Gaussian 16 at Wed Apr  9 02:23:29 2025.
 Gaussian 16:  ES64L-G16RevC.01  3-Jul-2019

 ----------------------------------------------------------------------
 #t hf aug-cc-pvdz iop(5/13=1,5/36=2,99/5=2) pseudo=read geom=check gue
 ss=(read,tcheck) scf=(maxcycle=1)
 ----------------------------------------------------------------------
 -----
 title
 -----
 Structure from the checkpoint file:  "DCONF_29_0_mol2.chk"
 Charge =  0 Multiplicity = 1

                         Standard orientation:
 ---------------------------------------------------------------------
 Center     Atomic      Atomic             Coordinates (Angstroms)
 Number     Number       Type             X           Y           Z
 ---------------------------------------------------------------------
      1          6           0        2.748234   -0.033849   -0.040982
      2          1           0        3.779586   -0.357066   -0.093524
      3          6           0        2.259233    1.256825    0.065091
      4          1           0        2.870285    2.150969    0.104719
      5          7           0        0.899960    1.363764    0.120255
      6          6           0        0.365500    0.158227    0.053370
      7         16           0        1.462401   -1.157574   -0.088405
      8         16           0       -1.397667   -0.111532    0.126341
      9          6           0       -1.983529    1.042966   -1.091393
     10          1           0       -1.674092    2.044286   -0.792533
     11          1           0       -3.071761    0.950807   -1.093637
     12          1           0       -1.571455    0.765847   -2.062092
     13          8           0       -1.893600    0.305739    1.428396
     14          8           0       -1.606980   -1.473302   -0.356924
 ---------------------------------------------------------------------

 SCF Done:  E(RHF) =  -1154.03169701     A.U. after    2 cycles

 The electronic state is 1-A.
 Alpha  occ. eigenvalues --  -94.20787 -94.02718 -20.54510 -20.54326 -15.55450
 Alpha  occ. eigenvalues --  -11.35306 -11.30686 -11.30594 -11.29289  -8.46045
 Alpha  occ. eigenvalues --   -8.30860  -6.44144  -6.43962  -6.43899  -6.28592
 Alpha  occ. eigenvalues --   -6.28508  -6.28304  -1.55861  -1.43990  -1.32319
 Alpha  occ. eigenvalues --   -1.13080  -1.09663  -1.04014  -0.91624  -0.85194
 Alpha  occ. eigenvalues --   -0.78573  -0.74873  -0.68680  -0.67723  -0.66876
 Alpha  occ. eigenvalues --   -0.63320  -0.62071  -0.60825  -0.59841  -0.55027
 Alpha  occ. eigenvalues --   -0.52349  -0.49915  -0.49734  -0.46791  -0.45116
 Alpha  occ. eigenvalues --   -0.43959  -0.37688
 Alpha virt. eigenvalues --    0.02634   0.03612   0.04037   0.04280   0.05265
 Alpha virt. eigenvalues --    0.05901   0.07587   0.09652   0.09917   0.10404
 Alpha virt. eigenvalues --    0.10708   0.11766   0.12498   0.12695   0.13523

 Mulliken charges:
               1
     1  C   -0.069220
     2  H   -0.133664
     3  C   -0.073307
     4  H   -0.100953
     5  N    0.887399
     6  C   -1.673332
     7  S    0.587926
     8  S    3.579290
     9  C   -0.724714
    10  H    0.296238
    11  H    0.235822
    12  H    0.249238
    13  O   -1.495197
    14  O   -1.565525
 Sum of Mulliken charges =  -0.00000

 Dipole moment (field-independent basis, Debye):
    X=              3.7246    Y=              1.4345    Z=             -3.0988  Tot=              5.0530

 Test job not archived.
 1\1\GINC-SE292\SP\RHF\Aug-CC-pVDZ\C4H5N1O2S2\OHZDE\09-Apr-2025\0\\#t h
 f aug-cc-pvdz iop(5/13=1,5/36=2,99/5=2) pseudo=read geom=check guess=(
 read,tcheck) scf=(maxcycle=1)\\title\\0,1\C,0,2.0276,-24.6262,-0.8858\
 H,0,0.9754,-24.6379,-1.1381\C,0,2.8197,-25.6809,-0.4658\H,0,2.4774,-26
 .7008,-0.3351\N,0,4.1226,-25.3668,-0.2091\C,0,4.3132,-24.0803,-0.4372\
 S,0,2.9466,-23.1891,-0.9783\S,0,5.8923,-23.2876,-0.1824\C,0,6.9835,-24
 .3804,-1.0622\H,0,6.9073,-25.3728,-0.6183\H,0,7.987,-23.9682,-0.9364\H
 ,0,6.6984,-24.3858,-2.1146\O,0,6.2334,-23.3403,1.2305\O,0,5.8103,-22.0

 Normal termination of Gaussian 16 at Wed Apr  9 02:23:35 2025.
