 Gaussian 16, Revision C.01,

 ----------------------------------------------------------------------
 #t hf aug-cc-pvdz symm=none int=(grid=ultrafine) guess=(read,tcheck) s
 table=(opt,rrhf)
 ----------------------------------------------------------------------
 -----
 title
 -----
 Symbolic Z-matrix:
 Charge =  0 Multiplicity = 1

 SCF Done:  E(RHF) =  -796.892191690     A.U. after   16 cycles
 Normal termination of Gaussian 16 at Wed Apr  9 02:28:32 2025.
 Gaussian 16:  ES64L-G16RevC.01  3-Jul-2019

 ----------------------------------------------------------------------
 #t hf aug-cc-pvdz iop(5/13=1,5/36=2,99/5=2) pseudo=read geom=check gue
 ss=(read,tcheck) scf=(maxcycle=1)
 ----------------------------------------------------------------------
 -----
 title
 -----
 Structure from the checkpoint file:  "DCONF_52_-100_mol1.chk"
 Charge =  0 Multiplicity = 1

                         Standard orientation:
 ---------------------------------------------------------------------
 Center     Atomic      Atomic             Coordinates (Angstroms)
 Number     Number       Type             X           Y           Z
 ---------------------------------------------------------------------
      1          6           0       -1.457816    0.980075   -0.746043
      2          1           0       -0.940933    1.725254   -1.344087
      3          6           0       -2.851946    0.892389   -0.734546
      4          1           0       -3.455571    1.575131   -1.326484
      5          6           0       -3.447969   -0.096962    0.051865
      6          1           0       -4.527298   -0.209690    0.095684
      7          6           0       -2.621337   -0.950203    0.792048
      8          1           0       -3.052582   -1.730829    1.415751
      9          7           0       -1.279179   -0.874276    0.801032
     10          6           0       -0.711467    0.081105    0.033162
     11          6           0        1.516274    1.105954    0.797775
     12          1           0        1.065387    1.894063    1.391969
     13          6           0        2.911804    0.879615    0.672693
     14          1           0        3.677954    1.480497    1.150400
     15          6           0        3.195483   -0.212848   -0.127492
     16          1           0        4.165924   -0.605963   -0.402401
     17         16           0        1.766465   -0.952610   -0.718403
     18          6           0        0.759962    0.193080    0.078269
 ---------------------------------------------------------------------

 SCF Done:  E(RHF) =  -797.353567433     A.U. after    2 cycles

 The electronic state is 1-A.
 Alpha  occ. eigenvalues --  -93.97778 -15.51318 -11.29892 -11.28786 -11.27389
 Alpha  occ. eigenvalues --  -11.27335 -11.27008 -11.25635 -11.25609 -11.24767
 Alpha  occ. eigenvalues --  -11.24705  -8.25969  -6.23737  -6.23639  -6.23434
 Alpha  occ. eigenvalues --   -1.26295  -1.18754  -1.09460  -1.06110  -1.00662
 Alpha  occ. eigenvalues --   -0.97917  -0.88077  -0.87510  -0.77912  -0.76565
 Alpha  occ. eigenvalues --   -0.72132  -0.70041  -0.68823  -0.64400  -0.60413
 Alpha  occ. eigenvalues --   -0.59185  -0.58220  -0.56767  -0.54222  -0.53172
 Alpha  occ. eigenvalues --   -0.52731  -0.48521  -0.45980  -0.40765  -0.36093
 Alpha  occ. eigenvalues --   -0.35294  -0.32692
 Alpha virt. eigenvalues --    0.03104   0.03621   0.03797   0.04214   0.04713
 Alpha virt. eigenvalues --    0.05610   0.06308   0.07142   0.08266   0.08961
 Alpha virt. eigenvalues --    0.09995   0.10188   0.11019   0.11322   0.11754

 Mulliken charges:
               1
     1  C    0.839575
     2  H   -0.210619
     3  C   -0.253546
     4  H   -0.159798
     5  C    0.794689
     6  H   -0.189182
     7  C   -0.762325
     8  H   -0.210429
     9  N    1.464211
    10  C   -1.888940
    11  C    0.229578
    12  H   -0.181071
    13  C    0.376499
    14  H   -0.118057
    15  C   -0.594165
    16  H   -0.140479
    17  S    0.597315
    18  C    0.406743
 Sum of Mulliken charges =  -0.00000

 Dipole moment (field-independent basis, Debye):
    X=             -1.4425    Y=              2.0736    Z=             -0.9110  Tot=              2.6853

 Test job not archived.
 1\1\GINC-SE338\SP\RHF\Aug-CC-pVDZ\C9H7N1S1\OHZDE\09-Apr-2025\0\\#t hf
 aug-cc-pvdz iop(5/13=1,5/36=2,99/5=2) pseudo=read geom=check guess=(re
 ad,tcheck) scf=(maxcycle=1)\\title\\0,1\C,0,30.1873,-8.3608,-0.012\H,0
 ,30.7671,-7.4422,-0.023\C,0,28.7906,-8.3421,0.0053\H,0,28.2485,-7.4003
 ,0.0109\C,0,28.1108,-9.5629,0.0099\H,0,27.0256,-9.6051,0.0217\C,0,28.8
 603,-10.745,-0.0001\H,0,28.3628,-11.7129,0.0042\N,0,30.2041,-10.7823,-
 0.0067\C,0,30.8528,-9.5975,-0.0173\C,0,33.1506,-9.4471,1.1208\H,0,32.7
 607,-9.1905,2.1004\C,0,34.5241,-9.6346,0.8163\H,0,35.3329,-9.529,1.531

 Normal termination of Gaussian 16 at Wed Apr  9 02:28:43 2025.
