 Gaussian 16, Revision C.01,

 ----------------------------------------------------------------------
 #t hf aug-cc-pvdz symm=none int=(grid=ultrafine) guess=(read,tcheck) s
 table=(opt,rrhf)
 ----------------------------------------------------------------------
 -----
 title
 -----
 Symbolic Z-matrix:
 Charge =  0 Multiplicity = 1

 SCF Done:  E(RHF) =  -703.111121126     A.U. after   16 cycles
 Normal termination of Gaussian 16 at Wed Apr  9 02:22:03 2025.
 Gaussian 16:  ES64L-G16RevC.01  3-Jul-2019

 ----------------------------------------------------------------------
 #t hf aug-cc-pvdz iop(5/13=1,5/36=2,99/5=2) pseudo=read geom=check gue
 ss=(read,tcheck) scf=(maxcycle=1)
 ----------------------------------------------------------------------
 -----
 title
 -----
 Structure from the checkpoint file:  "DCONF_24_-120_mol1.chk"
 Charge =  0 Multiplicity = 1

                         Standard orientation:
 ---------------------------------------------------------------------
 Center     Atomic      Atomic             Coordinates (Angstroms)
 Number     Number       Type             X           Y           Z
 ---------------------------------------------------------------------
      1          8           0       -2.288528    1.051600   -0.663665
      2          6           0       -2.242452   -0.904207    0.732414
      3          1           0       -1.905834   -0.767757    1.764951
      4          1           0       -3.329957   -0.841612    0.676349
      5          1           0       -1.907745   -1.896566    0.411940
      6          6           0       -1.623673    0.180667   -0.122175
      7          6           0        0.612866    1.343702    0.263466
      8          1           0        0.153860    2.304421    0.471477
      9          6           0        1.998320    1.062547    0.347877
     10          1           0        2.757672    1.785542    0.624357
     11          6           0        2.285038   -0.256216    0.041700
     12          1           0        3.254725   -0.733617   -0.017616
     13         16           0        0.869250   -1.143164   -0.334163
     14          6           0       -0.133847    0.244742   -0.142537
 ---------------------------------------------------------------------

 SCF Done:  E(RHF) =  -703.478120805     A.U. after    2 cycles

 The electronic state is 1-A.
 Alpha  occ. eigenvalues --  -93.99580 -20.54248 -11.35614 -11.28972 -11.28337
 Alpha  occ. eigenvalues --  -11.26656 -11.26224 -11.25257  -8.27787  -6.25556
 Alpha  occ. eigenvalues --   -6.25460  -6.25254  -1.46861  -1.20607  -1.05171
 Alpha  occ. eigenvalues --   -1.02278  -0.99057  -0.84936  -0.78394  -0.73900
 Alpha  occ. eigenvalues --   -0.70349  -0.63590  -0.63280  -0.61651  -0.58712
 Alpha  occ. eigenvalues --   -0.56528  -0.55918  -0.54154  -0.50808  -0.49093
 Alpha  occ. eigenvalues --   -0.42412  -0.36976  -0.34454
 Alpha virt. eigenvalues --    0.03085   0.03818   0.03885   0.05056   0.05681
 Alpha virt. eigenvalues --    0.06005   0.07065   0.09149   0.09659   0.10694
 Alpha virt. eigenvalues --    0.11310   0.12326   0.12898   0.13491   0.13805

 Mulliken charges:
               1
     1  O   -1.352349
     2  C   -0.565581
     3  H    0.296103
     4  H    0.116893
     5  H    0.266388
     6  C    0.767272
     7  C    0.189691
     8  H   -0.147828
     9  C    0.404956
    10  H   -0.097793
    11  C   -0.625665
    12  H   -0.139273
    13  S    0.769604
    14  C    0.117581
 Sum of Mulliken charges =  -0.00000

 Dipole moment (field-independent basis, Debye):
    X=              2.2621    Y=             -1.4197    Z=              1.9216  Tot=              3.2902

 Test job not archived.
 1\1\GINC-SE120\SP\RHF\Aug-CC-pVDZ\C6H6O1S1\OHZDE\09-Apr-2025\0\\#t hf
 aug-cc-pvdz iop(5/13=1,5/36=2,99/5=2) pseudo=read geom=check guess=(re
 ad,tcheck) scf=(maxcycle=1)\\title\\0,1\O,0,21.0544,-5.7736,0.6133\C,0
 ,21.5648,-4.2859,-1.204\H,0,21.8884,-4.7447,-2.1436\H,0,20.4892,-4.105
 5,-1.2204\H,0,22.102,-3.3365,-1.1062\C,0,21.908,-5.2245,-0.0676\C,0,23
 .842,-6.8847,0.0152\H,0,23.1878,-7.7501,0.0088\C,0,25.257,-6.9274,-0.0
 249\H,0,25.8449,-7.8379,-0.0587\C,0,25.8197,-5.6631,-0.0232\H,0,26.869
 ,-5.3979,-0.0042\S,0,24.6254,-4.4365,0.0156\C,0,23.3461,-5.5888,0.0849

 Normal termination of Gaussian 16 at Wed Apr  9 02:22:09 2025.
