 Gaussian 16, Revision C.01,

 ----------------------------------------------------------------------
 #t hf aug-cc-pvdz symm=none int=(grid=ultrafine) guess=(read,tcheck) s
 table=(opt,rrhf)
 ----------------------------------------------------------------------
 -----
 title
 -----
 Symbolic Z-matrix:
 Charge =  0 Multiplicity = 1

 SCF Done:  E(RHF) =  -911.018331183     A.U. after   16 cycles
 Normal termination of Gaussian 16 at Wed Apr  9 02:26:57 2025.
 Gaussian 16:  ES64L-G16RevC.01  3-Jul-2019

 ----------------------------------------------------------------------
 #t hf aug-cc-pvdz iop(5/13=1,5/36=2,99/5=2) pseudo=read geom=check gue
 ss=(read,tcheck) scf=(maxcycle=1)
 ----------------------------------------------------------------------
 -----
 title
 -----
 Structure from the checkpoint file:  "DCONF_30_-120_mol1.chk"
 Charge =  0 Multiplicity = 1

                         Standard orientation:
 ---------------------------------------------------------------------
 Center     Atomic      Atomic             Coordinates (Angstroms)
 Number     Number       Type             X           Y           Z
 ---------------------------------------------------------------------
      1          6           0       -2.886476   -0.853911    0.507368
      2          1           0       -3.566984   -1.612747    0.883801
      3          6           0       -1.538482   -1.171999    0.306500
      4          1           0       -1.149322   -2.161345    0.526805
      5          6           0       -0.672742   -0.185501   -0.178771
      6         16           0        1.034333   -0.607793   -0.494643
      7          7           0        1.942748    0.390376    0.489233
      8          6           0        1.692599    0.231193    1.924075
      9          1           0        1.647450   -0.828900    2.174704
     10          1           0        0.761051    0.728625    2.234279
     11          1           0        2.530738    0.683024    2.461130
     12          6           0        2.110855    1.788482    0.091750
     13          1           0        2.193719    1.854853   -0.993230
     14          1           0        3.042296    2.149545    0.537119
     15          1           0        1.284694    2.419312    0.450523
     16          6           0       -1.141625    1.092975   -0.511228
     17          1           0       -0.476102    1.823431   -0.960341
     18          6           0       -2.489305    1.400066   -0.297742
     19          1           0       -2.861465    2.389370   -0.549597
     20          6           0       -3.361245    0.430158    0.213939
     21          1           0       -4.409084    0.671201    0.370014
     22          8           0        1.341944   -0.226587   -1.863000
     23          8           0        1.229677   -1.962549   -0.009613
 ---------------------------------------------------------------------

 SCF Done:  E(RHF) =  -911.606778243     A.U. after    2 cycles

 The electronic state is 1-A.
 Alpha  occ. eigenvalues --  -94.20862 -20.53394 -20.53327 -15.53941 -11.28639
 Alpha  occ. eigenvalues --  -11.28070 -11.27893 -11.27862 -11.27448 -11.27375
 Alpha  occ. eigenvalues --  -11.26972 -11.26779  -8.45755  -6.43889  -6.43691
 Alpha  occ. eigenvalues --   -6.43598  -1.55583  -1.43505  -1.26062  -1.18204
 Alpha  occ. eigenvalues --   -1.06458  -1.04247  -0.98995  -0.97733  -0.88646
 Alpha  occ. eigenvalues --   -0.86297  -0.80891  -0.75265  -0.72522  -0.69539
 Alpha  occ. eigenvalues --   -0.68368  -0.66587  -0.66418  -0.64380  -0.62644
 Alpha  occ. eigenvalues --   -0.62194  -0.58571  -0.57827  -0.55823  -0.55511
 Alpha  occ. eigenvalues --   -0.53885  -0.53243  -0.50279  -0.48910  -0.46539
 Alpha  occ. eigenvalues --   -0.46013  -0.43684  -0.37464  -0.36891
 Alpha virt. eigenvalues --    0.02600   0.03089   0.03475   0.04318   0.04766
 Alpha virt. eigenvalues --    0.05340   0.06286   0.06488   0.06962   0.07470
 Alpha virt. eigenvalues --    0.07969   0.08651   0.09321   0.10194   0.11454

 Mulliken charges:
               1
     1  C    0.399960
     2  H   -0.213370
     3  C   -0.519198
     4  H   -0.288519
     5  C    0.778095
     6  S    3.736631
     7  N    0.122792
     8  C   -0.560612
     9  H    0.093115
    10  H    0.237306
    11  H    0.108964
    12  C   -0.520695
    13  H    0.120068
    14  H    0.047232
    15  H    0.300980
    16  C   -0.159461
    17  H   -0.302760
    18  C    0.295583
    19  H   -0.240142
    20  C    0.119835
    21  H   -0.203699
    22  O   -1.639268
    23  O   -1.712839
 Sum of Mulliken charges =   0.00000

 Dipole moment (field-independent basis, Debye):
    X=             -3.2404    Y=              3.7318    Z=              3.2521  Tot=              5.9163

 Test job not archived.
 1\1\GINC-SE453\SP\RHF\Aug-CC-pVDZ\C8H11N1O2S1\OHZDE\09-Apr-2025\0\\#t
 hf aug-cc-pvdz iop(5/13=1,5/36=2,99/5=2) pseudo=read geom=check guess=
 (read,tcheck) scf=(maxcycle=1)\\title\\0,1\C,0,3.9183,-2.1649,0.3337\H
 ,0,4.625,-2.0528,1.1514\C,0,2.7039,-1.4702,0.3689\H,0,2.4428,-0.8244,1
 .2017\C,0,1.8027,-1.6234,-0.6906\S,0,0.2799,-0.689,-0.6768\N,0,-0.9506
 ,-1.8183,-0.6879\C,0,-0.9625,-2.7248,0.4631\H,0,-0.7979,-2.1582,1.3799
 \H,0,-0.2011,-3.5141,0.3697\H,0,-1.9505,-3.1902,0.5112\C,0,-1.2597,-2.
 4938,-1.9485\H,0,-1.1392,-1.797,-2.7782\H,0,-2.3056,-2.811,-1.9063\H,0

 Normal termination of Gaussian 16 at Wed Apr  9 02:27:16 2025.
