 Gaussian 16, Revision C.01,

 ----------------------------------------------------------------------
 #t hf aug-cc-pvdz symm=none int=(grid=ultrafine) guess=(read,tcheck) s
 table=(opt,rrhf)
 ----------------------------------------------------------------------
 -----
 title
 -----
 Symbolic Z-matrix:
 Charge =  0 Multiplicity = 1

 SCF Done:  E(RHF) =  -774.177582128     A.U. after   15 cycles
 Normal termination of Gaussian 16 at Wed Apr  9 02:26:31 2025.
 Gaussian 16:  ES64L-G16RevC.01  3-Jul-2019

 ----------------------------------------------------------------------
 #t hf aug-cc-pvdz iop(5/13=1,5/36=2,99/5=2) pseudo=read geom=check gue
 ss=(read,tcheck) scf=(maxcycle=1)
 ----------------------------------------------------------------------
 -----
 title
 -----
 Structure from the checkpoint file:  "DCONF_42_0_mol1.chk"
 Charge =  0 Multiplicity = 1

                         Standard orientation:
 ---------------------------------------------------------------------
 Center     Atomic      Atomic             Coordinates (Angstroms)
 Number     Number       Type             X           Y           Z
 ---------------------------------------------------------------------
      1          6           0       -2.209914   -0.150252   -0.014674
      2          7           0       -0.937218   -0.742202    0.035570
      3          1           0       -0.977508   -1.725275   -0.210284
      4          7           0        0.538911    1.145087   -0.185405
      5          6           0        1.893944    1.388034   -0.167979
      6          1           0        2.249417    2.404361   -0.287699
      7          6           0        2.701573    0.287864   -0.021490
      8          1           0        3.781532    0.239079   -0.010407
      9         16           0        1.738299   -1.128256    0.135968
     10          6           0        0.314089   -0.138524   -0.043752
     11          8           0       -3.166264   -0.865322   -0.263769
     12          6           0       -2.319497    1.315880    0.306869
     13          1           0       -1.741516    1.566079    1.198597
     14          1           0       -3.375959    1.541533    0.451954
     15          1           0       -1.911655    1.910688   -0.512495
 ---------------------------------------------------------------------

 SCF Done:  E(RHF) =  -774.614296683     A.U. after    2 cycles

 The electronic state is 1-A.
 Alpha  occ. eigenvalues --  -94.00378 -20.53122 -15.56315 -15.51613 -11.38127
 Alpha  occ. eigenvalues --  -11.37659 -11.29286 -11.28087 -11.24577  -8.28660
 Alpha  occ. eigenvalues --   -6.26419  -6.26325  -6.26092  -1.47585  -1.32303
 Alpha  occ. eigenvalues --   -1.24732  -1.11099  -1.03432  -1.01044  -0.88185
 Alpha  occ. eigenvalues --   -0.85246  -0.78063  -0.74216  -0.69215  -0.67275
 Alpha  occ. eigenvalues --   -0.65604  -0.61203  -0.60290  -0.59873  -0.57671
 Alpha  occ. eigenvalues --   -0.54615  -0.53167  -0.48554  -0.47273  -0.44122
 Alpha  occ. eigenvalues --   -0.42924  -0.34215
 Alpha virt. eigenvalues --    0.03100   0.03753   0.04414   0.04937   0.05776
 Alpha virt. eigenvalues --    0.06718   0.07746   0.08052   0.09527   0.10137
 Alpha virt. eigenvalues --    0.10323   0.11321   0.12025   0.12632   0.13122

 Mulliken charges:
               1
     1  C    0.610262
     2  N    0.772557
     3  H    0.246534
     4  N    1.030331
     5  C    0.196373
     6  H   -0.121154
     7  C   -0.117471
     8  H   -0.153730
     9  S    0.654499
    10  C   -2.094736
    11  O   -1.326279
    12  C   -0.394967
    13  H    0.290216
    14  H    0.041772
    15  H    0.365793
 Sum of Mulliken charges =  -0.00000

 Dipole moment (field-independent basis, Debye):
    X=              3.5680    Y=              0.4996    Z=              0.4803  Tot=              3.6347

 Test job not archived.
 1\1\GINC-SE149\SP\RHF\Aug-CC-pVDZ\C5H6N2O1S1\OHZDE\09-Apr-2025\0\\#t h
 f aug-cc-pvdz iop(5/13=1,5/36=2,99/5=2) pseudo=read geom=check guess=(
 read,tcheck) scf=(maxcycle=1)\\title\\0,1\C,0,28.0372,-17.3884,-0.0684
 \N,0,29.327,-16.8351,-0.014\H,0,29.3077,-15.8893,0.3515\N,0,30.7426,-1
 8.7807,0.0051\C,0,32.0902,-19.0621,-0.0101\H,0,32.4134,-20.0961,-0.009
 6\C,0,32.9323,-17.9782,0.0011\H,0,34.0131,-17.9624,0.022\S,0,32.0141,-
 16.5239,-0.0015\C,0,30.5581,-17.483,0.0193\O,0,27.0949,-16.68,0.245\C,
 0,27.8952,-18.7992,-0.5728\H,0,28.4903,-18.955,-1.4747\H,0,26.8372,-18

 Normal termination of Gaussian 16 at Wed Apr  9 02:26:38 2025.
