 Gaussian 16, Revision C.01,

 ----------------------------------------------------------------------
 #t hf aug-cc-pvdz symm=none int=(grid=ultrafine) guess=(read,tcheck) s
 table=(opt,rrhf)
 ----------------------------------------------------------------------
 -----
 title
 -----
 Symbolic Z-matrix:
 Charge =  0 Multiplicity = 1

 SCF Done:  E(RHF) =  -256.178794476     A.U. after   12 cycles
 Normal termination of Gaussian 16 at Wed Apr  9 02:31:23 2025.
 Gaussian 16:  ES64L-G16RevC.01  3-Jul-2019

 ----------------------------------------------------------------------
 #t hf aug-cc-pvdz iop(5/13=1,5/36=2,99/5=2) pseudo=read geom=check gue
 ss=(read,tcheck) scf=(maxcycle=1)
 ----------------------------------------------------------------------
 -----
 title
 -----
 Structure from the checkpoint file:  "DCONF_8_40_mol1.chk"
 Charge =  0 Multiplicity = 1

                         Standard orientation:
 ---------------------------------------------------------------------
 Center     Atomic      Atomic             Coordinates (Angstroms)
 Number     Number       Type             X           Y           Z
 ---------------------------------------------------------------------
      1          6           0        0.017050    0.766946   -0.150858
      2          1           0       -0.092051    0.986492   -1.220279
      3          1           0       -0.301736    1.664967    0.393416
      4          6           0       -0.887519   -0.416487    0.196383
      5          1           0       -0.581802   -1.283523   -0.394457
      6          1           0       -0.744901   -0.688420    1.249837
      7          6           0       -2.360730   -0.099657   -0.060326
      8          1           0       -2.522933    0.162307   -1.111064
      9          1           0       -2.997590   -0.957116    0.174857
     10          1           0       -2.692440    0.745630    0.551606
     11          6           0        1.483551    0.521895    0.169348
     12          1           0        2.143523    1.197506   -0.380595
     13          1           0        1.668909    0.630475    1.242915
     14          9           0        1.845213   -0.788278   -0.159279
 ---------------------------------------------------------------------

 SCF Done:  E(RHF) =  -256.447907496     A.U. after    2 cycles

 The electronic state is 1-A.
 Alpha  occ. eigenvalues --  -26.43596 -11.31482 -11.23680 -11.22892 -11.22501
 Alpha  occ. eigenvalues --   -1.55630  -1.08031  -0.98731  -0.87431  -0.80004
 Alpha  occ. eigenvalues --   -0.69268  -0.67899  -0.64742  -0.62754  -0.57711
 Alpha  occ. eigenvalues --   -0.55337  -0.53893  -0.50893  -0.48825  -0.47674
 Alpha  occ. eigenvalues --   -0.47177
 Alpha virt. eigenvalues --    0.03590   0.03872   0.03990   0.04769   0.06384
 Alpha virt. eigenvalues --    0.06607   0.07189   0.07900   0.09708   0.11509
 Alpha virt. eigenvalues --    0.12957   0.13504   0.14781   0.16173   0.16503

 Mulliken charges:
               1
     1  C   -0.492440
     2  H    0.096370
     3  H    0.175686
     4  C   -0.279698
     5  H    0.160725
     6  H    0.125849
     7  C   -0.394299
     8  H    0.182077
     9  H    0.123823
    10  H    0.155209
    11  C    0.690842
    12  H    0.100403
    13  H    0.087573
    14  F   -0.732120
 Sum of Mulliken charges =  -0.00000

 Dipole moment (field-independent basis, Debye):
    X=             -0.7217    Y=              1.6181    Z=              0.3888  Tot=              1.8139

 Test job not archived.
 1\1\GINC-SE333\SP\RHF\Aug-CC-pVDZ\C4H9F1\OHZDE\09-Apr-2025\0\\#t hf au
 g-cc-pvdz iop(5/13=1,5/36=2,99/5=2) pseudo=read geom=check guess=(read
 ,tcheck) scf=(maxcycle=1)\\title\\0,1\C,0,0.0266,-0.035,-0.006\H,0,0.0
 445,-0.6356,0.912\H,0,0.0068,-0.739,-0.8476\C,0,-1.2388,0.8241,0.0007\
 H,0,-1.2188,1.4804,0.8743\H,0,-1.2422,1.4762,-0.8818\C,0,-2.5057,-0.03
 11,0.0158\H,0,-2.5242,-0.68,0.8976\H,0,-3.4044,0.5918,0.0375\H,0,-2.55
 84,-0.6696,-0.8722\C,0,1.3087,0.7771,-0.1056\H,0,2.1813,0.2119,0.2314\
 H,0,1.4732,1.1166,-1.1334\F,0,1.2202,1.9318,0.6781\\Version=ES64L-G16R

 Normal termination of Gaussian 16 at Wed Apr  9 02:31:27 2025.
