 Gaussian 16, Revision C.01,

 ----------------------------------------------------------------------
 #t hf aug-cc-pvdz symm=none int=(grid=ultrafine) guess=(read,tcheck) s
 table=(opt,rrhf)
 ----------------------------------------------------------------------
 -----
 title
 -----
 Symbolic Z-matrix:
 Charge =  0 Multiplicity = 1

 SCF Done:  E(RHF) =  -812.895256103     A.U. after   16 cycles
 Normal termination of Gaussian 16 at Wed Apr  9 02:29:57 2025.
 Gaussian 16:  ES64L-G16RevC.01  3-Jul-2019

 ----------------------------------------------------------------------
 #t hf aug-cc-pvdz iop(5/13=1,5/36=2,99/5=2) pseudo=read geom=check gue
 ss=(read,tcheck) scf=(maxcycle=1)
 ----------------------------------------------------------------------
 -----
 title
 -----
 Structure from the checkpoint file:  "DCONF_56_-100_mol1.chk"
 Charge =  0 Multiplicity = 1

                         Standard orientation:
 ---------------------------------------------------------------------
 Center     Atomic      Atomic             Coordinates (Angstroms)
 Number     Number       Type             X           Y           Z
 ---------------------------------------------------------------------
      1          6           0       -1.439057    1.026695   -0.686611
      2          1           0       -0.924279    1.817603   -1.224156
      3          6           0       -2.832619    0.936662   -0.673212
      4          1           0       -3.440127    1.657899   -1.212878
      5          6           0       -3.424181   -0.102292    0.050580
      6          1           0       -4.503289   -0.216217    0.093833
      7          6           0       -2.595713   -1.001323    0.731877
      8          1           0       -3.024263   -1.818588    1.308442
      9          7           0       -1.253389   -0.926559    0.736927
     10          6           0       -0.696532    0.075201    0.027073
     11          7           0        1.414150    1.051232    0.863321
     12          6           0        2.766811    0.868395    0.758625
     13          1           0        3.437175    1.501931    1.328189
     14          6           0        3.169851   -0.146537   -0.086871
     15          1           0        4.176696   -0.463141   -0.324554
     16         16           0        1.800003   -0.901284   -0.777706
     17          6           0        0.776892    0.187925    0.090653
 ---------------------------------------------------------------------

 SCF Done:  E(RHF) =  -813.368744800     A.U. after    2 cycles

 The electronic state is 1-A.
 Alpha  occ. eigenvalues --  -93.99163 -15.51986 -15.51468 -11.31988 -11.30353
 Alpha  occ. eigenvalues --  -11.29198 -11.27778 -11.27764 -11.27431 -11.26179
 Alpha  occ. eigenvalues --  -11.26094  -8.27404  -6.25151  -6.25064  -6.24856
 Alpha  occ. eigenvalues --   -1.29193  -1.26182  -1.09988  -1.09564  -1.07215
 Alpha  occ. eigenvalues --   -1.00180  -0.89328  -0.88427  -0.82305  -0.78634
 Alpha  occ. eigenvalues --   -0.72816  -0.70763  -0.69407  -0.65417  -0.62091
 Alpha  occ. eigenvalues --   -0.60877  -0.59747  -0.57445  -0.56141  -0.54825
 Alpha  occ. eigenvalues --   -0.51863  -0.47715  -0.46088  -0.41634  -0.40629
 Alpha  occ. eigenvalues --   -0.36774  -0.34345
 Alpha virt. eigenvalues --    0.03068   0.03699   0.03781   0.04429   0.04946
 Alpha virt. eigenvalues --    0.06389   0.06660   0.07530   0.08145   0.09507
 Alpha virt. eigenvalues --    0.09822   0.10172   0.10908   0.11162   0.11717

 Mulliken charges:
               1
     1  C    0.987457
     2  H   -0.192445
     3  C   -0.239796
     4  H   -0.157959
     5  C    0.800676
     6  H   -0.183906
     7  C   -0.867350
     8  H   -0.206548
     9  N    1.531964
    10  C   -1.043536
    11  N    1.111725
    12  C   -0.149762
    13  H   -0.116921
    14  C    0.004175
    15  H   -0.131637
    16  S    0.516379
    17  C   -1.662516
 Sum of Mulliken charges =  -0.00000

 Dipole moment (field-independent basis, Debye):
    X=             -1.2332    Y=              0.3552    Z=             -2.3568  Tot=              2.6835

 Test job not archived.
 1\1\GINC-SE051\SP\RHF\Aug-CC-pVDZ\C8H6N2S1\OHZDE\09-Apr-2025\0\\#t hf
 aug-cc-pvdz iop(5/13=1,5/36=2,99/5=2) pseudo=read geom=check guess=(re
 ad,tcheck) scf=(maxcycle=1)\\title\\0,1\C,0,30.1261,-21.0954,-0.0138\H
 ,0,30.7064,-20.1774,-0.0101\C,0,28.7298,-21.0797,0.0062\H,0,28.1859,-2
 0.1392,0.0172\C,0,28.0518,-22.3018,0.0119\H,0,26.9668,-22.3446,0.0282\
 C,0,28.8007,-23.4841,0.002\H,0,28.304,-24.4522,0.0107\N,0,30.1446,-23.
 5194,-0.0097\C,0,30.7849,-22.3331,-0.0243\N,0,32.9646,-22.1808,1.1301\
 C,0,34.2982,-22.3605,0.8785\H,0,35.0156,-22.229,1.6805\C,0,34.6206,-22

 Normal termination of Gaussian 16 at Wed Apr  9 02:30:08 2025.
