 Gaussian 16, Revision C.01,

 ----------------------------------------------------------------------
 #t hf aug-cc-pvdz symm=none int=(grid=ultrafine) guess=(read,tcheck) s
 table=(opt,rrhf)
 ----------------------------------------------------------------------
 -----
 title
 -----
 Symbolic Z-matrix:
 Charge =  0 Multiplicity = 1

 SCF Done:  E(RHF) =  -703.119565550     A.U. after   16 cycles
 Normal termination of Gaussian 16 at Wed Apr  9 02:21:13 2025.
 Gaussian 16:  ES64L-G16RevC.01  3-Jul-2019

 ----------------------------------------------------------------------
 #t hf aug-cc-pvdz iop(5/13=1,5/36=2,99/5=2) pseudo=read geom=check gue
 ss=(read,tcheck) scf=(maxcycle=1)
 ----------------------------------------------------------------------
 -----
 title
 -----
 Structure from the checkpoint file:  "DCONF_24_-100_mol2.chk"
 Charge =  0 Multiplicity = 1

                         Standard orientation:
 ---------------------------------------------------------------------
 Center     Atomic      Atomic             Coordinates (Angstroms)
 Number     Number       Type             X           Y           Z
 ---------------------------------------------------------------------
      1          8           0        1.995537   -1.325644   -0.000112
      2          6           0        2.540157    1.014431    0.000788
      3          1           0        2.371237    1.634968   -0.884512
      4          1           0        3.565968    0.644407    0.001088
      5          1           0        2.370350    1.634782    0.885888
      6          6           0        1.592803   -0.167891    0.000088
      7          6           0       -0.490529    1.371911   -0.000112
      8          1           0        0.045633    2.314806   -0.000212
      9          6           0       -1.898977    1.256715   -0.000112
     10          1           0       -2.587754    2.094194    0.000088
     11          6           0       -2.309086   -0.067731   -0.000012
     12          1           0       -3.324094   -0.445330   -0.000012
     13         16           0       -0.993286   -1.157215   -0.000212
     14          6           0        0.146788    0.133028   -0.000312
 ---------------------------------------------------------------------

 SCF Done:  E(RHF) =  -703.486701935     A.U. after    2 cycles

 The electronic state is 1-A.
 Alpha  occ. eigenvalues --  -93.99154 -20.53636 -11.35260 -11.29251 -11.27971
 Alpha  occ. eigenvalues --  -11.27461 -11.26144 -11.25113  -8.27323  -6.25077
 Alpha  occ. eigenvalues --   -6.24979  -6.24782  -1.46404  -1.20537  -1.05206
 Alpha  occ. eigenvalues --   -1.02519  -0.98724  -0.85212  -0.78473  -0.74259
 Alpha  occ. eigenvalues --   -0.70464  -0.63347  -0.62894  -0.61745  -0.58854
 Alpha  occ. eigenvalues --   -0.56567  -0.55114  -0.54434  -0.49999  -0.49798
 Alpha  occ. eigenvalues --   -0.42246  -0.36862  -0.34461
 Alpha virt. eigenvalues --    0.02876   0.03337   0.04121   0.04333   0.05498
 Alpha virt. eigenvalues --    0.05934   0.07708   0.08308   0.09548   0.10797
 Alpha virt. eigenvalues --    0.11733   0.12788   0.12800   0.13395   0.13509

 Mulliken charges:
               1
     1  O   -1.410477
     2  C   -0.608411
     3  H    0.302360
     4  H    0.066085
     5  H    0.302081
     6  C    0.842412
     7  C    0.507807
     8  H   -0.275718
     9  C    0.038439
    10  H   -0.115483
    11  C   -0.531182
    12  H   -0.157673
    13  S    0.553108
    14  C    0.486653
 Sum of Mulliken charges =  -0.00000

 Dipole moment (field-independent basis, Debye):
    X=             -1.7997    Y=              3.6498    Z=              0.0009  Tot=              4.0694

 Test job not archived.
 1\1\GINC-SE333\SP\RHF\Aug-CC-pVDZ\C6H6O1S1\OHZDE\09-Apr-2025\0\\#t hf
 aug-cc-pvdz iop(5/13=1,5/36=2,99/5=2) pseudo=read geom=check guess=(re
 ad,tcheck) scf=(maxcycle=1)\\title\\0,1\O,0,21.6404,-3.9858,0.\C,0,20.
 8734,-6.2627,0.0009\H,0,20.9819,-6.8966,-0.8844\H,0,19.8879,-5.7958,0.
 0012\H,0,20.9828,-6.8965,0.886\C,0,21.93,-5.1769,0.0002\C,0,23.8557,-6
 .9098,0.\H,0,23.2314,-7.7968,-0.0001\C,0,25.2687,-6.9305,0.\H,0,25.873
 8,-7.8303,0.0002\C,0,25.8042,-5.6516,0.0001\H,0,26.8508,-5.3733,0.0001
 \S,0,24.5992,-4.4407,-0.0001\C,0,23.3404,-5.6154,-0.0002\\Version=ES64

 Normal termination of Gaussian 16 at Wed Apr  9 02:21:23 2025.
