 Gaussian 16, Revision C.01,

 ----------------------------------------------------------------------
 #t hf aug-cc-pvdz symm=none int=(grid=ultrafine) guess=(read,tcheck) s
 table=(opt,rrhf)
 ----------------------------------------------------------------------
 -----
 title
 -----
 Symbolic Z-matrix:
 Charge =  0 Multiplicity = 1

 SCF Done:  E(RHF) =  -774.176407573     A.U. after   16 cycles
 Normal termination of Gaussian 16 at Wed Apr  9 02:25:31 2025.
 Gaussian 16:  ES64L-G16RevC.01  3-Jul-2019

 ----------------------------------------------------------------------
 #t hf aug-cc-pvdz iop(5/13=1,5/36=2,99/5=2) pseudo=read geom=check gue
 ss=(read,tcheck) scf=(maxcycle=1)
 ----------------------------------------------------------------------
 -----
 title
 -----
 Structure from the checkpoint file:  "DCONF_42_-120_mol1.chk"
 Charge =  0 Multiplicity = 1

                         Standard orientation:
 ---------------------------------------------------------------------
 Center     Atomic      Atomic             Coordinates (Angstroms)
 Number     Number       Type             X           Y           Z
 ---------------------------------------------------------------------
      1          6           0       -1.990194   -0.151195    0.106600
      2          7           0       -0.991187    0.559202   -0.568777
      3          1           0       -1.221686    1.515864   -0.813775
      4          7           0        1.092350    1.437987    0.171386
      5          6           0        2.380972    1.024129    0.390351
      6          1           0        3.119007    1.739806    0.732214
      7          6           0        2.622164   -0.314479    0.170023
      8          1           0        3.540788   -0.865536    0.318348
      9         16           0        1.184675   -1.093025   -0.346556
     10          6           0        0.363836    0.418351   -0.234942
     11          8           0       -1.762534   -1.188473    0.701484
     12          6           0       -3.361609    0.477297   -0.008005
     13          1           0       -3.522865    0.910567   -0.998250
     14          1           0       -3.451973    1.272345    0.738990
     15          1           0       -4.116949   -0.281787    0.193066
 ---------------------------------------------------------------------

 SCF Done:  E(RHF) =  -774.612781049     A.U. after    2 cycles

 The electronic state is 1-A.
 Alpha  occ. eigenvalues --  -93.99199 -20.53385 -15.55700 -15.51305 -11.38365
 Alpha  occ. eigenvalues --  -11.35604 -11.27947 -11.27169 -11.26411  -8.27438
 Alpha  occ. eigenvalues --   -6.25180  -6.25091  -6.24870  -1.47901  -1.31479
 Alpha  occ. eigenvalues --   -1.24333  -1.09979  -1.04888  -0.99336  -0.87293
 Alpha  occ. eigenvalues --   -0.82426  -0.80332  -0.72597  -0.70304  -0.66514
 Alpha  occ. eigenvalues --   -0.65196  -0.62028  -0.60226  -0.58549  -0.58452
 Alpha  occ. eigenvalues --   -0.54606  -0.52101  -0.48099  -0.46813  -0.44868
 Alpha  occ. eigenvalues --   -0.40940  -0.33888
 Alpha virt. eigenvalues --    0.03035   0.03991   0.04651   0.04795   0.04947
 Alpha virt. eigenvalues --    0.06653   0.08269   0.08913   0.09232   0.10546
 Alpha virt. eigenvalues --    0.10957   0.11779   0.12335   0.12714   0.13538

 Mulliken charges:
               1
     1  C    1.106633
     2  N    0.763878
     3  H    0.181631
     4  N    0.903996
     5  C   -0.107958
     6  H   -0.109863
     7  C   -0.027705
     8  H   -0.144671
     9  S    0.821777
    10  C   -2.309089
    11  O   -1.262625
    12  C   -0.469198
    13  H    0.212064
    14  H    0.275634
    15  H    0.165496
 Sum of Mulliken charges =  -0.00000

 Dipole moment (field-independent basis, Debye):
    X=             -0.7084    Y=              1.2611    Z=             -1.2272  Tot=              1.8969

 Test job not archived.
 1\1\GINC-SE402\SP\RHF\Aug-CC-pVDZ\C5H6N2O1S1\OHZDE\09-Apr-2025\0\\#t h
 f aug-cc-pvdz iop(5/13=1,5/36=2,99/5=2) pseudo=read geom=check guess=(
 read,tcheck) scf=(maxcycle=1)\\title\\0,1\C,0,28.8808,-16.0154,-1.0136
 \N,0,29.3081,-16.8665,0.012\H,0,28.6044,-17.4957,0.3825\N,0,30.7404,-1
 8.7663,-0.0105\C,0,32.0784,-19.0649,0.0086\H,0,32.3924,-20.1018,0.0068
 \C,0,32.9304,-17.982,0.0051\H,0,34.0114,-17.977,-0.0257\S,0,32.0277,-1
 6.5245,-0.0086\C,0,30.5794,-17.4588,-0.0067\O,0,29.6614,-15.42,-1.7332
 \C,0,27.376,-15.8908,-1.1083\H,0,26.9104,-15.8913,-0.1196\H,0,26.9841,

 Normal termination of Gaussian 16 at Wed Apr  9 02:25:38 2025.
