 Gaussian 16, Revision C.01,

 ----------------------------------------------------------------------
 #t hf aug-cc-pvdz symm=none int=(grid=ultrafine) guess=(read,tcheck) s
 table=(opt,rrhf)
 ----------------------------------------------------------------------
 -----
 title
 -----
 Symbolic Z-matrix:
 Charge =  0 Multiplicity = 1

 SCF Done:  E(RHF) =  -575.156931178     A.U. after   15 cycles
 Normal termination of Gaussian 16 at Wed Apr  9 02:30:17 2025.
 Gaussian 16:  ES64L-G16RevC.01  3-Jul-2019

 ----------------------------------------------------------------------
 #t hf aug-cc-pvdz iop(5/13=1,5/36=2,99/5=2) pseudo=read geom=check gue
 ss=(read,tcheck) scf=(maxcycle=1)
 ----------------------------------------------------------------------
 -----
 title
 -----
 Structure from the checkpoint file:  "DCONF_48_110_mol1.chk"
 Charge =  0 Multiplicity = 1

                         Standard orientation:
 ---------------------------------------------------------------------
 Center     Atomic      Atomic             Coordinates (Angstroms)
 Number     Number       Type             X           Y           Z
 ---------------------------------------------------------------------
      1          6           0       -1.552369    0.594870    1.005919
      2          1           0       -1.011783    1.162444    1.758176
      3          6           0       -2.946969    0.620923    0.938293
      4          1           0       -3.525222    1.214183    1.641363
      5          6           0       -3.577827   -0.131393   -0.056476
      6          1           0       -4.659343   -0.143700   -0.154636
      7          6           0       -2.784324   -0.875747   -0.936286
      8          1           0       -3.242620   -1.469707   -1.724609
      9          7           0       -1.440638   -0.910710   -0.886499
     10          6           0       -0.842598   -0.186392    0.081735
     11          6           0        2.728956   -1.451327    0.394805
     12          1           0        3.247229   -2.374442    0.637533
     13          6           0        1.331413   -1.410047    0.410552
     14          1           0        0.752256   -2.297469    0.653507
     15          6           0        0.640526   -0.225086    0.110945
     16          6           0        1.398527    0.895742   -0.238993
     17          6           0        2.789642    0.882489   -0.268845
     18          1           0        3.324872    1.783759   -0.551721
     19          6           0        3.457060   -0.304385    0.053424
     20          1           0        4.543001   -0.329702    0.034213
     21          9           0        0.755983    2.041303   -0.562085
 ---------------------------------------------------------------------

 SCF Done:  E(RHF) =  -575.728308958     A.U. after    2 cycles

 The electronic state is 1-A.
 Alpha  occ. eigenvalues --  -26.47550 -15.51077 -11.33919 -11.29436 -11.28557
 Alpha  occ. eigenvalues --  -11.27129 -11.25998 -11.25920 -11.25808 -11.25454
 Alpha  occ. eigenvalues --  -11.25312 -11.25266 -11.25031  -1.60424  -1.26050
 Alpha  occ. eigenvalues --   -1.16455  -1.09207  -1.07083  -1.02317  -1.00747
 Alpha  occ. eigenvalues --   -0.89132  -0.87915  -0.85145  -0.83064  -0.75155
 Alpha  occ. eigenvalues --   -0.72452  -0.70358  -0.69363  -0.68214  -0.66937
 Alpha  occ. eigenvalues --   -0.65138  -0.62610  -0.61204  -0.60089  -0.59510
 Alpha  occ. eigenvalues --   -0.56420  -0.55360  -0.53392  -0.51492  -0.51136
 Alpha  occ. eigenvalues --   -0.45798  -0.40522  -0.37132  -0.35002  -0.33942
 Alpha virt. eigenvalues --    0.03256   0.03394   0.03813   0.04035   0.04424
 Alpha virt. eigenvalues --    0.05570   0.06203   0.06437   0.07405   0.08616
 Alpha virt. eigenvalues --    0.09169   0.10220   0.10633   0.11196   0.11444

 Mulliken charges:
               1
     1  C    0.938672
     2  H   -0.254225
     3  C   -0.284693
     4  H   -0.166940
     5  C    0.848467
     6  H   -0.189980
     7  C   -0.811770
     8  H   -0.222721
     9  N    1.538753
    10  C   -2.240709
    11  C   -0.063656
    12  H   -0.216742
    13  C   -0.003702
    14  H   -0.246927
    15  C    1.488141
    16  C    1.275467
    17  C   -0.191738
    18  H   -0.190184
    19  C    0.265312
    20  H   -0.202097
    21  F   -1.068727
 Sum of Mulliken charges =  -0.00000

 Dipole moment (field-independent basis, Debye):
    X=             -0.6530    Y=              0.0874    Z=              1.9482  Tot=              2.0565

 Test job not archived.
 1\1\GINC-SE253\SP\RHF\Aug-CC-pVDZ\C11H8F1N1\OHZDE\09-Apr-2025\0\\#t hf
  aug-cc-pvdz iop(5/13=1,5/36=2,99/5=2) pseudo=read geom=check guess=(r
 ead,tcheck) scf=(maxcycle=1)\\title\\0,1\C,0,21.7793,-33.7343,-1.0773\
 H,0,22.2854,-34.1042,-1.9646\C,0,20.3856,-33.6974,-0.9973\H,0,19.7733,
 -34.0409,-1.8266\C,0,19.8003,-33.2114,0.1752\H,0,18.7214,-33.1641,0.29
 01\C,0,20.6364,-32.7837,1.2124\H,0,20.214,-32.4031,2.1403\N,0,21.9798,
 -32.814,1.1528\C,0,22.534,-33.2785,0.014\C,0,26.175,-32.1844,0.0024\H,
 0,26.7477,-31.2616,0.0133\C,0,24.7775,-32.1391,-0.0019\H,0,24.2526,-31

 Normal termination of Gaussian 16 at Wed Apr  9 02:30:34 2025.
