 Gaussian 16, Revision C.01,

 ----------------------------------------------------------------------
 #t hf aug-cc-pvdz symm=none int=(grid=ultrafine) guess=(read,tcheck) s
 table=(opt,rrhf)
 ----------------------------------------------------------------------
 -----
 title
 -----
 Symbolic Z-matrix:
 Charge =  0 Multiplicity = 1

 SCF Done:  E(RHF) =  -256.181118467     A.U. after   12 cycles
 Normal termination of Gaussian 16 at Wed Apr  9 02:31:23 2025.
 Gaussian 16:  ES64L-G16RevC.01  3-Jul-2019

 ----------------------------------------------------------------------
 #t hf aug-cc-pvdz iop(5/13=1,5/36=2,99/5=2) pseudo=read geom=check gue
 ss=(read,tcheck) scf=(maxcycle=1)
 ----------------------------------------------------------------------
 -----
 title
 -----
 Structure from the checkpoint file:  "DCONF_8_0_mol2.chk"
 Charge =  0 Multiplicity = 1

                         Standard orientation:
 ---------------------------------------------------------------------
 Center     Atomic      Atomic             Coordinates (Angstroms)
 Number     Number       Type             X           Y           Z
 ---------------------------------------------------------------------
      1          6           0        0.025234    0.706270   -0.210257
      2          1           0       -0.009761    0.722177   -1.306231
      3          1           0       -0.289500    1.699841    0.136846
      4          6           0       -0.931936   -0.358964    0.323619
      5          1           0       -0.597196   -1.343202   -0.018188
      6          1           0       -0.879656   -0.368785    1.419751
      7          6           0       -2.373807   -0.115422   -0.121930
      8          1           0       -2.447192   -0.121173   -1.214241
      9          1           0       -3.045412   -0.887012    0.265026
     10          1           0       -2.733580    0.855591    0.234080
     11          6           0        1.458126    0.497473    0.231485
     12          1           0        2.124254    1.262077   -0.177615
     13          1           0        1.538760    0.490052    1.323255
     14          9           0        1.919286   -0.742857   -0.222242
 ---------------------------------------------------------------------

 SCF Done:  E(RHF) =  -256.450318007     A.U. after    2 cycles

 The electronic state is 1-A.
 Alpha  occ. eigenvalues --  -26.43576 -11.31442 -11.23665 -11.23024 -11.22599
 Alpha  occ. eigenvalues --   -1.55570  -1.08248  -0.98830  -0.87332  -0.80344
 Alpha  occ. eigenvalues --   -0.68983  -0.68196  -0.64629  -0.62656  -0.57924
 Alpha  occ. eigenvalues --   -0.55204  -0.54065  -0.51309  -0.48469  -0.48023
 Alpha  occ. eigenvalues --   -0.47392
 Alpha virt. eigenvalues --    0.03573   0.03843   0.03984   0.04828   0.06311
 Alpha virt. eigenvalues --    0.06641   0.07192   0.07991   0.09632   0.11510
 Alpha virt. eigenvalues --    0.12852   0.13568   0.14875   0.16097   0.16348

 Mulliken charges:
               1
     1  C   -0.457303
     2  H    0.113537
     3  H    0.164840
     4  C   -0.302236
     5  H    0.153848
     6  H    0.112121
     7  C   -0.393934
     8  H    0.176007
     9  H    0.120864
    10  H    0.163724
    11  C    0.690343
    12  H    0.082088
    13  H    0.107998
    14  F   -0.731897
 Sum of Mulliken charges =  -0.00000

 Dipole moment (field-independent basis, Debye):
    X=             -0.8804    Y=              1.5662    Z=              0.5493  Tot=              1.8788

 Test job not archived.
 1\1\GINC-SE364\SP\RHF\Aug-CC-pVDZ\C4H9F1\OHZDE\09-Apr-2025\0\\#t hf au
 g-cc-pvdz iop(5/13=1,5/36=2,99/5=2) pseudo=read geom=check guess=(read
 ,tcheck) scf=(maxcycle=1)\\title\\0,1\C,0,0.0289,-0.0333,-0.006\H,0,0.
 0458,-0.6807,0.879\H,0,0.0325,-0.6904,-0.8863\C,0,-1.2384,0.821,0.0007
 \H,0,-1.2203,1.4796,0.8745\H,0,-1.237,1.4687,-0.8852\C,0,-2.5084,-0.02
 97,0.0158\H,0,-2.5349,-0.6692,0.904\H,0,-3.4058,0.5954,0.0237\H,0,-2.5
 55,-0.6771,-0.8661\C,0,1.3016,0.7859,-0.0385\H,0,2.1925,0.152,-0.0252\
 H,0,1.3308,1.4373,-0.9179\F,0,1.3626,1.6139,1.0874\\Version=ES64L-G16R

 Normal termination of Gaussian 16 at Wed Apr  9 02:31:26 2025.
