 Gaussian 16, Revision C.01,

 ----------------------------------------------------------------------
 #t hf aug-cc-pvdz symm=none int=(grid=ultrafine) guess=(read,tcheck) s
 table=(opt,rrhf)
 ----------------------------------------------------------------------
 -----
 title
 -----
 Symbolic Z-matrix:
 Charge =  0 Multiplicity = 1

 SCF Done:  E(RHF) =  -758.165794307     A.U. after   16 cycles
 Normal termination of Gaussian 16 at Wed Apr  9 02:25:08 2025.
 Gaussian 16:  ES64L-G16RevC.01  3-Jul-2019

 ----------------------------------------------------------------------
 #t hf aug-cc-pvdz iop(5/13=1,5/36=2,99/5=2) pseudo=read geom=check gue
 ss=(read,tcheck) scf=(maxcycle=1)
 ----------------------------------------------------------------------
 -----
 title
 -----
 Structure from the checkpoint file:  "DCONF_38_-130_mol1.chk"
 Charge =  0 Multiplicity = 1

                         Standard orientation:
 ---------------------------------------------------------------------
 Center     Atomic      Atomic             Coordinates (Angstroms)
 Number     Number       Type             X           Y           Z
 ---------------------------------------------------------------------
      1          6           0       -2.148051    0.110151    0.005255
      2          7           0       -1.022738    0.789873   -0.442155
      3          1           0       -1.199268    1.378942   -1.248992
      4          6           0        1.268795    1.372604    0.327097
      5          1           0        1.021405    2.393972    0.596096
      6          6           0        2.557755    0.788921    0.419805
      7          1           0        3.439513    1.302840    0.785193
      8          6           0        2.568360   -0.533784    0.016663
      9          1           0        3.398715   -1.227883    0.029500
     10         16           0        1.022399   -1.055579   -0.507223
     11          6           0        0.312343    0.482692   -0.132227
     12          8           0       -3.237163    0.310647   -0.509372
     13          6           0       -1.937255   -0.840443    1.163964
     14          1           0       -1.143443   -0.501515    1.832743
     15          1           0       -2.882347   -0.921303    1.701605
     16          1           0       -1.668170   -1.830920    0.786148
 ---------------------------------------------------------------------

 SCF Done:  E(RHF) =  -758.590025519     A.U. after    2 cycles

 The electronic state is 1-A.
 Alpha  occ. eigenvalues --  -93.99280 -20.51696 -15.54465 -11.36930 -11.32073
 Alpha  occ. eigenvalues --  -11.28605 -11.26294 -11.26190 -11.24860  -8.27510
 Alpha  occ. eigenvalues --   -6.25270  -6.25179  -6.24966  -1.46159  -1.26837
 Alpha  occ. eigenvalues --   -1.18607  -1.02814  -1.01806  -0.99194  -0.85323
 Alpha  occ. eigenvalues --   -0.79741  -0.78552  -0.73462  -0.68674  -0.64977
 Alpha  occ. eigenvalues --   -0.63784  -0.59722  -0.59048  -0.57935  -0.57181
 Alpha  occ. eigenvalues --   -0.54799  -0.52925  -0.50057  -0.44107  -0.42832
 Alpha  occ. eigenvalues --   -0.37136  -0.34074
 Alpha virt. eigenvalues --    0.03044   0.03432   0.04042   0.04626   0.05663
 Alpha virt. eigenvalues --    0.05765   0.06650   0.08122   0.09011   0.09617
 Alpha virt. eigenvalues --    0.11119   0.11707   0.12533   0.13120   0.13347

 Mulliken charges:
               1
     1  C    0.863016
     2  N    1.076552
     3  H    0.146783
     4  C    0.304429
     5  H   -0.176397
     6  C    0.507972
     7  H   -0.104401
     8  C   -0.647871
     9  H   -0.130884
    10  S    0.849515
    11  C   -1.594189
    12  O   -1.342146
    13  C   -0.410275
    14  H    0.276474
    15  H    0.086519
    16  H    0.294903
 Sum of Mulliken charges =  -0.00000

 Dipole moment (field-independent basis, Debye):
    X=              3.9171    Y=             -0.0318    Z=              1.3476  Tot=              4.1426

 Test job not archived.
 1\1\GINC-SE455\SP\RHF\Aug-CC-pVDZ\C6H7N1O1S1\OHZDE\09-Apr-2025\0\\#t h
 f aug-cc-pvdz iop(5/13=1,5/36=2,99/5=2) pseudo=read geom=check guess=(
 read,tcheck) scf=(maxcycle=1)\\title\\0,1\C,0,28.869,-3.8014,-0.8047\N
 ,0,29.4363,-4.7347,0.053\H,0,28.9443,-4.8257,0.9355\C,0,31.0776,-6.601
 8,0.0028\H,0,30.3283,-7.3861,-0.0105\C,0,32.4803,-6.8075,0.0314\H,0,32
 .9582,-7.7805,0.0301\C,0,33.188,-5.6195,0.032\H,0,34.2613,-5.483,0.003
 3\S,0,32.1498,-4.2561,0.0337\C,0,30.7361,-5.2602,-0.032\O,0,27.8271,-3
 .2392,-0.5054\C,0,29.5959,-3.5667,-2.1113\H,0,30.1038,-4.4663,-2.4649\

 Normal termination of Gaussian 16 at Wed Apr  9 02:25:15 2025.
