 Gaussian 16, Revision C.01,

 ----------------------------------------------------------------------
 #t hf aug-cc-pvdz symm=none int=(grid=ultrafine) guess=(read,tcheck) s
 table=(opt,rrhf)
 ----------------------------------------------------------------------
 -----
 title
 -----
 Symbolic Z-matrix:
 Charge =  0 Multiplicity = 1

 SCF Done:  E(RHF) =  -575.154600528     A.U. after   15 cycles
 Normal termination of Gaussian 16 at Wed Apr  9 02:29:46 2025.
 Gaussian 16:  ES64L-G16RevC.01  3-Jul-2019

 ----------------------------------------------------------------------
 #t hf aug-cc-pvdz iop(5/13=1,5/36=2,99/5=2) pseudo=read geom=check gue
 ss=(read,tcheck) scf=(maxcycle=1)
 ----------------------------------------------------------------------
 -----
 title
 -----
 Structure from the checkpoint file:  "DCONF_48_-30_mol1.chk"
 Charge =  0 Multiplicity = 1

                         Standard orientation:
 ---------------------------------------------------------------------
 Center     Atomic      Atomic             Coordinates (Angstroms)
 Number     Number       Type             X           Y           Z
 ---------------------------------------------------------------------
      1          6           0        1.612113   -1.234814    0.480790
      2          1           0        1.115160   -2.096482    0.916594
      3          6           0        3.005365   -1.166485    0.434298
      4          1           0        3.611199   -1.983664    0.816509
      5          6           0        3.599200   -0.014840   -0.088887
      6          1           0        4.678629    0.091536   -0.142383
      7          6           0        2.765184    1.015283   -0.537493
      8          1           0        3.190973    1.932525   -0.940184
      9          7           0        1.423943    0.964031   -0.505894
     10          6           0        0.854748   -0.161808   -0.024881
     11          6           0       -2.678201   -1.527268   -0.298037
     12          1           0       -3.153026   -2.481133   -0.509305
     13          6           0       -1.285023   -1.436759   -0.257208
     14          1           0       -0.685460   -2.322812   -0.449479
     15          6           0       -0.625259   -0.220480    0.011871
     16          6           0       -1.436563    0.914632    0.176215
     17          6           0       -2.827478    0.847491    0.135895
     18          1           0       -3.395962    1.759484    0.291128
     19          6           0       -3.453558   -0.376346   -0.116987
     20          1           0       -4.537966   -0.429109   -0.155999
     21          9           0       -0.886035    2.105535    0.468991
 ---------------------------------------------------------------------

 SCF Done:  E(RHF) =  -575.726003754     A.U. after    2 cycles

 The electronic state is 1-A.
 Alpha  occ. eigenvalues --  -26.46716 -15.50674 -11.34011 -11.29650 -11.28450
 Alpha  occ. eigenvalues --  -11.27134 -11.26231 -11.26108 -11.26090 -11.25355
 Alpha  occ. eigenvalues --  -11.25274 -11.25208 -11.25122  -1.59926  -1.25900
 Alpha  occ. eigenvalues --   -1.16488  -1.09206  -1.07246  -1.02219  -1.00716
 Alpha  occ. eigenvalues --   -0.89402  -0.88126  -0.84617  -0.83052  -0.75100
 Alpha  occ. eigenvalues --   -0.72321  -0.70981  -0.68517  -0.67830  -0.66415
 Alpha  occ. eigenvalues --   -0.65538  -0.62261  -0.61506  -0.59711  -0.59019
 Alpha  occ. eigenvalues --   -0.56782  -0.55348  -0.53331  -0.51987  -0.51132
 Alpha  occ. eigenvalues --   -0.45306  -0.40697  -0.38815  -0.34927  -0.32379
 Alpha virt. eigenvalues --    0.03080   0.03237   0.03633   0.04214   0.04756
 Alpha virt. eigenvalues --    0.05190   0.06090   0.06461   0.06816   0.08437
 Alpha virt. eigenvalues --    0.09219   0.10103   0.10537   0.11245   0.11479

 Mulliken charges:
               1
     1  C    1.231357
     2  H   -0.239401
     3  C   -0.381285
     4  H   -0.173949
     5  C    0.850842
     6  H   -0.185368
     7  C   -0.901961
     8  H   -0.221965
     9  N    1.708774
    10  C   -2.880542
    11  C   -0.041737
    12  H   -0.225573
    13  C    0.077842
    14  H   -0.280512
    15  C    1.703328
    16  C    1.262870
    17  C   -0.028113
    18  H   -0.218369
    19  C    0.228173
    20  H   -0.196812
    21  F   -1.087597
 Sum of Mulliken charges =  -0.00000

 Dipole moment (field-independent basis, Debye):
    X=              0.6644    Y=             -2.9945    Z=              0.4759  Tot=              3.1040

 Test job not archived.
 1\1\GINC-SE412\SP\RHF\Aug-CC-pVDZ\C11H8F1N1\OHZDE\09-Apr-2025\0\\#t hf
  aug-cc-pvdz iop(5/13=1,5/36=2,99/5=2) pseudo=read geom=check guess=(r
 ead,tcheck) scf=(maxcycle=1)\\title\\0,1\C,0,21.8504,-32.2099,0.65\H,0
 ,22.4083,-31.5003,1.2538\C,0,20.4592,-32.1336,0.568\H,0,19.9174,-31.35
 1,1.0923\C,0,19.7815,-33.1002,-0.1797\H,0,18.6994,-33.0899,-0.2708\C,0
 ,20.5333,-34.0999,-0.8069\H,0,20.04,-34.877,-1.3879\N,0,21.8717,-34.18
 5,-0.7437\C,0,22.524,-33.2331,-0.0428\C,0,26.1741,-32.187,0.0144\H,0,2
 6.741,-31.2605,0.0013\C,0,24.7779,-32.1492,0.0137\H,0,24.2687,-31.1892

 Normal termination of Gaussian 16 at Wed Apr  9 02:30:02 2025.
