 Gaussian 16, Revision C.01,

 ----------------------------------------------------------------------
 #t hf aug-cc-pvdz symm=none int=(grid=ultrafine) guess=(read,tcheck) s
 table=(opt,rrhf)
 ----------------------------------------------------------------------
 -----
 title
 -----
 Symbolic Z-matrix:
 Charge =  0 Multiplicity = 1

 SCF Done:  E(RHF) =  -1153.54306508     A.U. after   16 cycles
 Normal termination of Gaussian 16 at Wed Apr  9 02:24:04 2025.
 Gaussian 16:  ES64L-G16RevC.01  3-Jul-2019

 ----------------------------------------------------------------------
 #t hf aug-cc-pvdz iop(5/13=1,5/36=2,99/5=2) pseudo=read geom=check gue
 ss=(read,tcheck) scf=(maxcycle=1)
 ----------------------------------------------------------------------
 -----
 title
 -----
 Structure from the checkpoint file:  "DCONF_29_160_mol1.chk"
 Charge =  0 Multiplicity = 1

                         Standard orientation:
 ---------------------------------------------------------------------
 Center     Atomic      Atomic             Coordinates (Angstroms)
 Number     Number       Type             X           Y           Z
 ---------------------------------------------------------------------
      1          6           0       -2.748690    0.188928    0.014411
      2          1           0       -3.745465    0.608959    0.039437
      3          6           0       -2.371813   -1.139174   -0.057010
      4          1           0       -3.059943   -1.975631   -0.084480
      5          7           0       -1.027310   -1.371171   -0.100260
      6          6           0       -0.379941   -0.225079   -0.076327
      7         16           0       -1.362729    1.190147    0.037489
      8         16           0        1.411001   -0.205027    0.066293
      9          6           0        1.826727    1.420508   -0.537520
     10          1           0        1.397008    2.182930    0.113245
     11          1           0        2.917080    1.468298   -0.489147
     12          1           0        1.493327    1.522088   -1.570694
     13          8           0        1.739687   -0.244511    1.484743
     14          8           0        1.942701   -1.185672   -0.863289
 ---------------------------------------------------------------------

 SCF Done:  E(RHF) =  -1154.02167779     A.U. after    2 cycles

 The electronic state is 1-A.
 Alpha  occ. eigenvalues --  -94.21013 -94.03032 -20.54402 -20.54380 -15.55224
 Alpha  occ. eigenvalues --  -11.35653 -11.30936 -11.30742 -11.29960  -8.46221
 Alpha  occ. eigenvalues --   -8.31249  -6.44321  -6.44137  -6.44085  -6.28997
 Alpha  occ. eigenvalues --   -6.28912  -6.28697  -1.55904  -1.44022  -1.32301
 Alpha  occ. eigenvalues --   -1.13414  -1.09917  -1.03971  -0.92061  -0.85210
 Alpha  occ. eigenvalues --   -0.78607  -0.75009  -0.68452  -0.67935  -0.67414
 Alpha  occ. eigenvalues --   -0.62910  -0.62561  -0.61458  -0.60696  -0.55247
 Alpha  occ. eigenvalues --   -0.52432  -0.49930  -0.48983  -0.46908  -0.45266
 Alpha  occ. eigenvalues --   -0.44268  -0.37739
 Alpha virt. eigenvalues --    0.02504   0.03289   0.04062   0.04266   0.05015
 Alpha virt. eigenvalues --    0.05378   0.08299   0.09239   0.10092   0.10576
 Alpha virt. eigenvalues --    0.11049   0.11381   0.11794   0.12845   0.13390

 Mulliken charges:
               1
     1  C   -0.187121
     2  H   -0.133130
     3  C   -0.020883
     4  H   -0.082957
     5  N    0.840989
     6  C   -1.721490
     7  S    0.729265
     8  S    3.571118
     9  C   -0.680527
    10  H    0.314592
    11  H    0.214474
    12  H    0.247784
    13  O   -1.544855
    14  O   -1.547257
 Sum of Mulliken charges =  -0.00000

 Dipole moment (field-independent basis, Debye):
    X=             -3.9803    Y=              5.2788    Z=             -1.4798  Tot=              6.7748

 Test job not archived.
 1\1\GINC-SE092\SP\RHF\Aug-CC-pVDZ\C4H5N1O2S2\OHZDE\09-Apr-2025\0\\#t h
 f aug-cc-pvdz iop(5/13=1,5/36=2,99/5=2) pseudo=read geom=check guess=(
 read,tcheck) scf=(maxcycle=1)\\title\\0,1\C,0,2.013,-24.6349,-0.8673\H
 ,0,0.9604,-24.6572,-1.1166\C,0,2.8231,-25.6717,-0.4433\H,0,2.4897,-26.
 6902,-0.2838\N,0,4.1318,-25.3495,-0.2268\C,0,4.3241,-24.0756,-0.4977\S
 ,0,2.9244,-23.1935,-0.9921\S,0,5.9056,-23.3056,-0.1314\C,0,5.8824,-21.
 8624,-1.1785\H,0,5.0712,-21.1969,-0.881\H,0,6.8428,-21.3721,-1.0032\H,
 0,5.8043,-22.1699,-2.2217\O,0,5.8619,-22.847,1.2504\O,0,6.9531,-24.193

 Normal termination of Gaussian 16 at Wed Apr  9 02:24:11 2025.
