 Gaussian 16, Revision C.01,

 ----------------------------------------------------------------------
 #t hf aug-cc-pvdz symm=none int=(grid=ultrafine) guess=(read,tcheck) s
 table=(opt,rrhf)
 ----------------------------------------------------------------------
 -----
 title
 -----
 Symbolic Z-matrix:
 Charge =  0 Multiplicity = 1

 SCF Done:  E(RHF) =  -812.905918479     A.U. after   16 cycles
 Normal termination of Gaussian 16 at Wed Apr  9 02:31:38 2025.
 Gaussian 16:  ES64L-G16RevC.01  3-Jul-2019

 ----------------------------------------------------------------------
 #t hf aug-cc-pvdz iop(5/13=1,5/36=2,99/5=2) pseudo=read geom=check gue
 ss=(read,tcheck) scf=(maxcycle=1)
 ----------------------------------------------------------------------
 -----
 title
 -----
 Structure from the checkpoint file:  "DCONF_56_0_mol2.chk"
 Charge =  0 Multiplicity = 1

                         Standard orientation:
 ---------------------------------------------------------------------
 Center     Atomic      Atomic             Coordinates (Angstroms)
 Number     Number       Type             X           Y           Z
 ---------------------------------------------------------------------
      1          6           0       -1.485517    1.288355    0.000515
      2          1           0       -1.007823    2.262877    0.000737
      3          6           0       -2.871500    1.136202    0.000244
      4          1           0       -3.520668    2.007620    0.000175
      5          6           0       -3.409728   -0.156079   -0.000129
      6          1           0       -4.482925   -0.321425   -0.000337
      7          6           0       -2.530173   -1.243885   -0.000125
      8          1           0       -2.911098   -2.263174   -0.000166
      9          7           0       -1.193308   -1.120054   -0.000053
     10          6           0       -0.688816    0.130756    0.000316
     11          7           0        1.438982    1.380317   -0.000699
     12          6           0        2.783461    1.145516   -0.000093
     13          1           0        3.474868    1.980460   -0.000020
     14          6           0        3.152362   -0.186969    0.000624
     15          1           0        4.151219   -0.603326    0.001136
     16         16           0        1.764580   -1.185631    0.000001
     17          6           0        0.773815    0.233643   -0.000731
 ---------------------------------------------------------------------

 SCF Done:  E(RHF) =  -813.379684509     A.U. after    2 cycles

 The electronic state is 1-A.
 Alpha  occ. eigenvalues --  -93.98940 -15.51930 -15.51453 -11.31773 -11.30249
 Alpha  occ. eigenvalues --  -11.29219 -11.27726 -11.27588 -11.27332 -11.25975
 Alpha  occ. eigenvalues --  -11.25786  -8.27129  -6.24867  -6.24779  -6.24576
 Alpha  occ. eigenvalues --   -1.29236  -1.26267  -1.10071  -1.09190  -1.07275
 Alpha  occ. eigenvalues --   -1.00015  -0.89345  -0.88633  -0.81800  -0.78493
 Alpha  occ. eigenvalues --   -0.73017  -0.70285  -0.68836  -0.65481  -0.61565
 Alpha  occ. eigenvalues --   -0.60841  -0.60224  -0.57981  -0.55801  -0.54701
 Alpha  occ. eigenvalues --   -0.51715  -0.48240  -0.45754  -0.41453  -0.41282
 Alpha  occ. eigenvalues --   -0.38694  -0.31822
 Alpha virt. eigenvalues --    0.03099   0.03699   0.03723   0.03898   0.04369
 Alpha virt. eigenvalues --    0.05002   0.07119   0.07898   0.08553   0.09438
 Alpha virt. eigenvalues --    0.10581   0.10883   0.11166   0.11402   0.12615

 Mulliken charges:
               1
     1  C    1.193455
     2  H   -0.249238
     3  C   -0.141201
     4  H   -0.166823
     5  C    0.784722
     6  H   -0.188474
     7  C   -0.928240
     8  H   -0.213391
     9  N    1.675804
    10  C   -1.165248
    11  N    1.481445
    12  C   -0.227728
    13  H   -0.163886
    14  C    0.003149
    15  H   -0.166758
    16  S    0.661885
    17  C   -2.189472
 Sum of Mulliken charges =   0.00000

 Dipole moment (field-independent basis, Debye):
    X=             -1.3281    Y=              0.2543    Z=              0.0014  Tot=              1.3522

 Test job not archived.
 1\1\GINC-SE365\SP\RHF\Aug-CC-pVDZ\C8H6N2S1\OHZDE\09-Apr-2025\0\\#t hf
 aug-cc-pvdz iop(5/13=1,5/36=2,99/5=2) pseudo=read geom=check guess=(re
 ad,tcheck) scf=(maxcycle=1)\\title\\0,1\C,0,30.1268,-21.0878,0.0003\H,
 0,30.7114,-20.1734,0.0004\C,0,28.7325,-21.0826,-0.0001\H,0,28.1858,-20
 .1435,-0.0004\C,0,28.0519,-22.3059,-0.0003\H,0,26.9669,-22.3491,-0.000
 6\C,0,28.8031,-23.486,0.\H,0,28.3096,-24.4558,0.0001\N,0,30.1454,-23.5
 138,0.0002\C,0,30.7878,-22.3279,0.0004\N,0,33.043,-21.3264,-0.0006\C,0
 ,34.3524,-21.7114,0.0002\H,0,35.1336,-20.9598,0.0002\C,0,34.5686,-23.0

 Normal termination of Gaussian 16 at Wed Apr  9 02:31:47 2025.
