 Gaussian 16, Revision C.01,

 ----------------------------------------------------------------------
 #t hf aug-cc-pvdz symm=none int=(grid=ultrafine) guess=(read,tcheck) s
 table=(opt,rrhf)
 ----------------------------------------------------------------------
 -----
 title
 -----
 Symbolic Z-matrix:
 Charge =  0 Multiplicity = 1

 SCF Done:  E(RHF) =  -719.121627731     A.U. after   16 cycles
 Normal termination of Gaussian 16 at Wed Apr  9 02:22:15 2025.
 Gaussian 16:  ES64L-G16RevC.01  3-Jul-2019

 ----------------------------------------------------------------------
 #t hf aug-cc-pvdz iop(5/13=1,5/36=2,99/5=2) pseudo=read geom=check gue
 ss=(read,tcheck) scf=(maxcycle=1)
 ----------------------------------------------------------------------
 -----
 title
 -----
 Structure from the checkpoint file:  "DCONF_28_-100_mol2.chk"
 Charge =  0 Multiplicity = 1

                         Standard orientation:
 ---------------------------------------------------------------------
 Center     Atomic      Atomic             Coordinates (Angstroms)
 Number     Number       Type             X           Y           Z
 ---------------------------------------------------------------------
      1          8           0        1.961703   -1.336326   -0.000200
      2          6           0        2.509172    1.013518    0.000600
      3          1           0        2.317214    1.634829   -0.878200
      4          1           0        3.539846    0.657217    0.001100
      5          1           0        2.316310    1.634877    0.879200
      6          6           0        1.579180   -0.172854    0.000000
      7          7           0       -0.386655    1.356582   -0.000100
      8          6           0       -1.745955    1.295066    0.000000
      9          1           0       -2.327783    2.209731    0.000000
     10          6           0       -2.282309    0.016979   -0.000100
     11          1           0       -3.326445   -0.267616    0.000000
     12         16           0       -1.038294   -1.148322   -0.000100
     13          6           0        0.124333    0.130397   -0.000200
 ---------------------------------------------------------------------

 SCF Done:  E(RHF) =  -719.500998825     A.U. after    2 cycles

 The electronic state is 1-A.
 Alpha  occ. eigenvalues --  -94.00793 -20.55212 -15.53904 -11.36228 -11.32596
 Alpha  occ. eigenvalues --  -11.29521 -11.29239 -11.24923  -8.28979  -6.26711
 Alpha  occ. eigenvalues --   -6.26627  -6.26432  -1.47807  -1.30441  -1.11386
 Alpha  occ. eigenvalues --   -1.06238  -1.00810  -0.87565  -0.83240  -0.74954
 Alpha  occ. eigenvalues --   -0.71445  -0.65764  -0.63948  -0.62901  -0.59990
 Alpha  occ. eigenvalues --   -0.58547  -0.55945  -0.53398  -0.50859  -0.49813
 Alpha  occ. eigenvalues --   -0.43328  -0.42584  -0.35867
 Alpha virt. eigenvalues --    0.03007   0.03357   0.03973   0.04388   0.05776
 Alpha virt. eigenvalues --    0.06039   0.07364   0.08996   0.10368   0.11071
 Alpha virt. eigenvalues --    0.11204   0.11863   0.12794   0.12855   0.13518

 Mulliken charges:
               1
     1  O   -1.391209
     2  C   -0.406426
     3  H    0.301342
     4  H    0.114632
     5  H    0.301229
     6  C    1.527767
     7  N    1.093592
     8  C   -0.156181
     9  H   -0.107969
    10  C   -0.082177
    11  H   -0.137687
    12  S    0.682459
    13  C   -1.739373
 Sum of Mulliken charges =  -0.00000

 Dipole moment (field-independent basis, Debye):
    X=             -2.2698    Y=              1.2263    Z=              0.0008  Tot=              2.5799

 Test job not archived.
 1\1\GINC-SE273\SP\RHF\Aug-CC-pVDZ\C5H5N1O1S1\OHZDE\09-Apr-2025\0\\#t h
 f aug-cc-pvdz iop(5/13=1,5/36=2,99/5=2) pseudo=read geom=check guess=(
 read,tcheck) scf=(maxcycle=1)\\title\\0,1\O,0,21.7654,-16.5574,-0.0001
 \C,0,21.0855,-18.8724,0.0007\H,0,21.2419,-19.5036,-0.8781\H,0,20.0767,
 -18.4582,0.0012\H,0,21.2428,-19.5037,0.8793\C,0,22.0813,-17.7407,0.000
 1\N,0,23.9572,-19.3792,0.\C,0,25.3178,-19.3949,0.0001\H,0,25.8468,-20.
 3411,0.0001\C,0,25.9258,-18.1493,0.\H,0,26.9844,-17.9244,0.0001\S,0,24
 .7499,-16.9153,0.\C,0,23.5166,-18.126,-0.0001\\Version=ES64L-G16RevC.0

 Normal termination of Gaussian 16 at Wed Apr  9 02:22:20 2025.
