 Gaussian 16, Revision C.01,

 ----------------------------------------------------------------------
 #t hf aug-cc-pvdz symm=none int=(grid=ultrafine) guess=(read,tcheck) s
 table=(opt,rrhf)
 ----------------------------------------------------------------------
 -----
 title
 -----
 Symbolic Z-matrix:
 Charge =  0 Multiplicity = 1

 SCF Done:  E(RHF) =  -796.896755434     A.U. after   15 cycles
 Normal termination of Gaussian 16 at Wed Apr  9 02:29:02 2025.
 Gaussian 16:  ES64L-G16RevC.01  3-Jul-2019

 ----------------------------------------------------------------------
 #t hf aug-cc-pvdz iop(5/13=1,5/36=2,99/5=2) pseudo=read geom=check gue
 ss=(read,tcheck) scf=(maxcycle=1)
 ----------------------------------------------------------------------
 -----
 title
 -----
 Structure from the checkpoint file:  "DCONF_52_-140_mol1.chk"
 Charge =  0 Multiplicity = 1

                         Standard orientation:
 ---------------------------------------------------------------------
 Center     Atomic      Atomic             Coordinates (Angstroms)
 Number     Number       Type             X           Y           Z
 ---------------------------------------------------------------------
      1          6           0       -1.498483    1.204775   -0.394562
      2          1           0       -1.025392    2.121113   -0.736183
      3          6           0       -2.887268    1.083647   -0.344312
      4          1           0       -3.524869    1.914368   -0.634929
      5          6           0       -3.438461   -0.135921    0.061449
      6          1           0       -4.513204   -0.282934    0.109586
      7          6           0       -2.568843   -1.177368    0.402158
      8          1           0       -2.960821   -2.144101    0.712796
      9          7           0       -1.229770   -1.071713    0.385881
     10          6           0       -0.704704    0.110834   -0.004080
     11          6           0        1.522054    1.314625    0.407780
     12          1           0        1.082293    2.251077    0.736016
     13          6           0        2.913398    1.052076    0.358552
     14          1           0        3.684908    1.764269    0.629901
     15          6           0        3.184364   -0.242248   -0.052903
     16          1           0        4.151917   -0.709845   -0.184976
     17         16           0        1.752594   -1.126261   -0.374451
     18          6           0        0.756617    0.224284    0.008891
 ---------------------------------------------------------------------

 SCF Done:  E(RHF) =  -797.357900150     A.U. after    2 cycles

 The electronic state is 1-A.
 Alpha  occ. eigenvalues --  -93.97740 -15.51048 -11.29991 -11.28774 -11.27349
 Alpha  occ. eigenvalues --  -11.27345 -11.27207 -11.25450 -11.25323 -11.25097
 Alpha  occ. eigenvalues --  -11.24801  -8.25915  -6.23677  -6.23577  -6.23375
 Alpha  occ. eigenvalues --   -1.26302  -1.18813  -1.09368  -1.06233  -1.00889
 Alpha  occ. eigenvalues --   -0.97871  -0.88180  -0.87430  -0.77960  -0.76610
 Alpha  occ. eigenvalues --   -0.72544  -0.69639  -0.68634  -0.64510  -0.60363
 Alpha  occ. eigenvalues --   -0.59256  -0.58122  -0.56789  -0.54329  -0.53412
 Alpha  occ. eigenvalues --   -0.52739  -0.48826  -0.45738  -0.40847  -0.37998
 Alpha  occ. eigenvalues --   -0.35370  -0.30924
 Alpha virt. eigenvalues --    0.03118   0.03501   0.03737   0.04288   0.04884
 Alpha virt. eigenvalues --    0.05356   0.06294   0.06632   0.08238   0.09038
 Alpha virt. eigenvalues --    0.09683   0.10715   0.11133   0.11420   0.12214

 Mulliken charges:
               1
     1  C    1.088158
     2  H   -0.229356
     3  C   -0.316780
     4  H   -0.162792
     5  C    0.806202
     6  H   -0.187386
     7  C   -0.853012
     8  H   -0.214889
     9  N    1.596168
    10  C   -2.468508
    11  C    0.346197
    12  H   -0.215578
    13  C    0.241384
    14  H   -0.124113
    15  C   -0.568577
    16  H   -0.152371
    17  S    0.529269
    18  C    0.885984
 Sum of Mulliken charges =  -0.00000

 Dipole moment (field-independent basis, Debye):
    X=             -1.2384    Y=              2.4120    Z=             -0.3685  Tot=              2.7363

 Test job not archived.
 1\1\GINC-SE188\SP\RHF\Aug-CC-pVDZ\C9H7N1S1\OHZDE\09-Apr-2025\0\\#t hf
 aug-cc-pvdz iop(5/13=1,5/36=2,99/5=2) pseudo=read geom=check guess=(re
 ad,tcheck) scf=(maxcycle=1)\\title\\0,1\C,0,30.1869,-8.3577,-0.0205\H,
 0,30.7583,-7.4346,-0.0603\C,0,28.7923,-8.3438,0.0081\H,0,28.2493,-7.40
 24,0.005\C,0,28.1108,-9.565,0.0136\H,0,27.0259,-9.6074,0.0276\C,0,28.8
 619,-10.745,-0.0059\H,0,28.3666,-11.7142,-0.0126\N,0,30.2048,-10.7791,
 -0.0065\C,0,30.8562,-9.5951,-0.0084\C,0,33.1863,-8.8217,0.733\H,0,32.8
 387,-7.9973,1.3475\C,0,34.544,-9.1979,0.5836\H,0,35.3791,-8.6925,1.056

 Normal termination of Gaussian 16 at Wed Apr  9 02:29:14 2025.
