 Gaussian 16, Revision C.01,

 ----------------------------------------------------------------------
 #t hf aug-cc-pvdz symm=none int=(grid=ultrafine) guess=(read,tcheck) s
 table=(opt,rrhf)
 ----------------------------------------------------------------------
 -----
 title
 -----
 Symbolic Z-matrix:
 Charge =  0 Multiplicity = 1

 SCF Done:  E(RHF) =  -256.177006853     A.U. after   12 cycles
 Normal termination of Gaussian 16 at Wed Apr  9 02:31:22 2025.
 Gaussian 16:  ES64L-G16RevC.01  3-Jul-2019

 ----------------------------------------------------------------------
 #t hf aug-cc-pvdz iop(5/13=1,5/36=2,99/5=2) pseudo=read geom=check gue
 ss=(read,tcheck) scf=(maxcycle=1)
 ----------------------------------------------------------------------
 -----
 title
 -----
 Structure from the checkpoint file:  "DCONF_8_100_mol1.chk"
 Charge =  0 Multiplicity = 1

                         Standard orientation:
 ---------------------------------------------------------------------
 Center     Atomic      Atomic             Coordinates (Angstroms)
 Number     Number       Type             X           Y           Z
 ---------------------------------------------------------------------
      1          6           0        0.026957    0.406951   -0.433768
      2          1           0       -0.248666    1.396319   -0.820526
      3          1           0        0.103946   -0.259607   -1.299462
      4          6           0       -1.069290   -0.069215    0.520313
      5          1           0       -1.143806    0.637271    1.355960
      6          1           0       -0.777653   -1.036210    0.948312
      7          6           0       -2.427077   -0.197226   -0.168498
      8          1           0       -2.739784    0.763741   -0.590502
      9          1           0       -3.200806   -0.527014    0.530701
     10          1           0       -2.378277   -0.922772   -0.986566
     11          6           0        1.404473    0.491756    0.213920
     12          1           0        1.340226    0.528789    1.305446
     13          1           0        1.967658    1.357832   -0.142932
     14          9           0        2.162976   -0.636883   -0.121359
 ---------------------------------------------------------------------

 SCF Done:  E(RHF) =  -256.446158138     A.U. after    2 cycles

 The electronic state is 1-A.
 Alpha  occ. eigenvalues --  -26.43472 -11.31437 -11.23610 -11.23485 -11.22805
 Alpha  occ. eigenvalues --   -1.55399  -1.08360  -0.98699  -0.87323  -0.80983
 Alpha  occ. eigenvalues --   -0.68718  -0.67960  -0.64484  -0.62748  -0.58119
 Alpha  occ. eigenvalues --   -0.55568  -0.54087  -0.51387  -0.48783  -0.48112
 Alpha  occ. eigenvalues --   -0.47142
 Alpha virt. eigenvalues --    0.03611   0.03786   0.03877   0.04925   0.06322
 Alpha virt. eigenvalues --    0.06734   0.07167   0.08081   0.09199   0.11961
 Alpha virt. eigenvalues --    0.12798   0.13591   0.14847   0.16006   0.16373

 Mulliken charges:
               1
     1  C   -0.276114
     2  H    0.105819
     3  H    0.157506
     4  C   -0.410735
     5  H    0.137129
     6  H    0.131786
     7  C   -0.391449
     8  H    0.181509
     9  H    0.123732
    10  H    0.169674
    11  C    0.662592
    12  H    0.078895
    13  H    0.060064
    14  F   -0.730408
 Sum of Mulliken charges =  -0.00000

 Dipole moment (field-independent basis, Debye):
    X=             -1.3426    Y=              1.4420    Z=              0.3791  Tot=              2.0064

 Test job not archived.
 1\1\GINC-SE412\SP\RHF\Aug-CC-pVDZ\C4H9F1\OHZDE\09-Apr-2025\0\\#t hf au
 g-cc-pvdz iop(5/13=1,5/36=2,99/5=2) pseudo=read geom=check guess=(read
 ,tcheck) scf=(maxcycle=1)\\title\\0,1\C,0,0.0311,-0.0326,-0.006\H,0,0.
 0318,-0.656,-0.9092\H,0,0.0436,-0.7168,0.8492\C,0,-1.239,0.8192,0.0007
 \H,0,-1.2368,1.4664,-0.8848\H,0,-1.2234,1.4802,0.876\C,0,-2.51,-0.0286
 ,0.0158\H,0,-2.548,-0.6858,-0.8594\H,0,-3.4077,0.5962,0.0084\H,0,-2.54
 33,-0.6588,0.9101\C,0,1.3156,0.7876,0.0337\H,0,1.1474,1.8238,-0.2744\H
 ,0,2.0966,0.3484,-0.5922\F,0,1.826,0.8176,1.3376\\Version=ES64L-G16Rev

 Normal termination of Gaussian 16 at Wed Apr  9 02:31:26 2025.
