 Gaussian 16, Revision C.01,

 ----------------------------------------------------------------------
 #t hf aug-cc-pvdz symm=none int=(grid=ultrafine) guess=(read,tcheck) s
 table=(opt,rrhf)
 ----------------------------------------------------------------------
 -----
 title
 -----
 Symbolic Z-matrix:
 Charge =  0 Multiplicity = 1

 SCF Done:  E(RHF) =  -774.176930270     A.U. after   16 cycles
 Normal termination of Gaussian 16 at Wed Apr  9 02:25:54 2025.
 Gaussian 16:  ES64L-G16RevC.01  3-Jul-2019

 ----------------------------------------------------------------------
 #t hf aug-cc-pvdz iop(5/13=1,5/36=2,99/5=2) pseudo=read geom=check gue
 ss=(read,tcheck) scf=(maxcycle=1)
 ----------------------------------------------------------------------
 -----
 title
 -----
 Structure from the checkpoint file:  "DCONF_42_-20_mol1.chk"
 Charge =  0 Multiplicity = 1

                         Standard orientation:
 ---------------------------------------------------------------------
 Center     Atomic      Atomic             Coordinates (Angstroms)
 Number     Number       Type             X           Y           Z
 ---------------------------------------------------------------------
      1          6           0       -2.197889   -0.129237   -0.012106
      2          7           0       -0.951342   -0.753380   -0.149149
      3          1           0       -1.025713   -1.690784   -0.528004
      4          7           0        0.548621    1.107378   -0.392526
      5          6           0        1.894204    1.360364   -0.270501
      6          1           0        2.262527    2.363025   -0.452048
      7          6           0        2.683542    0.279637    0.043439
      8          1           0        3.759658    0.236761    0.141454
      9         16           0        1.705501   -1.116231    0.254188
     10          6           0        0.307620   -0.160525   -0.151336
     11          8           0       -3.200390   -0.755084   -0.313528
     12          6           0       -2.218739    1.265404    0.557882
     13          1           0       -1.922897    1.983514   -0.209054
     14          1           0       -3.236902    1.468441    0.889792
     15          1           0       -1.514954    1.367562    1.386532
 ---------------------------------------------------------------------

 SCF Done:  E(RHF) =  -774.613629125     A.U. after    2 cycles

 The electronic state is 1-A.
 Alpha  occ. eigenvalues --  -94.00496 -20.52853 -15.55978 -15.51985 -11.37923
 Alpha  occ. eigenvalues --  -11.37419 -11.29329 -11.28308 -11.24596  -8.28769
 Alpha  occ. eigenvalues --   -6.26523  -6.26432  -6.26204  -1.47332  -1.32316
 Alpha  occ. eigenvalues --   -1.24675  -1.11212  -1.03321  -1.01052  -0.88047
 Alpha  occ. eigenvalues --   -0.85162  -0.78599  -0.74290  -0.69262  -0.67321
 Alpha  occ. eigenvalues --   -0.65209  -0.61213  -0.60234  -0.59941  -0.57423
 Alpha  occ. eigenvalues --   -0.54641  -0.53182  -0.48705  -0.46881  -0.43853
 Alpha  occ. eigenvalues --   -0.42915  -0.34570
 Alpha virt. eigenvalues --    0.03063   0.03757   0.04399   0.04914   0.05683
 Alpha virt. eigenvalues --    0.06556   0.07744   0.08085   0.09047   0.09719
 Alpha virt. eigenvalues --    0.10108   0.11690   0.11906   0.12713   0.13499

 Mulliken charges:
               1
     1  C    0.690962
     2  N    0.865916
     3  H    0.217040
     4  N    0.999336
     5  C    0.100861
     6  H   -0.125890
     7  C   -0.085981
     8  H   -0.147673
     9  S    0.700844
    10  C   -2.146003
    11  O   -1.338512
    12  C   -0.439863
    13  H    0.363972
    14  H    0.046803
    15  H    0.298187
 Sum of Mulliken charges =  -0.00000

 Dipole moment (field-independent basis, Debye):
    X=              3.8176    Y=              0.3514    Z=              0.8924  Tot=              3.9362

 Test job not archived.
 1\1\GINC-SE365\SP\RHF\Aug-CC-pVDZ\C5H6N2O1S1\OHZDE\09-Apr-2025\0\\#t h
 f aug-cc-pvdz iop(5/13=1,5/36=2,99/5=2) pseudo=read geom=check guess=(
 read,tcheck) scf=(maxcycle=1)\\title\\0,1\C,0,28.0914,-17.3623,-0.4207
 \N,0,29.3238,-16.8402,-0.0074\H,0,29.2222,-16.0015,0.553\N,0,30.7431,-
 18.7785,0.0037\C,0,32.0879,-19.0627,-0.0114\H,0,32.41,-20.0972,-0.0081
 \C,0,32.9323,-17.9782,0.0094\H,0,34.0129,-17.966,0.0497\S,0,32.0171,-1
 6.5251,-0.009\C,0,30.5602,-17.4784,0.0146\O,0,27.0723,-16.768,-0.1112\
 C,0,28.1129,-18.6026,-1.276\H,0,28.2961,-19.4795,-0.6524\H,0,27.14,-18

 Normal termination of Gaussian 16 at Wed Apr  9 02:26:00 2025.
