 Gaussian 16, Revision C.01,

 ----------------------------------------------------------------------
 #t hf aug-cc-pvdz symm=none int=(grid=ultrafine) guess=(read,tcheck) s
 table=(opt,rrhf)
 ----------------------------------------------------------------------
 -----
 title
 -----
 Symbolic Z-matrix:
 Charge =  0 Multiplicity = 1

 SCF Done:  E(RHF) =  -1153.54613064     A.U. after   16 cycles
 Normal termination of Gaussian 16 at Wed Apr  9 02:23:31 2025.
 Gaussian 16:  ES64L-G16RevC.01  3-Jul-2019

 ----------------------------------------------------------------------
 #t hf aug-cc-pvdz iop(5/13=1,5/36=2,99/5=2) pseudo=read geom=check gue
 ss=(read,tcheck) scf=(maxcycle=1)
 ----------------------------------------------------------------------
 -----
 title
 -----
 Structure from the checkpoint file:  "DCONF_29_-120_mol1.chk"
 Charge =  0 Multiplicity = 1

                         Standard orientation:
 ---------------------------------------------------------------------
 Center     Atomic      Atomic             Coordinates (Angstroms)
 Number     Number       Type             X           Y           Z
 ---------------------------------------------------------------------
      1          6           0        2.744026   -0.174847    0.041104
      2          1           0        3.743626   -0.589700    0.039422
      3          6           0        2.362078    1.153160    0.111056
      4          1           0        3.047006    1.990997    0.168219
      5          7           0        1.016992    1.382716    0.098215
      6          6           0        0.375507    0.232959    0.034803
      7         16           0        1.364738   -1.176985   -0.068378
      8         16           0       -1.405560    0.129170   -0.154588
      9          6           0       -1.898084   -0.755573    1.312782
     10          1           0       -1.610117   -0.174102    2.190038
     11          1           0       -2.984960   -0.848448    1.256554
     12          1           0       -1.433710   -1.742077    1.310274
     13          8           0       -1.949176    1.471885   -0.096341
     14          8           0       -1.641924   -0.757488   -1.289037
 ---------------------------------------------------------------------

 SCF Done:  E(RHF) =  -1154.02506460     A.U. after    2 cycles

 The electronic state is 1-A.
 Alpha  occ. eigenvalues --  -94.20900 -94.02672 -20.54461 -20.54408 -15.55396
 Alpha  occ. eigenvalues --  -11.35333 -11.30929 -11.30506 -11.29723  -8.46117
 Alpha  occ. eigenvalues --   -8.30872  -6.44228  -6.44034  -6.43965  -6.28614
 Alpha  occ. eigenvalues --   -6.28531  -6.28319  -1.55921  -1.44155  -1.32181
 Alpha  occ. eigenvalues --   -1.13112  -1.09631  -1.03938  -0.91771  -0.85162
 Alpha  occ. eigenvalues --   -0.78516  -0.74846  -0.68660  -0.67822  -0.67155
 Alpha  occ. eigenvalues --   -0.63121  -0.62367  -0.61182  -0.60114  -0.55015
 Alpha  occ. eigenvalues --   -0.52105  -0.49776  -0.49371  -0.46833  -0.45128
 Alpha  occ. eigenvalues --   -0.44079  -0.37777
 Alpha virt. eigenvalues --    0.02568   0.03360   0.04055   0.04123   0.05173
 Alpha virt. eigenvalues --    0.05437   0.07879   0.09646   0.10124   0.10303
 Alpha virt. eigenvalues --    0.10891   0.11382   0.12262   0.12707   0.13081

 Mulliken charges:
               1
     1  C   -0.165584
     2  H   -0.121045
     3  C   -0.049688
     4  H   -0.090553
     5  N    0.924467
     6  C   -1.856878
     7  S    0.661821
     8  S    3.785558
     9  C   -0.724861
    10  H    0.248695
    11  H    0.232794
    12  H    0.252722
    13  O   -1.564467
    14  O   -1.532980
 Sum of Mulliken charges =  -0.00000

 Dipole moment (field-independent basis, Debye):
    X=              3.8062    Y=             -3.4313    Z=              3.5461  Tot=              6.2318

 Test job not archived.
 1\1\GINC-SE120\SP\RHF\Aug-CC-pVDZ\C4H5N1O2S2\OHZDE\09-Apr-2025\0\\#t h
 f aug-cc-pvdz iop(5/13=1,5/36=2,99/5=2) pseudo=read geom=check guess=(
 read,tcheck) scf=(maxcycle=1)\\title\\0,1\C,0,2.0285,-24.6337,-0.9139\
 H,0,0.9845,-24.6515,-1.1986\C,0,2.8241,-25.683,-0.4892\H,0,2.4915,-26.
 7095,-0.389\N,0,4.1163,-25.3617,-0.1907\C,0,4.3009,-24.0692,-0.3719\S,
 0,2.9398,-23.1895,-0.9641\S,0,5.9124,-23.2937,-0.2287\C,0,5.6569,-22.1
 138,1.0832\H,0,5.3752,-22.6495,1.9911\H,0,6.6143,-21.6064,1.2211\H,0,4
 .8908,-21.3997,0.7799\O,0,6.8614,-24.2939,0.2194\O,0,6.1068,-22.5321,-

 Normal termination of Gaussian 16 at Wed Apr  9 02:23:38 2025.
