 Gaussian 16, Revision C.01,

 ----------------------------------------------------------------------
 #t hf aug-cc-pvdz symm=none int=(grid=ultrafine) guess=(read,tcheck) s
 table=(opt,rrhf)
 ----------------------------------------------------------------------
 -----
 title
 -----
 Symbolic Z-matrix:
 Charge =  0 Multiplicity = 1

 SCF Done:  E(RHF) =  -681.466082049     A.U. after   13 cycles
 Normal termination of Gaussian 16 at Wed Apr  9 02:20:20 2025.
 Gaussian 16:  ES64L-G16RevC.01  3-Jul-2019

 ----------------------------------------------------------------------
 #t hf aug-cc-pvdz iop(5/13=1,5/36=2,99/5=2) pseudo=read geom=check gue
 ss=(read,tcheck) scf=(maxcycle=1)
 ----------------------------------------------------------------------
 -----
 title
 -----
 Structure from the checkpoint file:  "DCONF_16_180_mol1.chk"
 Charge =  0 Multiplicity = 1

                         Standard orientation:
 ---------------------------------------------------------------------
 Center     Atomic      Atomic             Coordinates (Angstroms)
 Number     Number       Type             X           Y           Z
 ---------------------------------------------------------------------
      1          6           0       -1.706566    0.967322   -0.207793
      2          1           0       -1.621116    1.419352   -1.194998
      3          1           0       -1.670543    1.714402    0.585703
      4          1           0       -2.626537    0.386167   -0.126772
      5         16           0       -0.378583   -0.191478    0.020558
      6          8           0       -0.326899   -1.123794   -1.091654
      7          7           0        0.942387    0.847141   -0.162646
      8          1           0        0.867063    1.553291    0.569241
      9          8           0       -0.467291   -0.696641    1.386751
     10          6           0        2.235710    0.145931   -0.020446
     11          1           0        2.319862   -0.591416   -0.819257
     12          1           0        2.345474   -0.352226    0.948561
     13          1           0        3.025067    0.888038   -0.144230
 ---------------------------------------------------------------------

 SCF Done:  E(RHF) =  -681.826928311     A.U. after    2 cycles

 The electronic state is 1-A.
 Alpha  occ. eigenvalues --  -94.20902 -20.53644 -20.53578 -15.54844 -11.29216
 Alpha  occ. eigenvalues --  -11.28321  -8.45957  -6.44045  -6.43879  -6.43810
 Alpha  occ. eigenvalues --   -1.55635  -1.43340  -1.25006  -1.07023  -0.95658
 Alpha  occ. eigenvalues --   -0.85508  -0.74758  -0.69805  -0.68785  -0.65478
 Alpha  occ. eigenvalues --   -0.63071  -0.60855  -0.59777  -0.57699  -0.52306
 Alpha  occ. eigenvalues --   -0.49426  -0.47731  -0.46127  -0.44591
 Alpha virt. eigenvalues --    0.02767   0.03957   0.04706   0.05383   0.05985
 Alpha virt. eigenvalues --    0.06358   0.07423   0.10857   0.11538   0.12471
 Alpha virt. eigenvalues --    0.13422   0.14335   0.15107   0.16165   0.16228

 Mulliken charges:
               1
     1  C   -0.654453
     2  H    0.266074
     3  H    0.222025
     4  H    0.260088
     5  S    3.258896
     6  O   -1.591622
     7  N   -0.393324
     8  H    0.250403
     9  O   -1.552668
    10  C   -0.465036
    11  H    0.166990
    12  H    0.164476
    13  H    0.068152
 Sum of Mulliken charges =  -0.00000

 Dipole moment (field-independent basis, Debye):
    X=              0.2995    Y=              4.2323    Z=              0.3035  Tot=              4.2537

 Test job not archived.
 1\1\GINC-SE462\SP\RHF\Aug-CC-pVDZ\C2H7N1O2S1\OHZDE\09-Apr-2025\0\\#t h
 f aug-cc-pvdz iop(5/13=1,5/36=2,99/5=2) pseudo=read geom=check guess=(
 read,tcheck) scf=(maxcycle=1)\\title\\0,1\C,0,-1.093,-1.3883,-0.5933\H
 ,0,-0.4133,-1.188,-1.4204\H,0,-0.8515,-0.7893,0.2853\H,0,-2.1274,-1.20
 83,-0.8904\S,0,-1.0029,-3.1115,-0.1679\O,0,-1.1971,-3.9328,-1.3497\N,0
 ,0.6363,-3.223,0.2294\H,0,0.7954,-2.5861,1.0098\O,0,-1.8456,-3.3183,1.
 0054\C,0,1.0263,-4.5887,0.6385\H,0,0.8755,-5.2602,-0.2072\H,0,0.4572,-
 4.9538,1.4999\H,0,2.0889,-4.5658,0.8824\\Version=ES64L-G16RevC.01\Stat

 Normal termination of Gaussian 16 at Wed Apr  9 02:20:25 2025.
