 Gaussian 16, Revision C.01,

 ----------------------------------------------------------------------
 #t hf aug-cc-pvdz symm=none int=(grid=ultrafine) guess=(read,tcheck) s
 table=(opt,rrhf)
 ----------------------------------------------------------------------
 -----
 title
 -----
 Symbolic Z-matrix:
 Charge =  0 Multiplicity = 1

 SCF Done:  E(RHF) =  -812.903411220     A.U. after   17 cycles
 Normal termination of Gaussian 16 at Wed Apr  9 02:29:52 2025.
 Gaussian 16:  ES64L-G16RevC.01  3-Jul-2019

 ----------------------------------------------------------------------
 #t hf aug-cc-pvdz iop(5/13=1,5/36=2,99/5=2) pseudo=read geom=check gue
 ss=(read,tcheck) scf=(maxcycle=1)
 ----------------------------------------------------------------------
 -----
 title
 -----
 Structure from the checkpoint file:  "DCONF_56_-150_mol1.chk"
 Charge =  0 Multiplicity = 1

                         Standard orientation:
 ---------------------------------------------------------------------
 Center     Atomic      Atomic             Coordinates (Angstroms)
 Number     Number       Type             X           Y           Z
 ---------------------------------------------------------------------
      1          6           0       -1.479848    1.247056   -0.281456
      2          1           0       -0.998265    2.194880   -0.499881
      3          6           0       -2.867001    1.109359   -0.241897
      4          1           0       -3.511766    1.961243   -0.440631
      5          6           0       -3.410591   -0.147874    0.045751
      6          1           0       -4.484574   -0.303413    0.084026
      7          6           0       -2.537120   -1.212189    0.292475
      8          1           0       -2.923601   -2.202617    0.524598
      9          7           0       -1.198470   -1.098301    0.276497
     10          6           0       -0.689794    0.116709   -0.014085
     11          7           0        1.424396    1.341885    0.303492
     12          6           0        2.771320    1.117009    0.289743
     13          1           0        3.452628    1.927835    0.521493
     14          6           0        3.155100   -0.176564   -0.012673
     15          1           0        4.157498   -0.578612   -0.079194
     16         16           0        1.777237   -1.149895   -0.288571
     17          6           0        0.773070    0.228813   -0.003389
 ---------------------------------------------------------------------

 SCF Done:  E(RHF) =  -813.377036876     A.U. after    2 cycles

 The electronic state is 1-A.
 Alpha  occ. eigenvalues --  -93.98990 -15.51924 -15.51480 -11.31786 -11.30245
 Alpha  occ. eigenvalues --  -11.29197 -11.27740 -11.27612 -11.27389 -11.25984
 Alpha  occ. eigenvalues --  -11.25855  -8.27199  -6.24939  -6.24851  -6.24646
 Alpha  occ. eigenvalues --   -1.29232  -1.26226  -1.10064  -1.09278  -1.07265
 Alpha  occ. eigenvalues --   -1.00041  -0.89314  -0.88590  -0.81906  -0.78520
 Alpha  occ. eigenvalues --   -0.72964  -0.70394  -0.68947  -0.65443  -0.61740
 Alpha  occ. eigenvalues --   -0.60848  -0.60044  -0.57834  -0.55876  -0.54693
 Alpha  occ. eigenvalues --   -0.51756  -0.48163  -0.45920  -0.41319  -0.41163
 Alpha  occ. eigenvalues --   -0.38482  -0.32216
 Alpha virt. eigenvalues --    0.03109   0.03741   0.03880   0.04291   0.04369
 Alpha virt. eigenvalues --    0.05030   0.06931   0.07903   0.08417   0.09709
 Alpha virt. eigenvalues --    0.10164   0.10489   0.10771   0.11790   0.12274

 Mulliken charges:
               1
     1  C    1.076279
     2  H   -0.215485
     3  C   -0.191051
     4  H   -0.158543
     5  C    0.758260
     6  H   -0.186055
     7  C   -0.851454
     8  H   -0.202655
     9  N    1.551901
    10  C   -1.047212
    11  N    1.284775
    12  C   -0.230896
    13  H   -0.136119
    14  C   -0.020100
    15  H   -0.144141
    16  S    0.609763
    17  C   -1.897266
 Sum of Mulliken charges =  -0.00000

 Dipole moment (field-independent basis, Debye):
    X=             -1.2894    Y=              0.2635    Z=             -0.8261  Tot=              1.5538

 Test job not archived.
 1\1\GINC-SE455\SP\RHF\Aug-CC-pVDZ\C8H6N2S1\OHZDE\09-Apr-2025\0\\#t hf
 aug-cc-pvdz iop(5/13=1,5/36=2,99/5=2) pseudo=read geom=check guess=(re
 ad,tcheck) scf=(maxcycle=1)\\title\\0,1\C,0,30.1279,-21.0904,-0.0102\H
 ,0,30.7126,-20.176,-0.0111\C,0,28.7335,-21.0815,0.0068\H,0,28.1879,-20
 .1417,0.0112\C,0,28.0526,-22.3043,0.0053\H,0,26.9676,-22.3465,0.0148\C
 ,0,28.8018,-23.4855,-0.0022\H,0,28.3068,-24.4546,0.0017\N,0,30.145,-23
 .5175,-0.0013\C,0,30.7867,-22.3311,-0.012\N,0,33.0145,-21.4475,0.5606\
 C,0,34.3294,-21.8088,0.4867\H,0,35.0898,-21.1507,0.8917\C,0,34.577,-23

 Normal termination of Gaussian 16 at Wed Apr  9 02:30:02 2025.
