 Gaussian 16, Revision C.01,

 ----------------------------------------------------------------------
 #t hf aug-cc-pvdz symm=none int=(grid=ultrafine) guess=(read,tcheck) s
 table=(opt,rrhf)
 ----------------------------------------------------------------------
 -----
 title
 -----
 Symbolic Z-matrix:
 Charge =  0 Multiplicity = 1

 SCF Done:  E(RHF) =  -796.894299941     A.U. after   16 cycles
 Normal termination of Gaussian 16 at Wed Apr  9 02:29:03 2025.
 Gaussian 16:  ES64L-G16RevC.01  3-Jul-2019

 ----------------------------------------------------------------------
 #t hf aug-cc-pvdz iop(5/13=1,5/36=2,99/5=2) pseudo=read geom=check gue
 ss=(read,tcheck) scf=(maxcycle=1)
 ----------------------------------------------------------------------
 -----
 title
 -----
 Structure from the checkpoint file:  "DCONF_52_-120_mol1.chk"
 Charge =  0 Multiplicity = 1

                         Standard orientation:
 ---------------------------------------------------------------------
 Center     Atomic      Atomic             Coordinates (Angstroms)
 Number     Number       Type             X           Y           Z
 ---------------------------------------------------------------------
      1          6           0       -1.488709    1.115858   -0.568293
      2          1           0       -1.000280    1.965197   -1.037682
      3          6           0       -2.880093    1.013769   -0.516198
      4          1           0       -3.508886    1.793186   -0.938196
      5          6           0       -3.442630   -0.120497    0.076108
      6          1           0       -4.518879   -0.251234    0.138351
      7          6           0       -2.584365   -1.098245    0.592056
      8          1           0       -2.987897   -1.995665    1.057070
      9          7           0       -1.243642   -1.007989    0.570197
     10          6           0       -0.708411    0.089110   -0.008821
     11          6           0        1.504111    1.234010    0.591735
     12          1           0        1.045241    2.106299    1.046449
     13          6           0        2.899553    0.990755    0.530302
     14          1           0        3.659485    1.660098    0.918651
     15          6           0        3.191601   -0.222353   -0.069162
     16          1           0        4.165673   -0.655214   -0.258318
     17         16           0        1.772702   -1.054492   -0.548331
     18          6           0        0.756911    0.215114    0.014872
 ---------------------------------------------------------------------

 SCF Done:  E(RHF) =  -797.355480210     A.U. after    2 cycles

 The electronic state is 1-A.
 Alpha  occ. eigenvalues --  -93.97746 -15.51190 -11.29936 -11.28788 -11.27368
 Alpha  occ. eigenvalues --  -11.27339 -11.27120 -11.25506 -11.25481 -11.24936
 Alpha  occ. eigenvalues --  -11.24761  -8.25932  -6.23697  -6.23599  -6.23395
 Alpha  occ. eigenvalues --   -1.26292  -1.18791  -1.09410  -1.06173  -1.00777
 Alpha  occ. eigenvalues --   -0.97892  -0.88106  -0.87472  -0.77936  -0.76594
 Alpha  occ. eigenvalues --   -0.72299  -0.69850  -0.68739  -0.64434  -0.60380
 Alpha  occ. eigenvalues --   -0.59205  -0.58197  -0.56769  -0.54317  -0.53255
 Alpha  occ. eigenvalues --   -0.52714  -0.48626  -0.45898  -0.40800  -0.37122
 Alpha  occ. eigenvalues --   -0.35324  -0.31719
 Alpha virt. eigenvalues --    0.03114   0.03568   0.03765   0.04246   0.04796
 Alpha virt. eigenvalues --    0.05508   0.06380   0.06775   0.08259   0.08840
 Alpha virt. eigenvalues --    0.09995   0.10532   0.11118   0.11439   0.11812

 Mulliken charges:
               1
     1  C    0.976638
     2  H   -0.220582
     3  C   -0.276112
     4  H   -0.158872
     5  C    0.813787
     6  H   -0.188163
     7  C   -0.780617
     8  H   -0.211806
     9  N    1.519555
    10  C   -2.271187
    11  C    0.359643
    12  H   -0.190067
    13  C    0.334503
    14  H   -0.120302
    15  C   -0.580156
    16  H   -0.144069
    17  S    0.550881
    18  C    0.586925
 Sum of Mulliken charges =  -0.00000

 Dipole moment (field-independent basis, Debye):
    X=             -1.3672    Y=              2.2885    Z=             -0.5648  Tot=              2.7249

 Test job not archived.
 1\1\GINC-SE123\SP\RHF\Aug-CC-pVDZ\C9H7N1S1\OHZDE\09-Apr-2025\0\\#t hf
 aug-cc-pvdz iop(5/13=1,5/36=2,99/5=2) pseudo=read geom=check guess=(re
 ad,tcheck) scf=(maxcycle=1)\\title\\0,1\C,0,30.1881,-8.3604,-0.0197\H,
 0,30.7658,-7.4408,-0.0491\C,0,28.7924,-8.3426,0.0084\H,0,28.2504,-7.40
 07,0.0121\C,0,28.1111,-9.5631,0.0152\H,0,27.0261,-9.6051,0.0322\C,0,28
 .8605,-10.745,-0.0028\H,0,28.3629,-11.7129,-0.0015\N,0,30.2039,-10.782
 5,-0.0086\C,0,30.8542,-9.5983,-0.0204\C,0,33.1483,-9.0809,0.9975\H,0,3
 2.7618,-8.4821,1.8162\C,0,34.5159,-9.3985,0.8\H,0,35.3251,-9.0628,1.43

 Normal termination of Gaussian 16 at Wed Apr  9 02:29:14 2025.
