 Gaussian 16, Revision C.01,

 ----------------------------------------------------------------------
 #t hf aug-cc-pvdz symm=none int=(grid=ultrafine) guess=(read,tcheck) s
 table=(opt,rrhf)
 ----------------------------------------------------------------------
 -----
 title
 -----
 Symbolic Z-matrix:
 Charge =  0 Multiplicity = 1

 SCF Done:  E(RHF) =  -681.455843841     A.U. after   13 cycles
 Normal termination of Gaussian 16 at Wed Apr  9 02:20:23 2025.
 Gaussian 16:  ES64L-G16RevC.01  3-Jul-2019

 ----------------------------------------------------------------------
 #t hf aug-cc-pvdz iop(5/13=1,5/36=2,99/5=2) pseudo=read geom=check gue
 ss=(read,tcheck) scf=(maxcycle=1)
 ----------------------------------------------------------------------
 -----
 title
 -----
 Structure from the checkpoint file:  "DCONF_16_0_mol1.chk"
 Charge =  0 Multiplicity = 1

                         Standard orientation:
 ---------------------------------------------------------------------
 Center     Atomic      Atomic             Coordinates (Angstroms)
 Number     Number       Type             X           Y           Z
 ---------------------------------------------------------------------
      1          6           0        0.259942    1.615337   -0.273900
      2          1           0       -0.259054    2.061278    0.573697
      3          1           0       -0.276959    1.769174   -1.209607
      4          1           0        1.265885    2.031732   -0.347646
      5         16           0        0.523854   -0.123152    0.024399
      6          8           0        1.183828   -0.213489    1.312717
      7          7           0       -1.024131   -0.791577    0.166445
      8          1           0       -1.049112   -1.556472   -0.503204
      9          8           0        1.130759   -0.723072   -1.157267
     10          6           0       -2.221111    0.046409    0.040411
     11          1           0       -2.301489    0.571976   -0.918737
     12          1           0       -2.257490    0.768631    0.857659
     13          1           0       -3.084215   -0.612833    0.149669
 ---------------------------------------------------------------------

 SCF Done:  E(RHF) =  -681.816194160     A.U. after    2 cycles

 The electronic state is 1-A.
 Alpha  occ. eigenvalues --  -94.21180 -20.53766 -20.53119 -15.54430 -11.30141
 Alpha  occ. eigenvalues --  -11.29383  -8.46170  -6.44263  -6.44095  -6.44037
 Alpha  occ. eigenvalues --   -1.55640  -1.43354  -1.24881  -1.06389  -0.98355
 Alpha  occ. eigenvalues --   -0.85212  -0.74045  -0.71692  -0.68715  -0.65588
 Alpha  occ. eigenvalues --   -0.63289  -0.61587  -0.60995  -0.58837  -0.51930
 Alpha  occ. eigenvalues --   -0.50048  -0.47123  -0.46100  -0.44076
 Alpha virt. eigenvalues --    0.02595   0.03646   0.04421   0.04834   0.05983
 Alpha virt. eigenvalues --    0.06783   0.07780   0.09847   0.11272   0.12307
 Alpha virt. eigenvalues --    0.13668   0.14624   0.15141   0.15300   0.16160

 Mulliken charges:
               1
     1  C   -0.739339
     2  H    0.284357
     3  H    0.260829
     4  H    0.166667
     5  S    3.171706
     6  O   -1.517686
     7  N   -0.189787
     8  H    0.200790
     9  O   -1.528217
    10  C   -0.471635
    11  H    0.189868
    12  H    0.145691
    13  H    0.026757
 Sum of Mulliken charges =  -0.00000

 Dipole moment (field-independent basis, Debye):
    X=             -4.5428    Y=              3.1381    Z=             -1.5296  Tot=              5.7293

 Test job not archived.
 1\1\GINC-SE322\SP\RHF\Aug-CC-pVDZ\C2H7N1O2S1\OHZDE\09-Apr-2025\0\\#t h
 f aug-cc-pvdz iop(5/13=1,5/36=2,99/5=2) pseudo=read geom=check guess=(
 read,tcheck) scf=(maxcycle=1)\\title\\0,1\C,0,-1.1463,-1.3887,-0.6561\
 H,0,-0.4932,-1.1829,-1.5033\H,0,-0.9453,-0.7268,0.1859\H,0,-2.1884,-1.
 2936,-0.9655\S,0,-0.9858,-3.0969,-0.169\O,0,-1.2106,-3.8792,-1.3694\N,
 0,0.6313,-3.2786,0.2949\H,0,0.5995,-3.672,1.2321\O,0,-1.7909,-3.3305,1
 .0234\C,0,1.5627,-2.1471,0.2395\H,0,1.26,-1.287,0.8488\H,0,1.7032,-1.8
 311,-0.7955\H,0,2.526,-2.5096,0.603\\Version=ES64L-G16RevC.01\State=1-

 Normal termination of Gaussian 16 at Wed Apr  9 02:20:28 2025.
