 Gaussian 16, Revision C.01,

 ----------------------------------------------------------------------
 #t hf aug-cc-pvdz symm=none int=(grid=ultrafine) guess=(read,tcheck) s
 table=(opt,rrhf)
 ----------------------------------------------------------------------
 -----
 title
 -----
 Symbolic Z-matrix:
 Charge =  0 Multiplicity = 1

 SCF Done:  E(RHF) =  -796.893108975     A.U. after   16 cycles
 Normal termination of Gaussian 16 at Wed Apr  9 02:29:06 2025.
 Gaussian 16:  ES64L-G16RevC.01  3-Jul-2019

 ----------------------------------------------------------------------
 #t hf aug-cc-pvdz iop(5/13=1,5/36=2,99/5=2) pseudo=read geom=check gue
 ss=(read,tcheck) scf=(maxcycle=1)
 ----------------------------------------------------------------------
 -----
 title
 -----
 Structure from the checkpoint file:  "DCONF_52_-110_mol1.chk"
 Charge =  0 Multiplicity = 1

                         Standard orientation:
 ---------------------------------------------------------------------
 Center     Atomic      Atomic             Coordinates (Angstroms)
 Number     Number       Type             X           Y           Z
 ---------------------------------------------------------------------
      1          6           0       -1.475210    1.055480   -0.655725
      2          1           0       -0.973539    1.858590   -1.188279
      3          6           0       -2.868370    0.961554   -0.622206
      4          1           0       -3.486106    1.699817   -1.126603
      5          6           0       -3.445628   -0.109081    0.065647
      6          1           0       -4.523437   -0.230751    0.120058
      7          6           0       -2.601257   -1.033956    0.690754
      8          1           0       -3.017333   -1.879970    1.234532
      9          7           0       -1.259702   -0.950919    0.683259
     10          6           0       -0.710225    0.083502    0.010313
     11          6           0        1.508014    1.173398    0.698476
     12          1           0        1.051134    2.004987    1.225253
     13          6           0        2.904129    0.938254    0.606560
     14          1           0        3.665881    1.574713    1.043452
     15          6           0        3.194208   -0.217351   -0.097109
     16          1           0        4.167436   -0.630694   -0.329848
     17         16           0        1.771903   -1.005244   -0.638140
     18          6           0        0.758244    0.205474    0.044765
 ---------------------------------------------------------------------

 SCF Done:  E(RHF) =  -797.354382971     A.U. after    2 cycles

 The electronic state is 1-A.
 Alpha  occ. eigenvalues --  -93.97752 -15.51264 -11.29908 -11.28792 -11.27380
 Alpha  occ. eigenvalues --  -11.27336 -11.27054 -11.25569 -11.25558 -11.24836
 Alpha  occ. eigenvalues --  -11.24737  -8.25943  -6.23709  -6.23611  -6.23406
 Alpha  occ. eigenvalues --   -1.26298  -1.18771  -1.09439  -1.06142  -1.00710
 Alpha  occ. eigenvalues --   -0.97906  -0.88089  -0.87494  -0.77919  -0.76580
 Alpha  occ. eigenvalues --   -0.72198  -0.69959  -0.68792  -0.64412  -0.60396
 Alpha  occ. eigenvalues --   -0.59195  -0.58213  -0.56769  -0.54273  -0.53202
 Alpha  occ. eigenvalues --   -0.52716  -0.48555  -0.45950  -0.40782  -0.36579
 Alpha  occ. eigenvalues --   -0.35303  -0.32229
 Alpha virt. eigenvalues --    0.03107   0.03597   0.03782   0.04225   0.04752
 Alpha virt. eigenvalues --    0.05553   0.06345   0.06991   0.08284   0.08825
 Alpha virt. eigenvalues --    0.10108   0.10342   0.11102   0.11325   0.11763

 Mulliken charges:
               1
     1  C    0.896275
     2  H   -0.216108
     3  C   -0.253448
     4  H   -0.159212
     5  C    0.805144
     6  H   -0.188932
     7  C   -0.766332
     8  H   -0.210666
     9  N    1.487841
    10  C   -2.077797
    11  C    0.297866
    12  H   -0.183322
    13  C    0.375939
    14  H   -0.120523
    15  C   -0.587225
    16  H   -0.141597
    17  S    0.579683
    18  C    0.462415
 Sum of Mulliken charges =  -0.00000

 Dipole moment (field-independent basis, Debye):
    X=             -1.4215    Y=              2.1959    Z=             -0.7301  Tot=              2.7158

 Test job not archived.
 1\1\GINC-SE049\SP\RHF\Aug-CC-pVDZ\C9H7N1S1\OHZDE\09-Apr-2025\0\\#t hf
 aug-cc-pvdz iop(5/13=1,5/36=2,99/5=2) pseudo=read geom=check guess=(re
 ad,tcheck) scf=(maxcycle=1)\\title\\0,1\C,0,30.188,-8.361,-0.0165\H,0,
 30.7672,-7.4421,-0.0371\C,0,28.7916,-8.3424,0.0072\H,0,28.2497,-7.4004
 ,0.0125\C,0,28.111,-9.5628,0.0131\H,0,27.0259,-9.6048,0.0283\C,0,28.86
 02,-10.745,-0.0016\H,0,28.3623,-11.7128,0.0019\N,0,30.2038,-10.7827,-0
 .0078\C,0,30.8533,-9.5983,-0.0202\C,0,33.1464,-9.2543,1.0777\H,0,32.75
 52,-8.8152,1.9898\C,0,34.5179,-9.5145,0.8244\H,0,35.3249,-9.2888,1.512

 Normal termination of Gaussian 16 at Wed Apr  9 02:29:18 2025.
