 Gaussian 16, Revision C.01,

 ----------------------------------------------------------------------
 #t hf aug-cc-pvdz symm=none int=(grid=ultrafine) guess=(read,tcheck) s
 table=(opt,rrhf)
 ----------------------------------------------------------------------
 -----
 title
 -----
 Symbolic Z-matrix:
 Charge =  0 Multiplicity = 1

 SCF Done:  E(RHF) =  -796.905397689     A.U. after   17 cycles
 Normal termination of Gaussian 16 at Wed Apr  9 02:29:32 2025.
 Gaussian 16:  ES64L-G16RevC.01  3-Jul-2019

 ----------------------------------------------------------------------
 #t hf aug-cc-pvdz iop(5/13=1,5/36=2,99/5=2) pseudo=read geom=check gue
 ss=(read,tcheck) scf=(maxcycle=1)
 ----------------------------------------------------------------------
 -----
 title
 -----
 Structure from the checkpoint file:  "DCONF_55_0_mol1.chk"
 Charge =  0 Multiplicity = 1

                         Standard orientation:
 ---------------------------------------------------------------------
 Center     Atomic      Atomic             Coordinates (Angstroms)
 Number     Number       Type             X           Y           Z
 ---------------------------------------------------------------------
      1          6           0       -1.321627   -1.154107    0.074408
      2          1           0       -0.741538   -2.073079    0.124734
      3          6           0       -2.716912   -1.228935    0.043623
      4          1           0       -3.203871   -2.198884    0.098458
      5          6           0       -3.484443   -0.059053   -0.002390
      6          1           0       -4.569388   -0.117198   -0.016689
      7          6           0       -2.842405    1.184988   -0.063066
      8          1           0       -3.430417    2.098559   -0.095321
      9          6           0       -1.448265    1.264882   -0.042537
     10          1           0       -0.941361    2.224149   -0.085632
     11          6           0       -0.672621    0.090354   -0.017338
     12          7           0        1.434441    1.360949    0.076048
     13          6           0        2.785807    1.168652    0.048921
     14          1           0        3.450487    2.024206    0.087240
     15          6           0        3.199711   -0.146315   -0.024132
     16          1           0        4.209130   -0.534806   -0.045215
     17         16           0        1.840201   -1.180941   -0.060232
     18          6           0        0.791198    0.203779    0.043144
 ---------------------------------------------------------------------

 SCF Done:  E(RHF) =  -797.367388796     A.U. after    2 cycles

 The electronic state is 1-A.
 Alpha  occ. eigenvalues --  -93.99096 -15.51051 -11.32404 -11.27964 -11.27412
 Alpha  occ. eigenvalues --  -11.26589 -11.25883 -11.25561 -11.25368 -11.25236
 Alpha  occ. eigenvalues --  -11.25156  -8.27368  -6.25122  -6.25034  -6.24824
 Alpha  occ. eigenvalues --   -1.28715  -1.16344  -1.09622  -1.06149  -1.02380
 Alpha  occ. eigenvalues --   -0.98819  -0.86645  -0.85212  -0.81015  -0.76919
 Alpha  occ. eigenvalues --   -0.72845  -0.69115  -0.65612  -0.64798  -0.60953
 Alpha  occ. eigenvalues --   -0.60618  -0.59171  -0.58280  -0.52834  -0.51780
 Alpha  occ. eigenvalues --   -0.51722  -0.51441  -0.46518  -0.41641  -0.38956
 Alpha  occ. eigenvalues --   -0.35283  -0.31174
 Alpha virt. eigenvalues --    0.03307   0.03505   0.03778   0.04522   0.04649
 Alpha virt. eigenvalues --    0.04821   0.06676   0.07141   0.09073   0.09718
 Alpha virt. eigenvalues --    0.10234   0.10850   0.11305   0.11432   0.12064

 Mulliken charges:
               1
     1  C   -0.004314
     2  H   -0.173854
     3  C    0.275970
     4  H   -0.232528
     5  C   -0.021587
     6  H   -0.206778
     7  C    0.341721
     8  H   -0.224930
     9  C   -0.203746
    10  H   -0.306846
    11  C    2.414988
    12  N    1.451964
    13  C   -0.150332
    14  H   -0.170425
    15  C   -0.235923
    16  H   -0.163291
    17  S    0.770601
    18  C   -3.160688
 Sum of Mulliken charges =  -0.00000

 Dipole moment (field-independent basis, Debye):
    X=             -0.1451    Y=             -1.4879    Z=             -0.0679  Tot=              1.4965

 Test job not archived.
 1\1\GINC-SE453\SP\RHF\Aug-CC-pVDZ\C9H7N1S1\OHZDE\09-Apr-2025\0\\#t hf
 aug-cc-pvdz iop(5/13=1,5/36=2,99/5=2) pseudo=read geom=check guess=(re
 ad,tcheck) scf=(maxcycle=1)\\title\\0,1\C,0,21.799,-23.5707,0.0104\H,0
 ,22.3175,-24.5271,0.0118\C,0,20.4016,-23.5523,-0.007\H,0,19.8521,-24.4
 897,0.0094\C,0,19.7127,-22.3337,0.0096\H,0,18.6262,-22.3198,0.0057\C,0
 ,20.435,-21.133,-0.002\H,0,19.9084,-20.1823,0.0145\C,0,21.8315,-21.145
 8,0.0054\H,0,22.4003,-20.2209,0.\C,0,22.528,-22.3686,-0.0323\N,0,24.71
 52,-21.2447,0.0936\C,0,26.0506,-21.5238,0.0415\H,0,26.7707,-20.7164,0.

 Normal termination of Gaussian 16 at Wed Apr  9 02:29:43 2025.
