 Gaussian 16, Revision C.01,

 ----------------------------------------------------------------------
 #t hf aug-cc-pvdz symm=none int=(grid=ultrafine) guess=(read,tcheck) s
 table=(opt,rrhf)
 ----------------------------------------------------------------------
 -----
 title
 -----
 Symbolic Z-matrix:
 Charge =  0 Multiplicity = 1

 SCF Done:  E(RHF) =  -681.462429610     A.U. after   13 cycles
 Normal termination of Gaussian 16 at Wed Apr  9 02:20:54 2025.
 Gaussian 16:  ES64L-G16RevC.01  3-Jul-2019

 ----------------------------------------------------------------------
 #t hf aug-cc-pvdz iop(5/13=1,5/36=2,99/5=2) pseudo=read geom=check gue
 ss=(read,tcheck) scf=(maxcycle=1)
 ----------------------------------------------------------------------
 -----
 title
 -----
 Structure from the checkpoint file:  "DCONF_16_30_mol1.chk"
 Charge =  0 Multiplicity = 1

                         Standard orientation:
 ---------------------------------------------------------------------
 Center     Atomic      Atomic             Coordinates (Angstroms)
 Number     Number       Type             X           Y           Z
 ---------------------------------------------------------------------
      1          6           0       -0.375968    1.587431   -0.418096
      2          1           0        0.318716    2.097174    0.248029
      3          1           0       -0.067744    1.666870   -1.461624
      4          1           0       -1.377685    2.001247   -0.291125
      5         16           0       -0.509307   -0.129452    0.057574
      6          8           0       -0.798272   -0.110194    1.479625
      7          7           0        1.016080   -0.795276   -0.144916
      8          1           0        1.021602   -1.273854   -1.041531
      9          8           0       -1.368323   -0.824222   -0.886955
     10          6           0        2.198110    0.055783    0.024621
     11          1           0        2.287819    0.842389   -0.733555
     12          1           0        2.175119    0.507549    1.018697
     13          1           0        3.078428   -0.587175   -0.026186
 ---------------------------------------------------------------------

 SCF Done:  E(RHF) =  -681.822879692     A.U. after    2 cycles

 The electronic state is 1-A.
 Alpha  occ. eigenvalues --  -94.21165 -20.53879 -20.53187 -15.54694 -11.29905
 Alpha  occ. eigenvalues --  -11.29175  -8.46130  -6.44246  -6.44065  -6.43976
 Alpha  occ. eigenvalues --   -1.55804  -1.43623  -1.25240  -1.06076  -0.98223
 Alpha  occ. eigenvalues --   -0.85509  -0.74546  -0.71179  -0.69158  -0.65568
 Alpha  occ. eigenvalues --   -0.63797  -0.61397  -0.60782  -0.58443  -0.50869
 Alpha  occ. eigenvalues --   -0.50009  -0.47541  -0.46118  -0.45035
 Alpha virt. eigenvalues --    0.02497   0.03651   0.04276   0.04726   0.05987
 Alpha virt. eigenvalues --    0.06499   0.07960   0.10622   0.11209   0.11910
 Alpha virt. eigenvalues --    0.13833   0.14526   0.15134   0.15426   0.16008

 Mulliken charges:
               1
     1  C   -0.682745
     2  H    0.250550
     3  H    0.265895
     4  H    0.180150
     5  S    3.063863
     6  O   -1.515202
     7  N   -0.175407
     8  H    0.234362
     9  O   -1.507854
    10  C   -0.476375
    11  H    0.166548
    12  H    0.156942
    13  H    0.039272
 Sum of Mulliken charges =  -0.00000

 Dipole moment (field-independent basis, Debye):
    X=              4.1514    Y=              3.3996    Z=             -2.4355  Tot=              5.8927

 Test job not archived.
 1\1\GINC-SE036\SP\RHF\Aug-CC-pVDZ\C2H7N1O2S1\OHZDE\09-Apr-2025\0\\#t h
 f aug-cc-pvdz iop(5/13=1,5/36=2,99/5=2) pseudo=read geom=check guess=(
 read,tcheck) scf=(maxcycle=1)\\title\\0,1\C,0,-1.1708,-1.3749,-0.6099\
 H,0,-0.9664,-0.7558,0.2625\H,0,-0.5173,-1.1233,-1.4465\H,0,-2.2156,-1.
 2622,-0.904\S,0,-0.9842,-3.0981,-0.1769\O,0,-1.7962,-3.2831,1.0116\N,0
 ,0.6205,-3.3031,0.2636\H,0,1.1104,-3.6815,-0.5425\O,0,-1.1716,-3.9148,
 -1.3646\C,0,1.348,-2.1807,0.8646\H,0,1.4978,-1.336,0.1822\H,0,0.8125,-
 1.8413,1.7539\H,0,2.322,-2.5527,1.1869\\Version=ES64L-G16RevC.01\State

 Normal termination of Gaussian 16 at Wed Apr  9 02:20:59 2025.
