 Gaussian 16, Revision C.01,

 ----------------------------------------------------------------------
 #t hf aug-cc-pvdz symm=none int=(grid=ultrafine) guess=(read,tcheck) s
 table=(opt,rrhf)
 ----------------------------------------------------------------------
 -----
 title
 -----
 Symbolic Z-matrix:
 Charge =  0 Multiplicity = 1

 SCF Done:  E(RHF) =  -1153.54416074     A.U. after   16 cycles
 Normal termination of Gaussian 16 at Wed Apr  9 02:23:20 2025.
 Gaussian 16:  ES64L-G16RevC.01  3-Jul-2019

 ----------------------------------------------------------------------
 #t hf aug-cc-pvdz iop(5/13=1,5/36=2,99/5=2) pseudo=read geom=check gue
 ss=(read,tcheck) scf=(maxcycle=1)
 ----------------------------------------------------------------------
 -----
 title
 -----
 Structure from the checkpoint file:  "DCONF_29_-140_mol1.chk"
 Charge =  0 Multiplicity = 1

                         Standard orientation:
 ---------------------------------------------------------------------
 Center     Atomic      Atomic             Coordinates (Angstroms)
 Number     Number       Type             X           Y           Z
 ---------------------------------------------------------------------
      1          6           0       -2.746547   -0.187510   -0.006454
      2          1           0       -3.743097   -0.608747    0.011684
      3          6           0       -2.371507    1.140152   -0.099051
      4          1           0       -3.061103    1.974217   -0.155135
      5          7           0       -1.027149    1.375656   -0.121707
      6          6           0       -0.377983    0.231315   -0.059514
      7         16           0       -1.359286   -1.183308    0.069556
      8         16           0        1.409431    0.176637    0.114969
      9          6           0        1.851744   -1.167762   -0.968826
     10          1           0        1.413447   -2.097070   -0.603315
     11          1           0        2.941700   -1.229019   -0.929586
     12          1           0        1.522056   -0.932303   -1.981319
     13          8           0        1.698573   -0.247149    1.479480
     14          8           0        1.948987    1.406260   -0.434443
 ---------------------------------------------------------------------

 SCF Done:  E(RHF) =  -1154.02293882     A.U. after    2 cycles

 The electronic state is 1-A.
 Alpha  occ. eigenvalues --  -94.20961 -94.02835 -20.54433 -20.54390 -15.55336
 Alpha  occ. eigenvalues --  -11.35519 -11.30980 -11.30629 -11.29853  -8.46173
 Alpha  occ. eigenvalues --   -8.31055  -6.44278  -6.44089  -6.44029  -6.28802
 Alpha  occ. eigenvalues --   -6.28717  -6.28502  -1.55902  -1.44070  -1.32253
 Alpha  occ. eigenvalues --   -1.13285  -1.09815  -1.03948  -0.91908  -0.85213
 Alpha  occ. eigenvalues --   -0.78553  -0.74934  -0.68546  -0.67914  -0.67276
 Alpha  occ. eigenvalues --   -0.63055  -0.62574  -0.61295  -0.60344  -0.55150
 Alpha  occ. eigenvalues --   -0.52298  -0.49763  -0.49187  -0.46879  -0.45196
 Alpha  occ. eigenvalues --   -0.44217  -0.37764
 Alpha virt. eigenvalues --    0.02531   0.03312   0.04067   0.04268   0.04966
 Alpha virt. eigenvalues --    0.05399   0.08133   0.09542   0.10128   0.10536
 Alpha virt. eigenvalues --    0.10842   0.11386   0.11992   0.12630   0.13191

 Mulliken charges:
               1
     1  C   -0.210888
     2  H   -0.127252
     3  C   -0.018421
     4  H   -0.083369
     5  N    0.865859
     6  C   -1.753039
     7  S    0.702991
     8  S    3.665052
     9  C   -0.715054
    10  H    0.285391
    11  H    0.229617
    12  H    0.254265
    13  O   -1.540459
    14  O   -1.554693
 Sum of Mulliken charges =  -0.00000

 Dipole moment (field-independent basis, Debye):
    X=             -3.9227    Y=             -4.5684    Z=             -2.6075  Tot=              6.5618

 Test job not archived.
 1\1\GINC-SE340\SP\RHF\Aug-CC-pVDZ\C4H5N1O2S2\OHZDE\09-Apr-2025\0\\#t h
 f aug-cc-pvdz iop(5/13=1,5/36=2,99/5=2) pseudo=read geom=check guess=(
 read,tcheck) scf=(maxcycle=1)\\title\\0,1\C,0,2.0284,-24.6412,-0.9227\
 H,0,0.9835,-24.6635,-1.203\C,0,2.8295,-25.6825,-0.4916\H,0,2.5025,-26.
 7102,-0.3855\N,0,4.1175,-25.3509,-0.1844\C,0,4.2959,-24.0589,-0.368\S,
 0,2.9274,-23.1878,-0.9589\S,0,5.9233,-23.3095,-0.2329\C,0,5.5637,-21.7
 795,0.6082\H,0,4.9183,-21.1583,-0.0138\H,0,6.5295,-21.289,0.7494\H,0,5
 .1076,-22.0023,1.5734\O,0,6.3596,-22.9753,-1.5831\O,0,6.725,-24.1397,0

 Normal termination of Gaussian 16 at Wed Apr  9 02:23:26 2025.
