 Gaussian 16, Revision C.01,

 ----------------------------------------------------------------------
 #t hf aug-cc-pvdz symm=none int=(grid=ultrafine) guess=(read,tcheck) s
 table=(opt,rrhf)
 ----------------------------------------------------------------------
 -----
 title
 -----
 Symbolic Z-matrix:
 Charge =  0 Multiplicity = 1

 SCF Done:  E(RHF) =  -453.941743800     A.U. after   11 cycles
 Normal termination of Gaussian 16 at Wed Apr  9 02:19:56 2025.
 Gaussian 16:  ES64L-G16RevC.01  3-Jul-2019

 ----------------------------------------------------------------------
 #t hf aug-cc-pvdz iop(5/13=1,5/36=2,99/5=2) pseudo=read geom=check gue
 ss=(read,tcheck) scf=(maxcycle=1)
 ----------------------------------------------------------------------
 -----
 title
 -----
 Structure from the checkpoint file:  "DCONF_10_-150_mol1.chk"
 Charge =  0 Multiplicity = 1

                         Standard orientation:
 ---------------------------------------------------------------------
 Center     Atomic      Atomic             Coordinates (Angstroms)
 Number     Number       Type             X           Y           Z
 ---------------------------------------------------------------------
      1          6           0       -0.461329   -0.614346   -0.036952
      2          1           0       -0.537637   -1.207019   -0.953804
      3          1           0       -0.564417   -1.299261    0.809501
      4          6           0       -1.559189    0.450484   -0.029666
      5          1           0       -1.425400    1.111962    0.833196
      6          1           0       -1.463386    1.069698   -0.925395
      7          6           0       -2.944974   -0.192562    0.019158
      8          1           0       -3.068258   -0.787943    0.929237
      9          1           0       -3.097516   -0.853530   -0.840108
     10          1           0       -3.730007    0.568072    0.003469
     11          6           0        0.940499   -0.049008    0.006796
     12          9           0        1.024963    1.152868   -0.601964
     13          9           0        1.378866    0.123497    1.269377
     14          9           0        1.822458   -0.850741   -0.624314
 ---------------------------------------------------------------------

 SCF Done:  E(RHF) =  -454.382716714     A.U. after    2 cycles

 The electronic state is 1-A.
 Alpha  occ. eigenvalues --  -26.49704 -26.49555 -26.49461 -11.50847 -11.26490
 Alpha  occ. eigenvalues --  -11.25084 -11.24011  -1.70487  -1.60404  -1.60120
 Alpha  occ. eigenvalues --   -1.10746  -1.00757  -0.90874  -0.84366  -0.80298
 Alpha  occ. eigenvalues --   -0.79628  -0.76154  -0.68783  -0.67820  -0.65518
 Alpha  occ. eigenvalues --   -0.62720  -0.62423  -0.60993  -0.60428  -0.57236
 Alpha  occ. eigenvalues --   -0.56364  -0.51623  -0.50927  -0.50070
 Alpha virt. eigenvalues --    0.03426   0.03992   0.04205   0.05145   0.07038
 Alpha virt. eigenvalues --    0.07223   0.07893   0.09035   0.11172   0.13218
 Alpha virt. eigenvalues --    0.13683   0.13831   0.15151   0.15549   0.16645

 Mulliken charges:
               1
     1  C   -0.742116
     2  H    0.162578
     3  H    0.160560
     4  C   -0.301708
     5  H    0.130437
     6  H    0.162170
     7  C   -0.424671
     8  H    0.172061
     9  H    0.184210
    10  H    0.122517
    11  C    2.769890
    12  F   -0.820150
    13  F   -0.788566
    14  F   -0.787212
 Sum of Mulliken charges =  -0.00000

 Dipole moment (field-independent basis, Debye):
    X=             -2.5223    Y=             -0.6780    Z=             -0.0613  Tot=              2.6126

 Test job not archived.
 1\1\GINC-SE273\SP\RHF\Aug-CC-pVDZ\C4H7F3\OHZDE\09-Apr-2025\0\\#t hf au
 g-cc-pvdz iop(5/13=1,5/36=2,99/5=2) pseudo=read geom=check guess=(read
 ,tcheck) scf=(maxcycle=1)\\title\\0,1\C,0,-0.1425,0.0055,0.188\H,0,0.0
 032,-0.5106,1.142\H,0,0.2391,-0.6466,-0.6028\C,0,0.6013,1.3416,0.2165\
 H,0,0.3756,1.9086,-0.6932\H,0,0.2402,1.9345,1.0609\C,0,2.11,1.1257,0.3
 327\H,0,2.492,0.5631,-0.5249\H,0,2.3538,0.5645,1.2405\H,0,2.6399,2.081
 ,0.3739\C,0,-1.6347,0.1395,-0.017\F,0,-2.1209,1.2841,0.5081\F,0,-1.969
 7,0.138,-1.3223\F,0,-2.3128,-0.8628,0.5784\\Version=ES64L-G16RevC.01\S

 Normal termination of Gaussian 16 at Wed Apr  9 02:20:01 2025.
