 Gaussian 16, Revision C.01,

 ----------------------------------------------------------------------
 #t hf aug-cc-pvdz symm=none int=(grid=ultrafine) guess=(read,tcheck) s
 table=(opt,rrhf)
 ----------------------------------------------------------------------
 -----
 title
 -----
 Symbolic Z-matrix:
 Charge =  0 Multiplicity = 1

 SCF Done:  E(RHF) =  -575.156130255     A.U. after   15 cycles
 Normal termination of Gaussian 16 at Wed Apr  9 02:29:52 2025.
 Gaussian 16:  ES64L-G16RevC.01  3-Jul-2019

 ----------------------------------------------------------------------
 #t hf aug-cc-pvdz iop(5/13=1,5/36=2,99/5=2) pseudo=read geom=check gue
 ss=(read,tcheck) scf=(maxcycle=1)
 ----------------------------------------------------------------------
 -----
 title
 -----
 Structure from the checkpoint file:  "DCONF_48_100_mol1.chk"
 Charge =  0 Multiplicity = 1

                         Standard orientation:
 ---------------------------------------------------------------------
 Center     Atomic      Atomic             Coordinates (Angstroms)
 Number     Number       Type             X           Y           Z
 ---------------------------------------------------------------------
      1          6           0       -1.555494    0.331396    1.147449
      2          1           0       -1.017390    0.699389    2.016804
      3          6           0       -2.950521    0.369787    1.085082
      4          1           0       -3.531789    0.771228    1.910772
      5          6           0       -3.576638   -0.115097   -0.066119
      6          1           0       -4.657867   -0.104952   -0.167266
      7          6           0       -2.779359   -0.618463   -1.099820
      8          1           0       -3.234200   -1.001641   -2.011148
      9          7           0       -1.435572   -0.663262   -1.056112
     10          6           0       -0.842059   -0.197308    0.061781
     11          6           0        2.737179   -1.467394    0.298556
     12          1           0        3.260610   -2.401629    0.480208
     13          6           0        1.338934   -1.435895    0.312726
     14          1           0        0.766396   -2.341632    0.496965
     15          6           0        0.642536   -0.238178    0.087685
     16          6           0        1.393888    0.908836   -0.180576
     17          6           0        2.785302    0.906569   -0.205867
     18          1           0        3.316031    1.828463   -0.422048
     19          6           0        3.458819   -0.295964    0.036426
     20          1           0        4.544843   -0.313780    0.019429
     21          9           0        0.742982    2.068629   -0.421653
 ---------------------------------------------------------------------

 SCF Done:  E(RHF) =  -575.727519015     A.U. after    2 cycles

 The electronic state is 1-A.
 Alpha  occ. eigenvalues --  -26.47459 -15.51075 -11.33858 -11.29446 -11.28573
 Alpha  occ. eigenvalues --  -11.27169 -11.25973 -11.25924 -11.25839 -11.25443
 Alpha  occ. eigenvalues --  -11.25331 -11.25299 -11.25051  -1.60361  -1.26040
 Alpha  occ. eigenvalues --   -1.16447  -1.09228  -1.07068  -1.02303  -1.00758
 Alpha  occ. eigenvalues --   -0.89142  -0.87779  -0.85292  -0.83049  -0.75128
 Alpha  occ. eigenvalues --   -0.72486  -0.70178  -0.69563  -0.68211  -0.66867
 Alpha  occ. eigenvalues --   -0.65142  -0.62639  -0.61178  -0.60052  -0.59568
 Alpha  occ. eigenvalues --   -0.56358  -0.55355  -0.53379  -0.51496  -0.51122
 Alpha  occ. eigenvalues --   -0.45762  -0.40515  -0.36511  -0.35108  -0.34447
 Alpha virt. eigenvalues --    0.03224   0.03379   0.03849   0.03956   0.04451
 Alpha virt. eigenvalues --    0.05464   0.06132   0.06415   0.07507   0.08834
 Alpha virt. eigenvalues --    0.09161   0.10232   0.10615   0.11106   0.11258

 Mulliken charges:
               1
     1  C    0.838510
     2  H   -0.250945
     3  C   -0.296185
     4  H   -0.168943
     5  C    0.860025
     6  H   -0.189788
     7  C   -0.769271
     8  H   -0.223924
     9  N    1.524592
    10  C   -1.977433
    11  C   -0.043355
    12  H   -0.215640
    13  C   -0.045143
    14  H   -0.262504
    15  C    1.425767
    16  C    1.170027
    17  C   -0.181080
    18  H   -0.189757
    19  C    0.265427
    20  H   -0.202643
    21  F   -1.067736
 Sum of Mulliken charges =  -0.00000

 Dipole moment (field-independent basis, Debye):
    X=             -0.6857    Y=             -0.3558    Z=              2.1474  Tot=              2.2821

 Test job not archived.
 1\1\GINC-SE403\SP\RHF\Aug-CC-pVDZ\C11H8F1N1\OHZDE\09-Apr-2025\0\\#t hf
  aug-cc-pvdz iop(5/13=1,5/36=2,99/5=2) pseudo=read geom=check guess=(r
 ead,tcheck) scf=(maxcycle=1)\\title\\0,1\C,0,21.7914,-33.5375,-1.1508\
 H,0,22.308,-33.7449,-2.084\C,0,20.3964,-33.514,-1.0809\H,0,19.7935,-33
 .7038,-1.9648\C,0,19.7985,-33.2463,0.1533\H,0,18.7184,-33.2199,0.2632\
 C,0,20.6228,-33.0116,1.2592\H,0,20.1902,-32.8025,2.2356\N,0,21.967,-33
 .03,1.2095\C,0,22.5334,-33.2844,0.0122\C,0,26.1762,-32.1844,0.0007\H,0
 ,26.7495,-31.2619,0.0104\C,0,24.7783,-32.1381,-0.0028\H,0,24.2557,-31.

 Normal termination of Gaussian 16 at Wed Apr  9 02:30:08 2025.
