 Gaussian 16, Revision C.01,

 ----------------------------------------------------------------------
 #t hf aug-cc-pvdz symm=none int=(grid=ultrafine) guess=(read,tcheck) s
 table=(opt,rrhf)
 ----------------------------------------------------------------------
 -----
 title
 -----
 Symbolic Z-matrix:
 Charge = -1 Multiplicity = 1

 SCF Done:  E(RHF) =  -971.889321027     A.U. after   16 cycles
 Normal termination of Gaussian 16 at Wed Apr  9 02:41:02 2025.
 Gaussian 16:  ES64L-G16RevC.01  3-Jul-2019

 ----------------------------------------------------------------------
 #t hf aug-cc-pvdz iop(5/13=1,5/36=2,99/5=2) pseudo=read geom=check gue
 ss=(read,tcheck) scf=(maxcycle=1)
 ----------------------------------------------------------------------
 -----
 title
 -----
 Structure from the checkpoint file:  "E2SN2_187_mol1.chk"
 Charge = -1 Multiplicity = 1

                         Standard orientation:
 ---------------------------------------------------------------------
 Center     Atomic      Atomic             Coordinates (Angstroms)
 Number     Number       Type             X           Y           Z
 ---------------------------------------------------------------------
      1          6           0       -0.971963    0.546214    0.170928
      2          1           0        0.359092    1.007165   -1.392523
      3         17           0       -0.892653   -1.252629    1.424048
      4          9           0       -0.911931    2.365448   -0.512029
      5          6           0        0.419850    0.486399   -0.437674
      6          1           0       -1.081656    1.110149    1.074332
      7          6           0       -2.164249    0.173817   -0.665018
      8          1           0       -2.220498    0.866935   -1.501929
      9          1           0       -2.096977   -0.852322   -1.020263
     10          1           0       -3.063451    0.272347   -0.055798
     11          7           0        0.919900   -0.899302   -0.795394
     12          8           0        1.940932   -1.327260   -0.272104
     13          8           0        0.271200   -1.467943   -1.668811
     14          6           0        1.393530    1.163414    0.409465
     15          7           0        2.183801    1.719868    1.074927
 ---------------------------------------------------------------------

 SCF Done:  E(RHF) =  -972.459733704     A.U. after    2 cycles

 The electronic state is 1-A.
 Alpha  occ. eigenvalues -- -105.35657 -26.16319 -20.48672 -20.48060 -15.68206
 Alpha  occ. eigenvalues --  -15.41118 -11.24076 -11.23924 -11.18343 -11.11795
 Alpha  occ. eigenvalues --  -10.40500  -7.57339  -7.57162  -7.57148  -1.55684
 Alpha  occ. eigenvalues --   -1.39681  -1.24172  -1.11551  -1.04763  -0.92964
 Alpha  occ. eigenvalues --   -0.82518  -0.82154  -0.72684  -0.68944  -0.65469
 Alpha  occ. eigenvalues --   -0.63290  -0.60248  -0.51797  -0.50426  -0.47703
 Alpha  occ. eigenvalues --   -0.46822  -0.43175  -0.40148  -0.39195  -0.38229
 Alpha  occ. eigenvalues --   -0.36958  -0.35281  -0.34046  -0.32302  -0.32082
 Alpha  occ. eigenvalues --   -0.28208  -0.27535  -0.25961
 Alpha virt. eigenvalues --    0.13157   0.13880   0.14903   0.15546   0.16812
 Alpha virt. eigenvalues --    0.17304   0.18775   0.20513   0.21700   0.22499
 Alpha virt. eigenvalues --    0.22983   0.23781   0.24792   0.25041   0.26026

 Mulliken charges:
               1
     1  C    0.225559
     2  H    0.412281
     3  Cl  -0.680220
     4  F   -0.883153
     5  C    0.106930
     6  H   -0.012328
     7  C   -0.326331
     8  H    0.272858
     9  H    0.286826
    10  H    0.174356
    11  N    2.922139
    12  O   -1.393431
    13  O   -1.546249
    14  C   -1.590515
    15  N    1.031277
 Sum of Mulliken charges =  -1.00000

 Dipole moment (field-independent basis, Debye):
    X=             -1.3541    Y=             -1.7865    Z=             -3.3264  Tot=              4.0112

 Test job not archived.
 1\1\GINC-SE208\SP\RHF\Aug-CC-pVDZ\C4H5Cl1F1N2O2(1-)\OHZDE\09-Apr-2025\
 0\\#t hf aug-cc-pvdz iop(5/13=1,5/36=2,99/5=2) pseudo=read geom=check
 guess=(read,tcheck) scf=(maxcycle=1)\\title\\-1,1\C,0,0.38857577,-0.06
 452282,0.10022482\H,0,1.71032778,1.52301015,0.5018123\Cl,0,-1.78628148
 ,-0.01524547,0.38307503\F,0,2.1877425,-0.12561671,-0.6338846\C,0,0.680
 56406,1.42621195,0.15999162\H,0,0.20314088,-0.48326626,-0.86748512\C,0
 ,0.73845665,-0.93701745,1.27298478\H,0,1.8159104,-0.89253568,1.4182772
 4\H,0,0.21627259,-0.6218461,2.17391594\H,0,0.44875206,-1.96331894,1.04

 Normal termination of Gaussian 16 at Wed Apr  9 02:41:10 2025.
