 Gaussian 16, Revision C.01,

 ----------------------------------------------------------------------
 #t hf aug-cc-pvdz symm=none int=(grid=ultrafine) guess=(read,tcheck) s
 table=(opt,rrhf)
 ----------------------------------------------------------------------
 -----
 title
 -----
 Symbolic Z-matrix:
 Charge = -1 Multiplicity = 1

 SCF Done:  E(RHF) =  -839.446873542     A.U. after   15 cycles
 Normal termination of Gaussian 16 at Wed Apr  9 02:57:02 2025.
 Gaussian 16:  ES64L-G16RevC.01  3-Jul-2019

 ----------------------------------------------------------------------
 #t hf aug-cc-pvdz iop(5/13=1,5/36=2,99/5=2) pseudo=read geom=check gue
 ss=(read,tcheck) scf=(maxcycle=1)
 ----------------------------------------------------------------------
 -----
 title
 -----
 Structure from the checkpoint file:  "E2SN2_370_mol1.chk"
 Charge = -1 Multiplicity = 1

                         Standard orientation:
 ---------------------------------------------------------------------
 Center     Atomic      Atomic             Coordinates (Angstroms)
 Number     Number       Type             X           Y           Z
 ---------------------------------------------------------------------
      1          6           0       -0.676365   -0.475734   -0.309773
      2          1           0       -1.166276    1.264804    0.536323
      3         17           0        1.483374   -1.438428   -0.461054
      4          9           0       -2.466814    0.689656   -0.809470
      5          6           0       -0.221119    0.707387    0.498909
      6          1           0       -0.718581   -0.407069   -1.377442
      7          7           0       -1.416367   -1.392743    0.322933
      8          1           0       -2.266377   -1.568094   -0.187955
      9          1           0       -1.542255   -1.181012    1.301790
     10          6           0        0.761632    1.555861   -0.190930
     11          7           0        1.530626    2.331006   -0.624249
     12          7           0        0.183857    0.284738    1.833043
     13          1           0        0.362644    1.100288    2.404956
     14          1           0        1.043103   -0.248649    1.734155
 ---------------------------------------------------------------------

 SCF Done:  E(RHF) =  -839.904695554     A.U. after    2 cycles

 The electronic state is 1-A.
 Alpha  occ. eigenvalues -- -105.32790 -26.11720 -15.39774 -15.39509 -15.39200
 Alpha  occ. eigenvalues --  -11.24018 -11.19056 -11.16406 -10.37563  -7.54369
 Alpha  occ. eigenvalues --   -7.54255  -7.54232  -1.18907  -1.14073  -1.10190
 Alpha  occ. eigenvalues --   -1.07792  -0.89983  -0.79875  -0.74072  -0.67252
 Alpha  occ. eigenvalues --   -0.61777  -0.58370  -0.57931  -0.51463  -0.48560
 Alpha  occ. eigenvalues --   -0.45988  -0.42141  -0.38309  -0.36564  -0.35444
 Alpha  occ. eigenvalues --   -0.28724  -0.27938  -0.27536  -0.25620  -0.24925
 Alpha  occ. eigenvalues --   -0.24603
 Alpha virt. eigenvalues --    0.12233   0.13603   0.15302   0.15657   0.16931
 Alpha virt. eigenvalues --    0.17124   0.18761   0.21264   0.22729   0.23442
 Alpha virt. eigenvalues --    0.24176   0.24834   0.25851   0.26527   0.26844

 Mulliken charges:
               1
     1  C   -0.481290
     2  H    0.374291
     3  Cl  -0.710133
     4  F   -0.921154
     5  C   -0.690756
     6  H   -0.132939
     7  N    0.591443
     8  H    0.290428
     9  H    0.263216
    10  C   -1.338631
    11  N    0.874958
    12  N    0.389877
    13  H    0.185106
    14  H    0.305585
 Sum of Mulliken charges =  -1.00000

 Dipole moment (field-independent basis, Debye):
    X=             -0.9737    Y=             -1.1552    Z=              5.2140  Tot=              5.4284

 Test job not archived.
 1\1\GINC-SE059\SP\RHF\Aug-CC-pVDZ\C3H6Cl1F1N3(1-)\OHZDE\09-Apr-2025\0\
 \#t hf aug-cc-pvdz iop(5/13=1,5/36=2,99/5=2) pseudo=read geom=check gu
 ess=(read,tcheck) scf=(maxcycle=1)\\title\\-1,1\C,0,0.32566043,-0.1481
 7034,-0.06018487\H,0,1.70119625,1.29810216,-0.02070339\Cl,0,-2.0211310
 1,0.09936019,0.15297887\F,0,2.43472183,-0.45167878,0.46257654\C,0,0.60
 370884,1.32898419,-0.01903105\H,0,0.3457912,-0.71969703,0.84500351\N,0
 ,0.49964103,-0.76436013,-1.23443633\H,0,1.10288526,-1.56311106,-1.1232
 4239\H,0,0.76576892,-0.12726987,-1.97073058\C,0,0.18494946,1.97774954,

 Normal termination of Gaussian 16 at Wed Apr  9 02:57:08 2025.
