 Gaussian 16, Revision C.01,

 ----------------------------------------------------------------------
 #t hf aug-cc-pvdz symm=none int=(grid=ultrafine) guess=(read,tcheck) s
 table=(opt,rrhf)
 ----------------------------------------------------------------------
 -----
 title
 -----
 Symbolic Z-matrix:
 Charge = -1 Multiplicity = 1

 SCF Done:  E(RHF) =  -1292.98583702     A.U. after   16 cycles
 Normal termination of Gaussian 16 at Wed Apr  9 02:39:53 2025.
 Gaussian 16:  ES64L-G16RevC.01  3-Jul-2019

 ----------------------------------------------------------------------
 #t hf aug-cc-pvdz iop(5/13=1,5/36=2,99/5=2) pseudo=read geom=check gue
 ss=(read,tcheck) scf=(maxcycle=1)
 ----------------------------------------------------------------------
 -----
 title
 -----
 Structure from the checkpoint file:  "E2SN2_174_mol2.chk"
 Charge = -1 Multiplicity = 1

                         Standard orientation:
 ---------------------------------------------------------------------
 Center     Atomic      Atomic             Coordinates (Angstroms)
 Number     Number       Type             X           Y           Z
 ---------------------------------------------------------------------
      1          6           0       -0.102069    0.726675   -0.177265
      2          6           0        0.326294   -0.336189    0.810700
      3         17           0        1.292220    1.783802   -0.622763
      4          1           0        0.717547    0.080104    1.737007
      5          1           0       -0.479700    0.250830   -1.080590
      6          1           0       -0.545836   -0.983688    0.965540
      7          6           0       -1.128692    1.571279    0.424127
      8          7           0       -1.876480    2.322545    0.928869
      9          7           0        1.398830   -1.202786    0.250630
     10          8           0        2.167571   -1.713480    1.064948
     11          8           0        1.421395   -1.388446   -0.961057
     12         17           0       -2.447126   -1.439140   -0.380469
 ---------------------------------------------------------------------

 SCF Done:  E(RHF) =  -1293.50023523     A.U. after    2 cycles

 The electronic state is 1-A.
 Alpha  occ. eigenvalues -- -105.48230-105.29077 -20.49401 -20.49032 -15.68728
 Alpha  occ. eigenvalues --  -15.42486 -11.25597 -11.21270 -11.19716 -10.53066
 Alpha  occ. eigenvalues --  -10.33686  -7.70012  -7.69630  -7.69612  -7.50453
 Alpha  occ. eigenvalues --   -7.50423  -7.50407  -1.56356  -1.40322  -1.13175
 Alpha  occ. eigenvalues --   -1.07726  -0.99231  -0.88158  -0.76805  -0.74527
 Alpha  occ. eigenvalues --   -0.67804  -0.65823  -0.65634  -0.62198  -0.55200
 Alpha  occ. eigenvalues --   -0.51849  -0.50768  -0.46799  -0.41005  -0.39929
 Alpha  occ. eigenvalues --   -0.38931  -0.38774  -0.37442  -0.36796  -0.34665
 Alpha  occ. eigenvalues --   -0.21907  -0.21525  -0.21356
 Alpha virt. eigenvalues --    0.12955   0.15118   0.15850   0.16849   0.17545
 Alpha virt. eigenvalues --    0.18051   0.21178   0.22226   0.22389   0.22650
 Alpha virt. eigenvalues --    0.23706   0.24739   0.25451   0.25948   0.26304

 Mulliken charges:
               1
     1  C   -0.001694
     2  C   -0.252913
     3  Cl  -0.044040
     4  H    0.137529
     5  H    0.341501
     6  H    0.274031
     7  C   -1.307848
     8  N    0.886966
     9  N    2.670076
    10  O   -1.420186
    11  O   -1.339180
    12  Cl  -0.944241
 Sum of Mulliken charges =  -1.00000

 Dipole moment (field-independent basis, Debye):
    X=              8.1945    Y=              3.7530    Z=              0.8697  Tot=              9.0549

 Test job not archived.
 1\1\GINC-SE229\SP\RHF\Aug-CC-pVDZ\C3H3Cl2N2O2(1-)\OHZDE\09-Apr-2025\0\
 \#t hf aug-cc-pvdz iop(5/13=1,5/36=2,99/5=2) pseudo=read geom=check gu
 ess=(read,tcheck) scf=(maxcycle=1)\\title\\-1,1\C,0,-0.06745,-0.028089
 ,0.018818\C,0,-0.502084,-0.503217,-1.350341\Cl,0,1.714664,0.259063,0.0
 59322\H,0,-0.023755,-1.43482,-1.646553\H,0,-0.57511,0.905025,0.256742\
 H,0,-1.596632,-0.573161,-1.320126\C,0,-0.378206,-1.048448,1.01445\N,0,
 -0.524664,-1.899923,1.809366\N,0,-0.17377,0.494348,-2.404891\O,0,0.018
 728,0.048438,-3.535817\O,0,-0.161562,1.681152,-2.097463\Cl,0,-3.221861

 Normal termination of Gaussian 16 at Wed Apr  9 02:40:02 2025.
