 Gaussian 16, Revision C.01,

 ----------------------------------------------------------------------
 #t hf aug-cc-pvdz symm=none int=(grid=ultrafine) guess=(read,tcheck) s
 table=(opt,rrhf)
 ----------------------------------------------------------------------
 -----
 title
 -----
 Symbolic Z-matrix:
 Charge = -1 Multiplicity = 1

 SCF Done:  E(RHF) =  -740.465436406     A.U. after   17 cycles
 Normal termination of Gaussian 16 at Wed Apr  9 02:56:28 2025.
 Gaussian 16:  ES64L-G16RevC.01  3-Jul-2019

 ----------------------------------------------------------------------
 #t hf aug-cc-pvdz iop(5/13=1,5/36=2,99/5=2) pseudo=read geom=check gue
 ss=(read,tcheck) scf=(maxcycle=1)
 ----------------------------------------------------------------------
 -----
 title
 -----
 Structure from the checkpoint file:  "E2SN2_369_mol1.chk"
 Charge = -1 Multiplicity = 1

                         Standard orientation:
 ---------------------------------------------------------------------
 Center     Atomic      Atomic             Coordinates (Angstroms)
 Number     Number       Type             X           Y           Z
 ---------------------------------------------------------------------
      1          6           0       -0.559700    0.570286   -0.591949
      2          1           0        0.931094    1.798031    0.263899
      3         17           0       -1.204114   -1.354477   -0.040838
      4          1           0        0.151322    2.164979   -1.737544
      5          6           0        0.686585    0.740275    0.285621
      6          1           0       -0.391707    0.286117   -1.614649
      7          7           0       -1.705906    1.339333   -0.190768
      8          1           0       -2.534922    0.843076   -0.495349
      9          1           0       -1.619876    2.202736   -0.711462
     10          6           0        1.813479    0.026606   -0.358300
     11          7           0        2.730629   -0.582660   -0.769223
     12          7           0        0.500792    0.363819    1.685673
     13          1           0        1.389008    0.473243    2.160836
     14          1           0        0.224222   -0.608519    1.736506
 ---------------------------------------------------------------------

 SCF Done:  E(RHF) =  -740.835189586     A.U. after    2 cycles

 The electronic state is 1-A.
 Alpha  occ. eigenvalues -- -105.37604 -15.38862 -15.37840 -15.36518 -11.22708
 Alpha  occ. eigenvalues --  -11.18555 -11.15959 -10.42430  -7.59277  -7.59079
 Alpha  occ. eigenvalues --   -7.59046  -1.11141  -1.08383  -1.05965  -0.89328
 Alpha  occ. eigenvalues --   -0.84490  -0.71441  -0.62247  -0.59987  -0.57372
 Alpha  occ. eigenvalues --   -0.52959  -0.50636  -0.47909  -0.47125  -0.37662
 Alpha  occ. eigenvalues --   -0.36890  -0.34250  -0.33056  -0.31442  -0.29538
 Alpha  occ. eigenvalues --   -0.29159  -0.11378
 Alpha virt. eigenvalues --    0.12947   0.14056   0.15340   0.16083   0.16655
 Alpha virt. eigenvalues --    0.17454   0.18765   0.20266   0.21682   0.23427
 Alpha virt. eigenvalues --    0.23993   0.24664   0.25399   0.26303   0.27079

 Mulliken charges:
               1
     1  C   -1.318844
     2  H    0.216297
     3  Cl  -0.493017
     4  H   -0.610421
     5  C   -0.199452
     6  H    0.009113
     7  N    0.573216
     8  H    0.223284
     9  H    0.264864
    10  C   -1.281868
    11  N    0.833260
    12  N    0.359369
    13  H    0.163507
    14  H    0.260691
 Sum of Mulliken charges =  -1.00000

 Dipole moment (field-independent basis, Debye):
    X=             -1.8102    Y=             -2.1683    Z=              4.9446  Tot=              5.6945

 Test job not archived.
 1\1\GINC-SE023\SP\RHF\Aug-CC-pVDZ\C3H7Cl1N3(1-)\OHZDE\09-Apr-2025\0\\#
 t hf aug-cc-pvdz iop(5/13=1,5/36=2,99/5=2) pseudo=read geom=check gues
 s=(read,tcheck) scf=(maxcycle=1)\\title\\-1,1\C,0,0.36183118,-0.064835
 23,-0.11869875\H,0,1.67673896,1.57005458,-0.36457379\Cl,0,-1.73682696,
 -0.13914983,-0.23623725\H,0,2.31083164,-0.27804064,0.60027928\C,0,0.61
 846537,1.44681403,-0.15487659\H,0,0.38374384,-0.53257528,0.84858081\N,
 0,0.70234712,-0.77700665,-1.31995889\H,0,0.10473673,-1.59303047,-1.377
 17661\H,0,1.65943351,-1.07020399,-1.17160422\C,0,0.38371464,1.99412234

 Normal termination of Gaussian 16 at Wed Apr  9 02:56:33 2025.
