 Gaussian 16, Revision C.01,

 ----------------------------------------------------------------------
 #t hf aug-cc-pvdz symm=none int=(grid=ultrafine) guess=(read,tcheck) s
 table=(opt,rrhf)
 ----------------------------------------------------------------------
 -----
 title
 -----
 Symbolic Z-matrix:
 Charge = -1 Multiplicity = 1

 SCF Done:  E(RHF) =  -1295.25276411     A.U. after   17 cycles
 Normal termination of Gaussian 16 at Wed Apr  9 03:01:35 2025.
 Gaussian 16:  ES64L-G16RevC.01  3-Jul-2019

 ----------------------------------------------------------------------
 #t hf aug-cc-pvdz iop(5/13=1,5/36=2,99/5=2) pseudo=read geom=check gue
 ss=(read,tcheck) scf=(maxcycle=1)
 ----------------------------------------------------------------------
 -----
 title
 -----
 Structure from the checkpoint file:  "E2SN2_56_mol1.chk"
 Charge = -1 Multiplicity = 1

                         Standard orientation:
 ---------------------------------------------------------------------
 Center     Atomic      Atomic             Coordinates (Angstroms)
 Number     Number       Type             X           Y           Z
 ---------------------------------------------------------------------
      1          6           0       -0.518366   -0.011957   -0.449009
      2          6           0        0.432762   -0.810931    0.181047
      3         17           0       -2.680645   -0.793726   -0.232975
      4         17           0        3.053061    0.379737   -0.346114
      5          1           0        1.571343   -0.058043   -0.206730
      6          1           0       -0.559462   -0.031706   -1.528659
      7          6           0        0.737968   -2.109025   -0.523346
      8          1           0        0.799237   -1.969324   -1.604494
      9          1           0        1.695952   -2.507427   -0.178329
     10          1           0       -0.057311   -2.823779   -0.292506
     11          7           0        0.522734   -0.919442    1.593191
     12          1           0        0.166674   -0.085525    2.040561
     13          1           0        1.490266   -1.064588    1.859429
     14          7           0       -0.765111    1.343705    0.024367
     15          8           0       -1.018867    2.189431   -0.836245
     16          8           0       -0.688047    1.585549    1.233765
 ---------------------------------------------------------------------

 SCF Done:  E(RHF) =  -1295.78790564     A.U. after    2 cycles

 The electronic state is 1-A.
 Alpha  occ. eigenvalues -- -105.37773-105.35164 -20.48391 -20.48039 -15.68171
 Alpha  occ. eigenvalues --  -15.37936 -11.24394 -11.15756 -11.12590 -10.42543
 Alpha  occ. eigenvalues --  -10.39824  -7.59411  -7.59212  -7.59207  -7.56651
 Alpha  occ. eigenvalues --   -7.56478  -7.56467  -1.55050  -1.38825  -1.10634
 Alpha  occ. eigenvalues --   -1.02355  -0.91054  -0.85238  -0.81296  -0.78956
 Alpha  occ. eigenvalues --   -0.71551  -0.65609  -0.62732  -0.62390  -0.60171
 Alpha  occ. eigenvalues --   -0.54052  -0.50066  -0.46043  -0.44226  -0.42802
 Alpha  occ. eigenvalues --   -0.38881  -0.37978  -0.35687  -0.33745  -0.32732
 Alpha  occ. eigenvalues --   -0.29690  -0.29636  -0.27003  -0.26741  -0.18179
 Alpha virt. eigenvalues --    0.12733   0.13081   0.13512   0.14247   0.15040
 Alpha virt. eigenvalues --    0.16474   0.17163   0.18025   0.20452   0.22505
 Alpha virt. eigenvalues --    0.23305   0.24210   0.25100   0.25399   0.26079

 Mulliken charges:
               1
     1  C   -0.265228
     2  C   -1.859777
     3  Cl  -0.630310
     4  Cl  -0.645017
     5  H    0.874389
     6  H   -0.010833
     7  C    0.031058
     8  H    0.179144
     9  H    0.119767
    10  H    0.205953
    11  N    0.698654
    12  H    0.133647
    13  H    0.216161
    14  N    2.846516
    15  O   -1.418193
    16  O   -1.475931
 Sum of Mulliken charges =  -1.00000

 Dipole moment (field-independent basis, Debye):
    X=              2.0029    Y=             -1.1804    Z=             -0.0177  Tot=              2.3249

 Test job not archived.
 1\1\GINC-SE143\SP\RHF\Aug-CC-pVDZ\C3H7Cl2N2O2(1-)\OHZDE\09-Apr-2025\0\
 \#t hf aug-cc-pvdz iop(5/13=1,5/36=2,99/5=2) pseudo=read geom=check gu
 ess=(read,tcheck) scf=(maxcycle=1)\\title\\-1,1\C,0,-0.33003697,0.0104
 6172,-0.26396492\C,0,-0.06373518,0.0044961,1.103157\Cl,0,1.56574712,-0
 .05000539,-1.58139764\Cl,0,-2.63486313,0.17906903,2.48893372\H,0,-1.41
 098677,0.09496118,1.53939706\H,0,-0.67654418,0.93313208,-0.70706312\C,
 0,0.46606709,1.30544905,1.65197327\H,0,-0.05727156,2.16101096,1.220368
 57\H,0,0.33179602,1.33803831,2.73659457\H,0,1.53197247,1.3727689,1.415

 Normal termination of Gaussian 16 at Wed Apr  9 03:01:43 2025.
