 Gaussian 16, Revision C.01,

 ----------------------------------------------------------------------
 #t hf aug-cc-pvdz symm=none int=(grid=ultrafine) guess=(read,tcheck) s
 table=(opt,rrhf)
 ----------------------------------------------------------------------
 -----
 title
 -----
 Symbolic Z-matrix:
 Charge = -1 Multiplicity = 1

 SCF Done:  E(RHF) =  -528.863910692     A.U. after   17 cycles
 Normal termination of Gaussian 16 at Wed Apr  9 02:44:15 2025.
 Gaussian 16:  ES64L-G16RevC.01  3-Jul-2019

 ----------------------------------------------------------------------
 #t hf aug-cc-pvdz iop(5/13=1,5/36=2,99/5=2) pseudo=read geom=check gue
 ss=(read,tcheck) scf=(maxcycle=1)
 ----------------------------------------------------------------------
 -----
 title
 -----
 Structure from the checkpoint file:  "E2SN2_223_mol1.chk"
 Charge = -1 Multiplicity = 1

                         Standard orientation:
 ---------------------------------------------------------------------
 Center     Atomic      Atomic             Coordinates (Angstroms)
 Number     Number       Type             X           Y           Z
 ---------------------------------------------------------------------
      1          6           0       -0.400335    0.407477   -0.480286
      2          1           0        0.615194    0.641655    1.361256
      3          9           0       -0.178512   -1.010246   -1.203262
      4          1           0       -0.832501    1.969600    0.298946
      5          6           0        0.894336    0.567764    0.306424
      6          1           0       -0.580005    0.979369   -1.373121
      7          7           0       -1.607755    0.000198    0.247677
      8          8           0       -1.459859   -0.533180    1.350670
      9          8           0       -2.683969    0.097206   -0.339952
     10          7           0        1.611023    1.746633   -0.201633
     11          1           0        2.390869    1.932908    0.420766
     12          1           0        0.923391    2.491523   -0.077213
     13          6           0        1.810290   -0.585973    0.195851
     14          7           0        2.627381   -1.428354    0.236964
 ---------------------------------------------------------------------

 SCF Done:  E(RHF) =  -529.375378067     A.U. after    2 cycles

 The electronic state is 1-A.
 Alpha  occ. eigenvalues --  -26.24789 -20.43990 -20.43913 -15.64844 -15.38627
 Alpha  occ. eigenvalues --  -15.38367 -11.25814 -11.19599 -11.16163  -1.51468
 Alpha  occ. eigenvalues --   -1.35112  -1.34227  -1.10822  -1.07784  -0.98008
 Alpha  occ. eigenvalues --   -0.85990  -0.72942  -0.65665  -0.62644  -0.60250
 Alpha  occ. eigenvalues --   -0.58377  -0.54642  -0.54156  -0.51404  -0.47061
 Alpha  occ. eigenvalues --   -0.43736  -0.41109  -0.39745  -0.37189  -0.36391
 Alpha  occ. eigenvalues --   -0.35263  -0.33981  -0.33126  -0.30524  -0.15875
 Alpha virt. eigenvalues --    0.12683   0.14761   0.15254   0.15984   0.17943
 Alpha virt. eigenvalues --    0.18446   0.20411   0.22540   0.22841   0.23475
 Alpha virt. eigenvalues --    0.24657   0.25291   0.25812   0.27107   0.27218

 Mulliken charges:
               1
     1  C    0.608517
     2  H    0.210472
     3  F   -0.881261
     4  H   -0.257490
     5  C   -0.460609
     6  H   -0.132486
     7  N    2.867539
     8  O   -1.464260
     9  O   -1.461675
    10  N    0.517451
    11  H    0.120786
    12  H    0.188020
    13  C   -1.750436
    14  N    0.895432
 Sum of Mulliken charges =  -1.00000

 Dipole moment (field-independent basis, Debye):
    X=              1.3235    Y=              2.2854    Z=              0.7874  Tot=              2.7558

 Test job not archived.
 1\1\GINC-SE097\SP\RHF\Aug-CC-pVDZ\C3H5F1N3O2(1-)\OHZDE\09-Apr-2025\0\\
 #t hf aug-cc-pvdz iop(5/13=1,5/36=2,99/5=2) pseudo=read geom=check gue
 ss=(read,tcheck) scf=(maxcycle=1)\\title\\-1,1\C,0,0.20882564,-0.00030
 211,-0.14473701\H,0,1.51083927,1.58701024,-0.65719969\F,0,-1.14483405,
 -0.07442101,-1.00726256\H,0,1.74410906,-0.10102433,0.78636865\C,0,0.52
 911938,1.4885016,-0.18542207\H,0,-0.1822543,-0.45828052,0.74622221\N,0
 ,0.97426638,-0.89798739,-1.01762329\O,0,1.56526927,-0.39735946,-1.9783
 7601\O,0,0.87513577,-2.10706053,-0.81447156\N,0,0.47312534,2.01966584,

 Normal termination of Gaussian 16 at Wed Apr  9 02:44:20 2025.
