 Gaussian 16, Revision C.01,

 ----------------------------------------------------------------------
 #t hf aug-cc-pvdz symm=none int=(grid=ultrafine) guess=(read,tcheck) s
 table=(opt,rrhf)
 ----------------------------------------------------------------------
 -----
 title
 -----
 Symbolic Z-matrix:
 Charge = -1 Multiplicity = 1

 SCF Done:  E(RHF) =  -932.852108848     A.U. after   17 cycles
 Normal termination of Gaussian 16 at Wed Apr  9 02:37:36 2025.
 Gaussian 16:  ES64L-G16RevC.01  3-Jul-2019

 ----------------------------------------------------------------------
 #t hf aug-cc-pvdz iop(5/13=1,5/36=2,99/5=2) pseudo=read geom=check gue
 ss=(read,tcheck) scf=(maxcycle=1)
 ----------------------------------------------------------------------
 -----
 title
 -----
 Structure from the checkpoint file:  "E2SN2_163_mol1.chk"
 Charge = -1 Multiplicity = 1

                         Standard orientation:
 ---------------------------------------------------------------------
 Center     Atomic      Atomic             Coordinates (Angstroms)
 Number     Number       Type             X           Y           Z
 ---------------------------------------------------------------------
      1          6           0        0.353439   -0.160182    0.527728
      2          1           0       -0.333228   -1.752708   -0.739325
      3          9           0       -1.129296    0.873310    1.365538
      4         17           0        2.064077   -1.112467   -0.037856
      5          6           0       -0.678197   -1.193444    0.131861
      6          1           0        0.640774    0.011340    1.543905
      7          1           0       -0.739653   -1.893607    0.969250
      8          7           0        0.461397    1.039266   -0.324809
      9          8           0       -0.096742    0.996471   -1.418150
     10          8           0        1.142919    1.963813    0.096889
     11          6           0       -2.028796   -0.707768   -0.159061
     12          7           0       -3.138771   -0.557379   -0.511361
 ---------------------------------------------------------------------

 SCF Done:  E(RHF) =  -933.379947723     A.U. after    2 cycles

 The electronic state is 1-A.
 Alpha  occ. eigenvalues -- -105.41345 -26.14390 -20.46165 -20.46044 -15.66603
 Alpha  occ. eigenvalues --  -15.37136 -11.27511 -11.18009 -11.15924 -10.46154
 Alpha  occ. eigenvalues --   -7.63030  -7.62765  -7.62755  -1.53691  -1.37602
 Alpha  occ. eigenvalues --   -1.22283  -1.08099  -1.03356  -0.91177  -0.87474
 Alpha  occ. eigenvalues --   -0.73192  -0.66394  -0.63007  -0.61319  -0.57687
 Alpha  occ. eigenvalues --   -0.53136  -0.50484  -0.46492  -0.39848  -0.38079
 Alpha  occ. eigenvalues --   -0.36237  -0.35668  -0.35098  -0.32743  -0.32567
 Alpha  occ. eigenvalues --   -0.31614  -0.30693  -0.29608  -0.27451
 Alpha virt. eigenvalues --    0.13402   0.14371   0.15210   0.17045   0.18186
 Alpha virt. eigenvalues --    0.19758   0.22187   0.23331   0.23854   0.24824
 Alpha virt. eigenvalues --    0.25348   0.25626   0.26899   0.27384   0.27760

 Mulliken charges:
               1
     1  C   -0.080373
     2  H    0.343466
     3  F   -0.889924
     4  Cl  -0.405168
     5  C    0.204910
     6  H   -0.000704
     7  H    0.331206
     8  N    3.047179
     9  O   -1.462331
    10  O   -1.516036
    11  C   -1.487726
    12  N    0.915502
 Sum of Mulliken charges =  -1.00000

 Dipole moment (field-independent basis, Debye):
    X=              4.2380    Y=             -3.9634    Z=             -0.0078  Tot=              5.8025

 Test job not archived.
 1\1\GINC-SE462\SP\RHF\Aug-CC-pVDZ\C3H3Cl1F1N2O2(1-)\OHZDE\09-Apr-2025\
 0\\#t hf aug-cc-pvdz iop(5/13=1,5/36=2,99/5=2) pseudo=read geom=check
 guess=(read,tcheck) scf=(maxcycle=1)\\title\\-1,1\C,0,0.82229987,-0.02
 706921,0.02827536\H,0,1.66976759,1.86341413,0.59479524\F,0,-1.16472149
 ,-0.07053156,0.16390066\Cl,0,2.81034212,-0.24027743,-0.36573014\C,0,0.
 73485642,1.47476923,0.18780476\H,0,0.47072314,-0.5381861,-0.84336148\H
 ,0,0.62233918,1.87866758,-0.82186394\N,0,0.74017179,-0.83721275,1.2587
 5205\O,0,0.86675725,-0.24216037,2.32581957\O,0,0.60721585,-2.04591535,

 Normal termination of Gaussian 16 at Wed Apr  9 02:37:42 2025.
