 Gaussian 16, Revision C.01,

 ----------------------------------------------------------------------
 #t hf aug-cc-pvdz symm=none int=(grid=ultrafine) guess=(read,tcheck) s
 table=(opt,rrhf)
 ----------------------------------------------------------------------
 -----
 title
 -----
 Symbolic Z-matrix:
 Charge = -1 Multiplicity = 1

 SCF Done:  E(RHF) =  -1423.72501272     A.U. after   17 cycles
 Normal termination of Gaussian 16 at Wed Apr  9 02:46:14 2025.
 Gaussian 16:  ES64L-G16RevC.01  3-Jul-2019

 ----------------------------------------------------------------------
 #t hf aug-cc-pvdz iop(5/13=1,5/36=2,99/5=2) pseudo=read geom=check gue
 ss=(read,tcheck) scf=(maxcycle=1)
 ----------------------------------------------------------------------
 -----
 title
 -----
 Structure from the checkpoint file:  "E2SN2_227_mol2.chk"
 Charge = -1 Multiplicity = 1

                         Standard orientation:
 ---------------------------------------------------------------------
 Center     Atomic      Atomic             Coordinates (Angstroms)
 Number     Number       Type             X           Y           Z
 ---------------------------------------------------------------------
      1          6           0       -0.763490   -0.227662    0.135799
      2          6           0        0.276526    0.806213   -0.312551
      3         17           0       -2.278799   -0.120087   -0.791125
      4          1           0        1.216448    0.619070    0.261030
      5          7           0       -0.161246   -1.636728   -0.069642
      6          8           0        0.401531   -2.109931    0.906288
      7          8           0       -0.264734   -2.127464   -1.182464
      8          6           0       -1.089848   -0.091171    1.551915
      9          7           0       -1.392674    0.064286    2.676973
     10          6           0       -0.245082    2.129729    0.012359
     11          7           0       -0.666440    3.202473    0.242359
     12          6           0        0.676797    0.710361   -1.783519
     13          1           0       -0.179344    0.821881   -2.451450
     14          1           0        1.186074   -0.234219   -1.961211
     15          1           0        1.405525    1.498500   -1.972006
     16         17           0        3.319390    0.109433    0.247667
 ---------------------------------------------------------------------

 SCF Done:  E(RHF) =  -1424.36020081     A.U. after    2 cycles

 The electronic state is 1-A.
 Alpha  occ. eigenvalues -- -105.52287-105.29084 -20.52634 -20.52190 -15.72394
 Alpha  occ. eigenvalues --  -15.46502 -15.43096 -11.34857 -11.22959 -11.20912
 Alpha  occ. eigenvalues --  -11.20105 -11.14749 -10.57123 -10.33695  -7.74086
 Alpha  occ. eigenvalues --   -7.73651  -7.73647  -7.50474  -7.50424  -7.50420
 Alpha  occ. eigenvalues --   -1.59845  -1.44162  -1.17440  -1.13957  -1.11952
 Alpha  occ. eigenvalues --   -0.99731  -0.96615  -0.86430  -0.79868  -0.74774
 Alpha  occ. eigenvalues --   -0.74014  -0.69391  -0.67857  -0.63009  -0.61303
 Alpha  occ. eigenvalues --   -0.55674  -0.54624  -0.52210  -0.49621  -0.46771
 Alpha  occ. eigenvalues --   -0.46089  -0.44711  -0.43900  -0.43287  -0.41665
 Alpha  occ. eigenvalues --   -0.40732  -0.39636  -0.39392  -0.39187  -0.36972
 Alpha  occ. eigenvalues --   -0.21699  -0.21430  -0.21398
 Alpha virt. eigenvalues --    0.11975   0.13132   0.14004   0.14832   0.15565
 Alpha virt. eigenvalues --    0.16711   0.17694   0.18242   0.19204   0.19412
 Alpha virt. eigenvalues --    0.20486   0.21777   0.22409   0.22506   0.23158

 Mulliken charges:
               1
     1  C   -0.123764
     2  C   -0.015442
     3  Cl   0.140267
     4  H    0.335971
     5  N    3.174097
     6  O   -1.434419
     7  O   -1.536338
     8  C   -1.954651
     9  N    1.166041
    10  C   -1.793194
    11  N    1.028606
    12  C    0.223794
    13  H    0.260823
    14  H    0.234364
    15  H    0.232100
    16  Cl  -0.938255
 Sum of Mulliken charges =  -1.00000

 Dipole moment (field-independent basis, Debye):
    X=             -9.6457    Y=             -2.4935    Z=             -4.9730  Tot=             11.1350

 Test job not archived.
 1\1\GINC-SE344\SP\RHF\Aug-CC-pVDZ\C5H4Cl2N3O2(1-)\OHZDE\09-Apr-2025\0\
 \#t hf aug-cc-pvdz iop(5/13=1,5/36=2,99/5=2) pseudo=read geom=check gu
 ess=(read,tcheck) scf=(maxcycle=1)\\title\\-1,1\C,0,0.214557,-0.062259
 ,0.017933\C,0,-0.560779,0.132227,-1.290722\Cl,0,1.968671,0.156781,-0.1
 87077\H,0,-1.6507,0.055956,-1.058931\N,0,-0.29454,0.981264,1.038841\O,
 0,-1.191429,0.596163,1.773937\O,0,0.208873,2.092346,0.994391\C,0,-0.01
 1192,-1.385239,0.591766\N,0,-0.149251,-2.473022,1.015196\C,0,-0.172907
 ,-0.941279,-2.19983\N,0,0.152662,-1.783787,-2.951765\C,0,-0.382164,1.5

 Normal termination of Gaussian 16 at Wed Apr  9 02:46:26 2025.
