 Gaussian 16, Revision C.01,

 ----------------------------------------------------------------------
 #t hf aug-cc-pvdz symm=none int=(grid=ultrafine) guess=(read,tcheck) s
 table=(opt,rrhf)
 ----------------------------------------------------------------------
 -----
 title
 -----
 Symbolic Z-matrix:
 Charge = -1 Multiplicity = 1

 SCF Done:  E(RHF) =  -974.220983923     A.U. after   16 cycles
 Normal termination of Gaussian 16 at Wed Apr  9 02:47:07 2025.
 Gaussian 16:  ES64L-G16RevC.01  3-Jul-2019

 ----------------------------------------------------------------------
 #t hf aug-cc-pvdz iop(5/13=1,5/36=2,99/5=2) pseudo=read geom=check gue
 ss=(read,tcheck) scf=(maxcycle=1)
 ----------------------------------------------------------------------
 -----
 title
 -----
 Structure from the checkpoint file:  "E2SN2_246_mol1.chk"
 Charge = -1 Multiplicity = 1

                         Standard orientation:
 ---------------------------------------------------------------------
 Center     Atomic      Atomic             Coordinates (Angstroms)
 Number     Number       Type             X           Y           Z
 ---------------------------------------------------------------------
      1          6           0        0.038530    0.040397    0.326996
      2          1           0       -0.916315    0.765692   -1.406158
      3          9           0       -0.594628   -1.735950    0.980440
      4         17           0        1.136044    1.815221   -0.387657
      5          6           0       -1.244139    0.320928   -0.465704
      6          7           0        1.063950   -0.868917   -0.322400
      7          8           0        0.854500   -1.222000   -1.476746
      8          8           0        2.047251   -1.162711    0.342831
      9          7           0        0.190396    0.362832    1.690579
     10          1           0        1.136550    0.674861    1.855323
     11          1           0        0.019285   -0.520666    2.160742
     12          6           0       -2.058697    1.359054    0.300389
     13          1           0       -2.403602    0.936096    1.245907
     14          1           0       -1.464986    2.245017    0.521489
     15          1           0       -2.930184    1.650339   -0.295891
     16          6           0       -2.127851   -0.871109   -0.832910
     17          1           0       -1.555150   -1.645432   -1.336526
     18          1           0       -2.576588   -1.310513    0.053164
     19          1           0       -2.911610   -0.505935   -1.510403
 ---------------------------------------------------------------------

 SCF Done:  E(RHF) =  -974.813755744     A.U. after    2 cycles

 The electronic state is 1-A.
 Alpha  occ. eigenvalues -- -105.35896 -26.15253 -20.44429 -20.44363 -15.64975
 Alpha  occ. eigenvalues --  -15.36693 -11.29673 -11.12154 -11.09868 -11.08550
 Alpha  occ. eigenvalues --  -10.40749  -7.57591  -7.57391  -7.57381  -1.52141
 Alpha  occ. eigenvalues --   -1.36040  -1.23737  -1.09859  -0.96670  -0.91606
 Alpha  occ. eigenvalues --   -0.82758  -0.80011  -0.73824  -0.67413  -0.63187
 Alpha  occ. eigenvalues --   -0.60359  -0.59707  -0.57512  -0.51801  -0.49337
 Alpha  occ. eigenvalues --   -0.43824  -0.42122  -0.41232  -0.39282  -0.37420
 Alpha  occ. eigenvalues --   -0.36234  -0.34283  -0.33477  -0.32468  -0.31933
 Alpha  occ. eigenvalues --   -0.30598  -0.29871  -0.27778  -0.27435  -0.27116
 Alpha virt. eigenvalues --    0.12191   0.13223   0.14081   0.14328   0.15697
 Alpha virt. eigenvalues --    0.16417   0.16482   0.17482   0.18007   0.18971
 Alpha virt. eigenvalues --    0.21871   0.23057   0.23900   0.24860   0.25229

 Mulliken charges:
               1
     1  C   -2.688806
     2  H    0.287246
     3  F   -0.931951
     4  Cl  -0.483024
     5  C   -0.435703
     6  N    3.766011
     7  O   -1.685140
     8  O   -1.603210
     9  N    0.805615
    10  H    0.374945
    11  H    0.483012
    12  C   -0.098906
    13  H    0.274836
    14  H    0.250818
    15  H    0.074198
    16  C   -0.071176
    17  H    0.223467
    18  H    0.335000
    19  H    0.122768
 Sum of Mulliken charges =  -1.00000

 Dipole moment (field-independent basis, Debye):
    X=             -2.5178    Y=              1.6639    Z=              0.1352  Tot=              3.0210

 Test job not archived.
 1\1\GINC-SE419\SP\RHF\Aug-CC-pVDZ\C4H9Cl1F1N2O2(1-)\OHZDE\09-Apr-2025\
 0\\#t hf aug-cc-pvdz iop(5/13=1,5/36=2,99/5=2) pseudo=read geom=check
 guess=(read,tcheck) scf=(maxcycle=1)\\title\\-1,1\C,0,0.68476093,-0.04
 195355,0.04159817\H,0,1.62882636,1.76445465,-0.49434645\F,0,-1.1399519
 4,-0.31915376,-0.71791954\Cl,0,2.78806226,-0.1275567,0.70043337\C,0,0.
 6387982,1.4808836,-0.13494697\N,0,1.02377833,-0.86708274,-1.18489324\O
 ,0,1.35103483,-0.26251548,-2.19902016\O,0,0.97657984,-2.08349921,-1.06
 728114\N,0,0.18830574,-0.70292035,1.1831062\H,0,0.78880763,-1.48457388

 Normal termination of Gaussian 16 at Wed Apr  9 02:47:18 2025.
