 Gaussian 16, Revision C.01,

 ----------------------------------------------------------------------
 #t hf aug-cc-pvdz symm=none int=(grid=ultrafine) guess=(read,tcheck) s
 table=(opt,rrhf)
 ----------------------------------------------------------------------
 -----
 title
 -----
 Symbolic Z-matrix:
 Charge = -1 Multiplicity = 1

 SCF Done:  E(RHF) =  -726.821758457     A.U. after   14 cycles
 Normal termination of Gaussian 16 at Wed Apr  9 02:38:08 2025.
 Gaussian 16:  ES64L-G16RevC.01  3-Jul-2019

 ----------------------------------------------------------------------
 #t hf aug-cc-pvdz iop(5/13=1,5/36=2,99/5=2) pseudo=read geom=check gue
 ss=(read,tcheck) scf=(maxcycle=1)
 ----------------------------------------------------------------------
 -----
 title
 -----
 Structure from the checkpoint file:  "E2SN2_160_mol2.chk"
 Charge = -1 Multiplicity = 1

                         Standard orientation:
 ---------------------------------------------------------------------
 Center     Atomic      Atomic             Coordinates (Angstroms)
 Number     Number       Type             X           Y           Z
 ---------------------------------------------------------------------
      1          6           0       -0.449492    0.365420    0.124042
      2          6           0        1.085335    0.277086    0.102799
      3         17           0       -1.159980   -1.288090   -0.318813
      4          1           0        1.353946    1.238713    0.578509
      5          7           0       -0.971558    0.758774    1.401965
      6          1           0       -0.530859    1.697473    1.587896
      7          1           0       -0.614675    0.131830    2.116658
      8          6           0       -0.947232    1.361543   -0.902690
      9          1           0       -0.502571    2.330643   -0.644989
     10          1           0       -2.031539    1.439806   -0.815732
     11          1           0       -0.679199    1.056975   -1.914812
     12          7           0        1.609385    0.169832   -1.270287
     13          1           0        1.573312    1.094252   -1.687647
     14          1           0        2.595039   -0.065736   -1.206696
     15          6           0        1.660155   -0.862083    0.926028
     16          1           0        2.736856   -0.711052    1.062414
     17          1           0        1.211530   -0.910414    1.919182
     18          1           0        1.497970   -1.815498    0.418399
     19          1           0        0.552453    3.058494    1.583817
 ---------------------------------------------------------------------

 SCF Done:  E(RHF) =  -727.198120640     A.U. after    2 cycles

 The electronic state is 1-A.
 Alpha  occ. eigenvalues -- -105.40452 -15.36870 -15.33461 -11.19093 -11.12987
 Alpha  occ. eigenvalues --  -11.10871 -11.09213 -10.45356  -7.62269  -7.61962
 Alpha  occ. eigenvalues --   -7.61948  -1.09221  -1.04724  -0.91604  -0.87688
 Alpha  occ. eigenvalues --   -0.84599  -0.74065  -0.62699  -0.58000  -0.55938
 Alpha  occ. eigenvalues --   -0.53318  -0.50799  -0.47307  -0.44838  -0.42733
 Alpha  occ. eigenvalues --   -0.41012  -0.39708  -0.38288  -0.36742  -0.31875
 Alpha  occ. eigenvalues --   -0.31128  -0.30680  -0.28165  -0.09209
 Alpha virt. eigenvalues --    0.11968   0.13038   0.13635   0.14349   0.14809
 Alpha virt. eigenvalues --    0.15631   0.16546   0.17858   0.18283   0.19402
 Alpha virt. eigenvalues --    0.21001   0.22021   0.22683   0.23723   0.24809

 Mulliken charges:
               1
     1  C   -2.328328
     2  C   -1.058200
     3  Cl  -0.194377
     4  H    0.073817
     5  N    0.848731
     6  H    0.134242
     7  H    0.228076
     8  C    0.187181
     9  H    0.260733
    10  H    0.162840
    11  H    0.235415
    12  N    0.512057
    13  H    0.231116
    14  H    0.124727
    15  C   -0.111185
    16  H    0.127915
    17  H    0.098208
    18  H    0.269843
    19  H   -0.802813
 Sum of Mulliken charges =  -1.00000

 Dipole moment (field-independent basis, Debye):
    X=              1.2970    Y=             -8.4966    Z=             -4.8601  Tot=              9.8740

 Test job not archived.
 1\1\GINC-SE069\SP\RHF\Aug-CC-pVDZ\C4H12Cl1N2(1-)\OHZDE\09-Apr-2025\0\\
 #t hf aug-cc-pvdz iop(5/13=1,5/36=2,99/5=2) pseudo=read geom=check gue
 ss=(read,tcheck) scf=(maxcycle=1)\\title\\-1,1\C,0,-0.183246,0.053128,
 -1.453036\C,0,-0.035829,0.012046,0.076843\Cl,0,-1.948284,0.418713,-1.8
 84307\H,0,1.06547,0.000518,0.177765\N,0,0.651899,1.043516,-2.071125\H,
 0,1.630535,0.775861,-1.787269\H,0,0.470644,1.947308,-1.645077\C,0,0.16
 369,-1.288216,-2.065094\H,0,1.201656,-1.505265,-1.784373\H,0,0.105512,
 -1.201814,-3.150708\H,0,-0.513849,-2.069896,-1.720259\N,0,-0.66041,-1.

 Normal termination of Gaussian 16 at Wed Apr  9 02:38:16 2025.
