 Gaussian 16, Revision C.01,

 ----------------------------------------------------------------------
 #t hf aug-cc-pvdz symm=none int=(grid=ultrafine) guess=(read,tcheck) s
 table=(opt,rrhf)
 ----------------------------------------------------------------------
 -----
 title
 -----
 Symbolic Z-matrix:
 Charge = -1 Multiplicity = 1

 SCF Done:  E(RHF) =  -456.176130353     A.U. after   16 cycles
 Normal termination of Gaussian 16 at Wed Apr  9 02:37:11 2025.
 Gaussian 16:  ES64L-G16RevC.01  3-Jul-2019

 ----------------------------------------------------------------------
 #t hf aug-cc-pvdz iop(5/13=1,5/36=2,99/5=2) pseudo=read geom=check gue
 ss=(read,tcheck) scf=(maxcycle=1)
 ----------------------------------------------------------------------
 -----
 title
 -----
 Structure from the checkpoint file:  "E2SN2_136_mol2.chk"
 Charge = -1 Multiplicity = 1

                         Standard orientation:
 ---------------------------------------------------------------------
 Center     Atomic      Atomic             Coordinates (Angstroms)
 Number     Number       Type             X           Y           Z
 ---------------------------------------------------------------------
      1          6           0       -0.459626   -0.465885   -0.104754
      2          6           0        0.583168    0.466989    0.519992
      3          9           0       -0.252598   -0.504108   -1.508339
      4          1           0        0.465022    0.310139    1.602928
      5          7           0       -0.325121   -1.733593    0.469532
      6          1           0       -0.247226   -1.588031    1.550951
      7          1           0       -1.138555   -2.307532    0.272228
      8          6           0       -1.821076    0.137543    0.015563
      9          7           0       -2.911721    0.564298    0.117662
     10          6           0        0.414041    1.933795    0.122903
     11          1           0       -0.526343    2.324403    0.516340
     12          1           0        1.231709    2.529757    0.533802
     13          1           0        0.415588    2.042670   -0.963973
     14          6           0        1.913996   -0.003473    0.141516
     15          7           0        3.015576   -0.276979   -0.161067
     16          1           0       -0.160969   -1.064343    2.908570
 ---------------------------------------------------------------------

 SCF Done:  E(RHF) =  -456.626294926     A.U. after    2 cycles

 The electronic state is 1-A.
 Alpha  occ. eigenvalues --  -26.34701 -15.41990 -15.39675 -15.36163 -11.28641
 Alpha  occ. eigenvalues --  -11.18428 -11.17138 -11.16958 -11.14411  -1.46965
 Alpha  occ. eigenvalues --   -1.12682  -1.10640  -1.08812  -0.98199  -0.83829
 Alpha  occ. eigenvalues --   -0.80075  -0.65666  -0.63452  -0.59961  -0.56055
 Alpha  occ. eigenvalues --   -0.53140  -0.51524  -0.49775  -0.48653  -0.47434
 Alpha  occ. eigenvalues --   -0.46271  -0.43759  -0.42623  -0.40376  -0.39835
 Alpha  occ. eigenvalues --   -0.36886  -0.36181  -0.33572  -0.12394
 Alpha virt. eigenvalues --    0.12149   0.13551   0.13981   0.14730   0.17318
 Alpha virt. eigenvalues --    0.17946   0.18793   0.19643   0.20629   0.21696
 Alpha virt. eigenvalues --    0.22226   0.23002   0.23408   0.24609   0.24799

 Mulliken charges:
               1
     1  C    0.251539
     2  C   -0.262123
     3  F   -0.956772
     4  H    0.213590
     5  N    0.677751
     6  H    0.094229
     7  H    0.283041
     8  C   -1.609301
     9  N    0.954645
    10  C   -0.124493
    11  H    0.242918
    12  H    0.149339
    13  H    0.273989
    14  C   -1.599787
    15  N    1.004699
    16  H   -0.593264
 Sum of Mulliken charges =  -1.00000

 Dipole moment (field-independent basis, Debye):
    X=             -0.9336    Y=              4.3093    Z=             -6.7837  Tot=              8.0907

 Test job not archived.
 1\1\GINC-SE016\SP\RHF\Aug-CC-pVDZ\C5H7F1N3(1-)\OHZDE\09-Apr-2025\0\\#t
  hf aug-cc-pvdz iop(5/13=1,5/36=2,99/5=2) pseudo=read geom=check guess
 =(read,tcheck) scf=(maxcycle=1)\\title\\-1,1\C,0,-0.174453,0.053185,-1
 .458214\C,0,0.025622,-0.052507,0.057299\F,0,-1.536986,0.354704,-1.7169
 88\H,0,1.117788,-0.116555,0.177226\N,0,0.675047,1.047904,-1.952038\H,0
 ,1.658975,0.879055,-1.504714\H,0,0.756959,0.984295,-2.96162\C,0,-0.003
 906,-1.289845,-2.090141\N,0,0.152547,-2.323144,-2.628532\C,0,-0.699856
 ,-1.238741,0.693173\H,0,-0.279029,-2.177378,0.327721\H,0,-0.584012,-1.

 Normal termination of Gaussian 16 at Wed Apr  9 02:37:18 2025.
