 Gaussian 16, Revision C.01,

 ----------------------------------------------------------------------
 #t hf aug-cc-pvdz symm=none int=(grid=ultrafine) guess=(read,tcheck) s
 table=(opt,rrhf)
 ----------------------------------------------------------------------
 -----
 title
 -----
 Symbolic Z-matrix:
 Charge = -1 Multiplicity = 1

 SCF Done:  E(RHF) =  -852.269412533     A.U. after   15 cycles
 Normal termination of Gaussian 16 at Wed Apr  9 02:40:56 2025.
 Gaussian 16:  ES64L-G16RevC.01  3-Jul-2019

 ----------------------------------------------------------------------
 #t hf aug-cc-pvdz iop(5/13=1,5/36=2,99/5=2) pseudo=read geom=check gue
 ss=(read,tcheck) scf=(maxcycle=1)
 ----------------------------------------------------------------------
 -----
 title
 -----
 Structure from the checkpoint file:  "E2SN2_199_mol2.chk"
 Charge = -1 Multiplicity = 1

                         Standard orientation:
 ---------------------------------------------------------------------
 Center     Atomic      Atomic             Coordinates (Angstroms)
 Number     Number       Type             X           Y           Z
 ---------------------------------------------------------------------
      1          6           0       -0.998278    0.145657    0.269321
      2          6           0        0.264042    0.654559   -0.428938
      3         17           0       -1.099800   -1.657773   -0.057277
      4          1           0        0.223693    0.406939   -1.494437
      5          1           0       -0.856640    0.240801    1.346027
      6          7           0       -2.187408    0.806064   -0.109305
      7          1           0       -2.189621    0.986740   -1.107707
      8          1           0       -2.192515    1.731457    0.393178
      9          7           0        1.469742   -0.151509    0.051619
     10          8           0        1.631872   -0.263427    1.261911
     11          8           0        2.232156   -0.595995   -0.808792
     12          7           0        0.506635    2.024111   -0.139561
     13          1           0       -0.250813    2.467794    0.426386
     14          1           0        0.620152    2.559621   -0.987997
     15          1           0       -1.687242    3.112204    1.111740
 ---------------------------------------------------------------------

 SCF Done:  E(RHF) =  -852.744934063     A.U. after    2 cycles

 The electronic state is 1-A.
 Alpha  occ. eigenvalues -- -105.43559 -20.47142 -20.47024 -15.65660 -15.37000
 Alpha  occ. eigenvalues --  -15.36024 -11.22057 -11.21910 -10.48455  -7.65378
 Alpha  occ. eigenvalues --   -7.65041  -7.65029  -1.53863  -1.37905  -1.12872
 Alpha  occ. eigenvalues --   -1.06564  -0.96346  -0.91831  -0.78957  -0.72093
 Alpha  occ. eigenvalues --   -0.65830  -0.63099  -0.62818  -0.59683  -0.56956
 Alpha  occ. eigenvalues --   -0.53610  -0.52177  -0.45605  -0.42796  -0.38521
 Alpha  occ. eigenvalues --   -0.36829  -0.34708  -0.34339  -0.33068  -0.32412
 Alpha  occ. eigenvalues --   -0.31326  -0.12385
 Alpha virt. eigenvalues --    0.12884   0.14294   0.15085   0.16264   0.17656
 Alpha virt. eigenvalues --    0.18405   0.18807   0.20874   0.21674   0.22071
 Alpha virt. eigenvalues --    0.23041   0.24242   0.24839   0.26217   0.26834

 Mulliken charges:
               1
     1  C   -1.319080
     2  C   -1.001480
     3  Cl  -0.112162
     4  H    0.027320
     5  H    0.260886
     6  N    0.629051
     7  H    0.219978
     8  H    0.100630
     9  N    2.863837
    10  O   -1.425185
    11  O   -1.432293
    12  N    0.621451
    13  H    0.069720
    14  H    0.250981
    15  H   -0.753655
 Sum of Mulliken charges =  -1.00000

 Dipole moment (field-independent basis, Debye):
    X=              3.0794    Y=             -6.1075    Z=             -5.2800  Tot=              8.6408

 Test job not archived.
 1\1\GINC-SE435\SP\RHF\Aug-CC-pVDZ\C2H7Cl1N3O2(1-)\OHZDE\09-Apr-2025\0\
 \#t hf aug-cc-pvdz iop(5/13=1,5/36=2,99/5=2) pseudo=read geom=check gu
 ess=(read,tcheck) scf=(maxcycle=1)\\title\\-1,1\C,0,-0.062619,0.029301
 ,-0.057486\C,0,-0.311402,0.133869,-1.5632\Cl,0,1.756134,0.065902,0.187
 73\H,0,0.214014,-0.673777,-2.082698\H,0,-0.440327,0.935558,0.41627\N,0
 ,-0.643348,-1.100891,0.558099\H,0,-0.546459,-1.917079,-0.0368\H,0,-1.6
 69738,-0.892107,0.666723\N,0,0.382439,1.38191,-2.106681\O,0,0.168466,2
 .445042,-1.534331\O,0,1.07417,1.249215,-3.11814\N,0,-1.697082,0.236577

 Normal termination of Gaussian 16 at Wed Apr  9 02:41:02 2025.
