 Gaussian 16, Revision C.01,

 ----------------------------------------------------------------------
 #t hf aug-cc-pvdz symm=none int=(grid=ultrafine) guess=(read,tcheck) s
 table=(opt,rrhf)
 ----------------------------------------------------------------------
 -----
 title
 -----
 Symbolic Z-matrix:
 Charge = -1 Multiplicity = 1

 SCF Done:  E(RHF) =  -891.308677028     A.U. after   16 cycles
 Normal termination of Gaussian 16 at Wed Apr  9 02:56:44 2025.
 Gaussian 16:  ES64L-G16RevC.01  3-Jul-2019

 ----------------------------------------------------------------------
 #t hf aug-cc-pvdz iop(5/13=1,5/36=2,99/5=2) pseudo=read geom=check gue
 ss=(read,tcheck) scf=(maxcycle=1)
 ----------------------------------------------------------------------
 -----
 title
 -----
 Structure from the checkpoint file:  "E2SN2_364_mol2.chk"
 Charge = -1 Multiplicity = 1

                         Standard orientation:
 ---------------------------------------------------------------------
 Center     Atomic      Atomic             Coordinates (Angstroms)
 Number     Number       Type             X           Y           Z
 ---------------------------------------------------------------------
      1          6           0        0.929750    0.066469    0.063212
      2          6           0       -0.362160    0.591651   -0.599695
      3         17           0        0.809435   -1.790817   -0.058097
      4          1           0       -0.413356    0.237272   -1.631615
      5          6           0        2.115239    0.487384   -0.784196
      6          1           0        3.008972    0.002712   -0.389435
      7          1           0        2.231451    1.570718   -0.681107
      8          1           0        1.980560    0.202243   -1.830040
      9          7           0        1.157929    0.448924    1.404525
     10          1           0        0.298518    0.378938    1.936331
     11          1           0        1.455617    1.451407    1.399293
     12          7           0       -0.499942    1.997198   -0.469504
     13          1           0        0.229974    2.454384    0.126829
     14          1           0       -0.513413    2.448661   -1.371947
     15          7           0       -1.594939   -0.075566    0.015201
     16          8           0       -1.762680    0.019094    1.228362
     17          8           0       -2.378463   -0.629119   -0.757144
     18          1           0        1.552131    3.110824    0.932124
 ---------------------------------------------------------------------

 SCF Done:  E(RHF) =  -891.828195222     A.U. after    2 cycles

 The electronic state is 1-A.
 Alpha  occ. eigenvalues -- -105.42771 -20.47137 -20.46889 -15.65606 -15.36830
 Alpha  occ. eigenvalues --  -15.35020 -11.22776 -11.21950 -11.11755 -10.47672
 Alpha  occ. eigenvalues --   -7.64584  -7.64268  -7.64254  -1.53815  -1.37791
 Alpha  occ. eigenvalues --   -1.12909  -1.06658  -0.95955  -0.92226  -0.86866
 Alpha  occ. eigenvalues --   -0.76579  -0.69555  -0.64574  -0.62997  -0.62154
 Alpha  occ. eigenvalues --   -0.59546  -0.56815  -0.55365  -0.49306  -0.47585
 Alpha  occ. eigenvalues --   -0.43770  -0.43599  -0.40716  -0.37852  -0.36557
 Alpha  occ. eigenvalues --   -0.34935  -0.33197  -0.33140  -0.32402  -0.30012
 Alpha  occ. eigenvalues --   -0.12220
 Alpha virt. eigenvalues --    0.12381   0.13122   0.14470   0.14964   0.16497
 Alpha virt. eigenvalues --    0.17033   0.17793   0.18826   0.20094   0.21313
 Alpha virt. eigenvalues --    0.21623   0.21957   0.23851   0.24128   0.25444

 Mulliken charges:
               1
     1  C   -2.050432
     2  C   -1.442291
     3  Cl  -0.177897
     4  H    0.024055
     5  C    0.214075
     6  H    0.179556
     7  H    0.158877
     8  H    0.209071
     9  N    0.937273
    10  H    0.236706
    11  H    0.181801
    12  N    0.845936
    13  H   -0.009802
    14  H    0.278760
    15  N    3.090105
    16  O   -1.467158
    17  O   -1.497357
    18  H   -0.711279
 Sum of Mulliken charges =  -1.00000

 Dipole moment (field-independent basis, Debye):
    X=             -1.7937    Y=             -6.1046    Z=             -5.2142  Tot=              8.2263

 Test job not archived.
 1\1\GINC-SE364\SP\RHF\Aug-CC-pVDZ\C3H9Cl1N3O2(1-)\OHZDE\09-Apr-2025\0\
 \#t hf aug-cc-pvdz iop(5/13=1,5/36=2,99/5=2) pseudo=read geom=check gu
 ess=(read,tcheck) scf=(maxcycle=1)\\title\\-1,1\C,0,-0.033595,0.006795
 ,-0.045966\C,0,-0.287577,-0.08172,-1.566477\Cl,0,1.823216,0.018429,0.1
 29589\H,0,0.179429,0.770545,-2.065088\C,0,-0.531515,1.350426,0.45141\H
 ,0,-0.229635,1.464384,1.493228\H,0,-1.624857,1.339635,0.40417\H,0,-0.1
 18737,2.172769,-0.137318\N,0,-0.587662,-1.019046,0.752857\H,0,-0.44900
 8,-1.918533,0.307884\H,0,-1.616694,-0.844871,0.819\N,0,-1.663061,-0.24

 Normal termination of Gaussian 16 at Wed Apr  9 02:56:53 2025.
