 Gaussian 16, Revision C.01,

 ----------------------------------------------------------------------
 #t hf aug-cc-pvdz symm=none int=(grid=ultrafine) guess=(read,tcheck) s
 table=(opt,rrhf)
 ----------------------------------------------------------------------
 -----
 title
 -----
 Symbolic Z-matrix:
 Charge = -1 Multiplicity = 1

 SCF Done:  E(RHF) =  -426.702983522     A.U. after   13 cycles
 Normal termination of Gaussian 16 at Wed Apr  9 02:57:59 2025.
 Gaussian 16:  ES64L-G16RevC.01  3-Jul-2019

 ----------------------------------------------------------------------
 #t hf aug-cc-pvdz iop(5/13=1,5/36=2,99/5=2) pseudo=read geom=check gue
 ss=(read,tcheck) scf=(maxcycle=1)
 ----------------------------------------------------------------------
 -----
 title
 -----
 Structure from the checkpoint file:  "E2SN2_399_mol2.chk"
 Charge = -1 Multiplicity = 1

                         Standard orientation:
 ---------------------------------------------------------------------
 Center     Atomic      Atomic             Coordinates (Angstroms)
 Number     Number       Type             X           Y           Z
 ---------------------------------------------------------------------
      1          6           0       -0.725654   -0.160868   -0.025854
      2          6           0       -0.344265    1.305377   -0.264329
      3          9           0       -2.146772   -0.186045   -0.166643
      4          1           0       -0.582539    1.524737   -1.315761
      5          1           0       -1.003056    1.939089    0.343773
      6          7           0       -0.170068   -1.080710   -0.968391
      7          1           0       -0.233064   -0.666508   -1.893898
      8          1           0        0.845592   -1.151875   -0.725438
      9          6           0       -0.374533   -0.628917    1.369148
     10          1           0       -0.853502   -1.595508    1.538471
     11          1           0        0.710426   -0.749623    1.400560
     12          1           0       -0.720745    0.083709    2.124152
     13          7           0        1.053671    1.632630    0.006580
     14          1           0        1.140856    1.781846    1.005550
     15          1           0        1.634656    0.791770   -0.169020
     16          9           0        2.318203   -0.804470   -0.061080
 ---------------------------------------------------------------------

 SCF Done:  E(RHF) =  -427.136261981     A.U. after    2 cycles

 The electronic state is 1-A.
 Alpha  occ. eigenvalues --  -26.28403 -26.09792 -15.31587 -15.31216 -11.18394
 Alpha  occ. eigenvalues --  -11.11046 -11.07407  -1.40302  -1.16485  -1.04613
 Alpha  occ. eigenvalues --   -1.00049  -0.85253  -0.77875  -0.64611  -0.55125
 Alpha  occ. eigenvalues --   -0.54302  -0.54085  -0.50510  -0.47050  -0.43435
 Alpha  occ. eigenvalues --   -0.42190  -0.40189  -0.39583  -0.38413  -0.35720
 Alpha  occ. eigenvalues --   -0.30479  -0.27749  -0.25996  -0.25712  -0.23803
 Alpha virt. eigenvalues --    0.13428   0.13964   0.14523   0.15276   0.16385
 Alpha virt. eigenvalues --    0.16632   0.18689   0.19596   0.20396   0.21277
 Alpha virt. eigenvalues --    0.24314   0.25206   0.26149   0.26546   0.26934

 Mulliken charges:
               1
     1  C   -0.407298
     2  C   -0.720683
     3  F   -1.021124
     4  H    0.086531
     5  H    0.108829
     6  N    0.584094
     7  H    0.223137
     8  H    0.237326
     9  C   -0.115736
    10  H    0.095154
    11  H    0.189868
    12  H    0.167332
    13  N    0.290075
    14  H    0.276992
    15  H    0.049281
    16  F   -1.043776
 Sum of Mulliken charges =  -1.00000

 Dipole moment (field-independent basis, Debye):
    X=             -5.0978    Y=              2.4163    Z=              1.3476  Tot=              5.8002

 Test job not archived.
 1\1\GINC-SE074\SP\RHF\Aug-CC-pVDZ\C3H9F2N2(1-)\OHZDE\09-Apr-2025\0\\#t
  hf aug-cc-pvdz iop(5/13=1,5/36=2,99/5=2) pseudo=read geom=check guess
 =(read,tcheck) scf=(maxcycle=1)\\title\\-1,1\C,0,-0.001663,-0.007077,-
 0.040882\C,0,-0.179848,0.233072,-1.545136\F,0,1.407839,0.087541,0.1697
 94\H,0,0.119877,1.274573,-1.734461\H,0,0.5356,-0.40073,-2.085333\N,0,-
 0.641165,0.959684,0.795522\H,0,-0.493812,1.879627,0.390445\H,0,-1.6649
 14,0.750453,0.733759\C,0,-0.457149,-1.386482,0.381209\H,0,-0.114622,-1
 .564311,1.402694\H,0,-1.549015,-1.381674,0.358868\H,0,-0.045979,-2.157

 Normal termination of Gaussian 16 at Wed Apr  9 02:58:04 2025.
