 Gaussian 16, Revision C.01,

 ----------------------------------------------------------------------
 #t hf aug-cc-pvdz symm=none int=(grid=ultrafine) guess=(read,tcheck) s
 table=(opt,rrhf)
 ----------------------------------------------------------------------
 -----
 title
 -----
 Symbolic Z-matrix:
 Charge = -1 Multiplicity = 1

 SCF Done:  E(RHF) =  -740.493554510     A.U. after   16 cycles
 Normal termination of Gaussian 16 at Wed Apr  9 02:39:45 2025.
 Gaussian 16:  ES64L-G16RevC.01  3-Jul-2019

 ----------------------------------------------------------------------
 #t hf aug-cc-pvdz iop(5/13=1,5/36=2,99/5=2) pseudo=read geom=check gue
 ss=(read,tcheck) scf=(maxcycle=1)
 ----------------------------------------------------------------------
 -----
 title
 -----
 Structure from the checkpoint file:  "E2SN2_182_mol2.chk"
 Charge = -1 Multiplicity = 1

                         Standard orientation:
 ---------------------------------------------------------------------
 Center     Atomic      Atomic             Coordinates (Angstroms)
 Number     Number       Type             X           Y           Z
 ---------------------------------------------------------------------
      1          6           0       -0.273878    0.023313    0.345144
      2          6           0        1.039980    0.183865   -0.452467
      3         17           0       -1.064852   -1.553186   -0.032541
      4          1           0        0.803955    0.163227   -1.524959
      5          1           0        0.046030    0.003456    1.408622
      6          6           0       -1.231734    1.084310    0.077616
      7          7           0       -2.040629    1.909568   -0.138031
      8          7           0        2.017719   -0.852397   -0.162973
      9          1           0        2.153937   -0.806648    0.853968
     10          1           0        1.631512   -1.764220   -0.386387
     11          7           0        1.527227    1.495192   -0.068325
     12          1           0        1.713112    1.412215    0.940134
     13          1           0        2.430688    1.610909   -0.517478
     14          1           0        1.586830    0.169739    2.542839
 ---------------------------------------------------------------------

 SCF Done:  E(RHF) =  -740.862099889     A.U. after    2 cycles

 The electronic state is 1-A.
 Alpha  occ. eigenvalues -- -105.45548 -15.39952 -15.35358 -15.35232 -11.20366
 Alpha  occ. eigenvalues --  -11.18139 -11.17421 -10.50378  -7.67319  -7.66961
 Alpha  occ. eigenvalues --   -7.66939  -1.12035  -1.09802  -1.00340  -0.99526
 Alpha  occ. eigenvalues --   -0.84973  -0.73325  -0.62718  -0.57295  -0.56085
 Alpha  occ. eigenvalues --   -0.52019  -0.50776  -0.48919  -0.45169  -0.42218
 Alpha  occ. eigenvalues --   -0.38330  -0.37501  -0.35117  -0.34834  -0.32769
 Alpha  occ. eigenvalues --   -0.30968  -0.10913
 Alpha virt. eigenvalues --    0.13395   0.14340   0.14462   0.16302   0.17886
 Alpha virt. eigenvalues --    0.18162   0.19079   0.20249   0.22008   0.22992
 Alpha virt. eigenvalues --    0.23259   0.24132   0.24983   0.25854   0.27016

 Mulliken charges:
               1
     1  C    0.644900
     2  C   -3.249024
     3  Cl  -0.107368
     4  H   -0.037464
     5  H    0.383701
     6  C   -1.447055
     7  N    0.861360
     8  N    0.907007
     9  H    0.297715
    10  H    0.223972
    11  N    0.883458
    12  H    0.257374
    13  H    0.214799
    14  H   -0.833374
 Sum of Mulliken charges =  -1.00000

 Dipole moment (field-independent basis, Debye):
    X=             -1.9229    Y=             -3.5902    Z=             -7.1482  Tot=              8.2271

 Test job not archived.
 1\1\GINC-SE334\SP\RHF\Aug-CC-pVDZ\C3H7Cl1N3(1-)\OHZDE\09-Apr-2025\0\\#
 t hf aug-cc-pvdz iop(5/13=1,5/36=2,99/5=2) pseudo=read geom=check gues
 s=(read,tcheck) scf=(maxcycle=1)\\title\\-1,1\C,0,-0.346218,-0.159068,
 0.097207\C,0,-0.530034,-0.243392,-1.434878\Cl,0,0.731967,1.217889,0.53
 8954\H,0,0.452092,-0.410688,-1.897279\H,0,-1.36268,0.058554,0.488573\C
 ,0,0.215568,-1.373086,0.667583\N,0,0.696132,-2.327557,1.157389\N,0,-1.
 12569,0.952389,-2.008394\H,0,-2.010507,1.072894,-1.501054\H,0,-0.54026
 5,1.758251,-1.812547\N,0,-1.380866,-1.403037,-1.624249\H,0,-2.262555,-

 Normal termination of Gaussian 16 at Wed Apr  9 02:39:51 2025.
