 Gaussian 16, Revision C.01,

 ----------------------------------------------------------------------
 #t hf aug-cc-pvdz symm=none int=(grid=ultrafine) guess=(read,tcheck) s
 table=(opt,rrhf)
 ----------------------------------------------------------------------
 -----
 title
 -----
 Symbolic Z-matrix:
 Charge = -1 Multiplicity = 1

 SCF Done:  E(RHF) =  -974.243372345     A.U. after   16 cycles
 Normal termination of Gaussian 16 at Wed Apr  9 03:03:34 2025.
 Gaussian 16:  ES64L-G16RevC.01  3-Jul-2019

 ----------------------------------------------------------------------
 #t hf aug-cc-pvdz iop(5/13=1,5/36=2,99/5=2) pseudo=read geom=check gue
 ss=(read,tcheck) scf=(maxcycle=1)
 ----------------------------------------------------------------------
 -----
 title
 -----
 Structure from the checkpoint file:  "E2SN2_78_mol2.chk"
 Charge = -1 Multiplicity = 1

                         Standard orientation:
 ---------------------------------------------------------------------
 Center     Atomic      Atomic             Coordinates (Angstroms)
 Number     Number       Type             X           Y           Z
 ---------------------------------------------------------------------
      1          6           0       -0.211043    0.045845   -0.362238
      2          6           0        0.692960   -0.447756    0.794832
      3         17           0       -1.213265   -1.302776   -1.003531
      4          1           0        1.197233    0.476196    1.122744
      5          7           0       -1.157197    1.084801    0.229801
      6          8           0       -2.348594    0.837591    0.395774
      7          8           0       -0.606141    2.132849    0.560379
      8          6           0        0.575483    0.689731   -1.486021
      9          1           0       -0.070022    1.343228   -2.079255
     10          1           0        1.466876    1.184476   -1.064565
     11          1           0        0.958085   -0.102729   -2.129495
     12          7           0        1.768102   -1.303136    0.349060
     13          1           0        2.475876   -0.628462   -0.025138
     14          1           0        1.445173   -1.953253   -0.358458
     15          6           0       -0.102722   -1.069286    1.936056
     16          1           0       -0.895448   -0.416611    2.314310
     17          1           0       -0.554332   -2.014811    1.626288
     18          1           0        0.597519   -1.279123    2.746385
     19          9           0        3.070892    0.887990   -0.232200
 ---------------------------------------------------------------------

 SCF Done:  E(RHF) =  -974.833626797     A.U. after    2 cycles

 The electronic state is 1-A.
 Alpha  occ. eigenvalues -- -105.45304 -26.09231 -20.47902 -20.47591 -15.67061
 Alpha  occ. eigenvalues --  -15.32397 -11.24470 -11.14148 -11.10495 -11.10081
 Alpha  occ. eigenvalues --  -10.50209  -7.67151  -7.66785  -7.66777  -1.54915
 Alpha  occ. eigenvalues --   -1.38762  -1.15808  -1.08259  -1.01423  -0.91679
 Alpha  occ. eigenvalues --   -0.87383  -0.84572  -0.74417  -0.69595  -0.63322
 Alpha  occ. eigenvalues --   -0.62552  -0.60721  -0.54710  -0.51653  -0.48020
 Alpha  occ. eigenvalues --   -0.47876  -0.45048  -0.42318  -0.41317  -0.39640
 Alpha  occ. eigenvalues --   -0.38519  -0.37669  -0.36392  -0.34522  -0.33790
 Alpha  occ. eigenvalues --   -0.33182  -0.29382  -0.25609  -0.25105  -0.24466
 Alpha virt. eigenvalues --    0.12984   0.13373   0.13955   0.14627   0.15018
 Alpha virt. eigenvalues --    0.16471   0.17052   0.17753   0.18488   0.19530
 Alpha virt. eigenvalues --    0.20475   0.22015   0.23111   0.25268   0.25662

 Mulliken charges:
               1
     1  C   -1.549732
     2  C   -1.528536
     3  Cl  -0.018571
     4  H    0.259659
     5  N    3.155220
     6  O   -1.487454
     7  O   -1.561452
     8  C    0.226382
     9  H    0.144781
    10  H    0.401044
    11  H    0.215993
    12  N    0.695303
    13  H    0.363351
    14  H    0.217252
    15  C   -0.072633
    16  H    0.197618
    17  H    0.222244
    18  H    0.141846
    19  F   -1.022313
 Sum of Mulliken charges =  -1.00000

 Dipole moment (field-independent basis, Debye):
    X=             -7.4680    Y=             -2.9402    Z=             -0.8605  Tot=              8.0720

 Test job not archived.
 1\1\GINC-SE049\SP\RHF\Aug-CC-pVDZ\C4H9Cl1F1N2O2(1-)\OHZDE\09-Apr-2025\
 0\\#t hf aug-cc-pvdz iop(5/13=1,5/36=2,99/5=2) pseudo=read geom=check
 guess=(read,tcheck) scf=(maxcycle=1)\\title\\-1,1\C,0,-0.222855,0.0123
 76,-1.502618\C,0,0.043885,0.141064,0.017896\Cl,0,-1.953901,-0.36382,-1
 .813171\H,0,1.108632,0.424486,0.056524\N,0,0.072477,1.375433,-2.119061
 \O,0,-0.833274,2.099553,-2.523231\O,0,1.263723,1.679183,-2.114787\C,0,
 0.661999,-1.023002,-2.16679\H,0,0.729729,-0.835384,-3.241906\H,0,1.633
 035,-1.055684,-1.644295\H,0,0.212749,-2.003817,-2.009909\N,0,-0.015013

 Normal termination of Gaussian 16 at Wed Apr  9 03:03:48 2025.
