 Gaussian 16, Revision C.01,

 ----------------------------------------------------------------------
 #t hf aug-cc-pvdz symm=none int=(grid=ultrafine) guess=(read,tcheck) s
 table=(opt,rrhf)
 ----------------------------------------------------------------------
 -----
 title
 -----
 Symbolic Z-matrix:
 Charge = -1 Multiplicity = 1

 SCF Done:  E(RHF) =  -1026.95289101     A.U. after   16 cycles
 Normal termination of Gaussian 16 at Wed Apr  9 02:58:11 2025.
 Gaussian 16:  ES64L-G16RevC.01  3-Jul-2019

 ----------------------------------------------------------------------
 #t hf aug-cc-pvdz iop(5/13=1,5/36=2,99/5=2) pseudo=read geom=check gue
 ss=(read,tcheck) scf=(maxcycle=1)
 ----------------------------------------------------------------------
 -----
 title
 -----
 Structure from the checkpoint file:  "E2SN2_379_mol2.chk"
 Charge = -1 Multiplicity = 1

                         Standard orientation:
 ---------------------------------------------------------------------
 Center     Atomic      Atomic             Coordinates (Angstroms)
 Number     Number       Type             X           Y           Z
 ---------------------------------------------------------------------
      1          6           0        0.201235   -0.181431   -0.337156
      2          6           0       -0.871808    0.364895    0.629305
      3         17           0        0.072853   -1.994871   -0.421090
      4          1           0       -0.588834    1.441427    0.639001
      5          7           0        0.209780    0.385431   -1.619092
      6          1           0       -0.654882    0.139939   -2.088172
      7          1           0        0.219845    1.437906   -1.381288
      8          7           0        1.608843    0.089635    0.254529
      9          8           0        2.558035   -0.205479   -0.455284
     10          8           0        1.686525    0.564941    1.382671
     11          6           0       -1.025635   -0.276314    2.009224
     12          1           0       -1.770174    0.284368    2.580750
     13          1           0       -0.083440   -0.247111    2.549725
     14          1           0       -1.364815   -1.310876    1.927422
     15          6           0       -2.150342    0.274440   -0.073047
     16          7           0       -3.197953    0.175054   -0.596672
     17          9           0        0.197993    2.627897   -0.458811
 ---------------------------------------------------------------------

 SCF Done:  E(RHF) =  -1027.58073516     A.U. after    2 cycles

 The electronic state is 1-A.
 Alpha  occ. eigenvalues -- -105.46030 -26.12670 -20.47017 -20.46948 -15.66457
 Alpha  occ. eigenvalues --  -15.40316 -15.35695 -11.28932 -11.17683 -11.16509
 Alpha  occ. eigenvalues --  -11.13399 -10.50922  -7.67858  -7.67489  -7.67477
 Alpha  occ. eigenvalues --   -1.54378  -1.38338  -1.20078  -1.13468  -1.10469
 Alpha  occ. eigenvalues --   -0.98844  -0.95031  -0.90511  -0.80824  -0.72373
 Alpha  occ. eigenvalues --   -0.63760  -0.63139  -0.62431  -0.59230  -0.56182
 Alpha  occ. eigenvalues --   -0.55013  -0.50808  -0.48557  -0.46363  -0.44454
 Alpha  occ. eigenvalues --   -0.43248  -0.38569  -0.38397  -0.37340  -0.36193
 Alpha  occ. eigenvalues --   -0.36069  -0.35403  -0.33438  -0.32182  -0.29218
 Alpha  occ. eigenvalues --   -0.28458  -0.27368
 Alpha virt. eigenvalues --    0.12247   0.13521   0.14226   0.15271   0.16674
 Alpha virt. eigenvalues --    0.17600   0.18332   0.18771   0.19778   0.22194
 Alpha virt. eigenvalues --    0.22731   0.23174   0.24066   0.24590   0.25392

 Mulliken charges:
               1
     1  C   -2.569701
     2  C    0.278603
     3  Cl  -0.063761
     4  H    0.485333
     5  N    0.889567
     6  H    0.339959
     7  H    0.410767
     8  N    3.201257
     9  O   -1.536396
    10  O   -1.466783
    11  C    0.118006
    12  H    0.194650
    13  H    0.210094
    14  H    0.259234
    15  C   -1.732121
    16  N    1.009405
    17  F   -1.028115
 Sum of Mulliken charges =  -1.00000

 Dipole moment (field-independent basis, Debye):
    X=             -0.3595    Y=             -6.0103    Z=              3.3919  Tot=              6.9108

 Test job not archived.
 1\1\GINC-SE455\SP\RHF\Aug-CC-pVDZ\C4H6Cl1F1N3O2(1-)\OHZDE\09-Apr-2025\
 0\\#t hf aug-cc-pvdz iop(5/13=1,5/36=2,99/5=2) pseudo=read geom=check
 guess=(read,tcheck) scf=(maxcycle=1)\\title\\-1,1\C,0,-0.021116,-0.003
 349,-0.001517\C,0,-0.526174,-0.1811,-1.449709\Cl,0,1.796667,0.084725,-
 0.001277\H,0,-1.614024,-0.316676,-1.256599\N,0,-0.580001,1.06725,0.709
 982\H,0,-0.294321,1.934304,0.268909\H,0,-1.633347,0.896266,0.550038\N,
 0,-0.356684,-1.27665,0.817645\O,0,-0.098777,-1.233688,2.010763\O,0,-0.
 841774,-2.238028,0.230198\C,0,0.112702,-1.253,-2.333936\H,0,-0.418568,

 Normal termination of Gaussian 16 at Wed Apr  9 02:58:20 2025.
