 Gaussian 16, Revision C.01,

 ----------------------------------------------------------------------
 #t hf aug-cc-pvdz symm=none int=(grid=ultrafine) guess=(read,tcheck) s
 table=(opt,rrhf)
 ----------------------------------------------------------------------
 -----
 title
 -----
 Symbolic Z-matrix:
 Charge = -1 Multiplicity = 1

 SCF Done:  E(RHF) =  -630.152755521     A.U. after   16 cycles
 Normal termination of Gaussian 16 at Wed Apr  9 02:56:44 2025.
 Gaussian 16:  ES64L-G16RevC.01  3-Jul-2019

 ----------------------------------------------------------------------
 #t hf aug-cc-pvdz iop(5/13=1,5/36=2,99/5=2) pseudo=read geom=check gue
 ss=(read,tcheck) scf=(maxcycle=1)
 ----------------------------------------------------------------------
 -----
 title
 -----
 Structure from the checkpoint file:  "E2SN2_361_mol1.chk"
 Charge = -1 Multiplicity = 1

                         Standard orientation:
 ---------------------------------------------------------------------
 Center     Atomic      Atomic             Coordinates (Angstroms)
 Number     Number       Type             X           Y           Z
 ---------------------------------------------------------------------
      1          6           0        0.912860    0.042911    0.154561
      2          1           0       -0.229627    0.572248   -1.586016
      3          9           0        0.404199   -1.413984    1.129023
      4          9           0        1.382745    1.563829   -0.821198
      5          6           0       -0.304263   -0.142688   -0.773376
      6          6           0        2.228658   -0.598133   -0.243185
      7          1           0        2.477742   -1.387725    0.464006
      8          1           0        2.140394   -1.028737   -1.240921
      9          1           0        2.995629    0.173089   -0.260868
     10          7           0        0.769064    0.856237    1.323078
     11          1           0        1.341196    1.673741    1.174554
     12          1           0        1.063098    0.302681    2.113584
     13          7           0       -1.557325    0.330907   -0.025138
     14          8           0       -2.290246   -0.512430    0.490539
     15          8           0       -1.785541    1.537268   -0.035900
     16          7           0       -0.432422   -1.476441   -1.252203
     17          1           0       -1.282341   -1.573457   -1.791561
     18          1           0       -0.461047   -2.066611   -0.428482
 ---------------------------------------------------------------------

 SCF Done:  E(RHF) =  -630.773395714     A.U. after    2 cycles

 The electronic state is 1-A.
 Alpha  occ. eigenvalues --  -26.16781 -26.14819 -20.43560 -20.43474 -15.62330
 Alpha  occ. eigenvalues --  -15.35963 -15.34040 -11.23760 -11.18270 -11.08432
 Alpha  occ. eigenvalues --   -1.50414  -1.34306  -1.26086  -1.23321  -1.08475
 Alpha  occ. eigenvalues --   -1.04096  -0.91172  -0.85993  -0.74558  -0.66787
 Alpha  occ. eigenvalues --   -0.62766  -0.60226  -0.58847  -0.56453  -0.56210
 Alpha  occ. eigenvalues --   -0.50254  -0.48190  -0.45884  -0.44884  -0.40503
 Alpha  occ. eigenvalues --   -0.36618  -0.35173  -0.34285  -0.33301  -0.32383
 Alpha  occ. eigenvalues --   -0.32322  -0.30771  -0.30103  -0.29454  -0.28602
 Alpha  occ. eigenvalues --   -0.28063
 Alpha virt. eigenvalues --    0.13385   0.13737   0.14260   0.15159   0.15549
 Alpha virt. eigenvalues --    0.16460   0.17489   0.17966   0.21122   0.22135
 Alpha virt. eigenvalues --    0.23623   0.24881   0.25464   0.26029   0.26477

 Mulliken charges:
               1
     1  C   -0.889033
     2  H    0.161955
     3  F   -0.951162
     4  F   -0.947810
     5  C   -1.618609
     6  C   -0.204338
     7  H    0.240411
     8  H    0.244240
     9  H    0.210284
    10  N    0.584774
    11  H    0.328137
    12  H    0.321810
    13  N    3.192599
    14  O   -1.492872
    15  O   -1.520493
    16  N    0.724696
    17  H    0.214574
    18  H    0.400837
 Sum of Mulliken charges =  -1.00000

 Dipole moment (field-independent basis, Debye):
    X=              0.4125    Y=             -1.9329    Z=             -1.0646  Tot=              2.2449

 Test job not archived.
 1\1\GINC-SE164\SP\RHF\Aug-CC-pVDZ\C3H8F2N3O2(1-)\OHZDE\09-Apr-2025\0\\
 #t hf aug-cc-pvdz iop(5/13=1,5/36=2,99/5=2) pseudo=read geom=check gue
 ss=(read,tcheck) scf=(maxcycle=1)\\title\\-1,1\C,0,0.5892497,-0.063783
 72,-0.04750577\H,0,1.76122789,1.73656746,-0.03060182\F,0,-1.21673006,0
 .0663358,-0.27632815\F,0,2.43025343,-0.17260614,0.24395878\C,0,0.70898
 866,1.47326637,-0.05408976\C,0,0.76961515,-0.8078356,-1.35682509\H,0,-
 0.17458751,-1.26437023,-1.64952751\H,0,1.08443381,-0.11145678,-2.13440
 736\H,0,1.54627111,-1.5575426,-1.22234471\N,0,0.36836023,-0.73102895,1

 Normal termination of Gaussian 16 at Wed Apr  9 02:56:54 2025.
