 Gaussian 16, Revision C.01,

 ----------------------------------------------------------------------
 #t hf aug-cc-pvdz symm=none int=(grid=ultrafine) guess=(read,tcheck) s
 table=(opt,rrhf)
 ----------------------------------------------------------------------
 -----
 title
 -----
 Symbolic Z-matrix:
 Charge = -1 Multiplicity = 1

 SCF Done:  E(RHF) =  -739.643322076     A.U. after   16 cycles
 Normal termination of Gaussian 16 at Wed Apr  9 02:46:35 2025.
 Gaussian 16:  ES64L-G16RevC.01  3-Jul-2019

 ----------------------------------------------------------------------
 #t hf aug-cc-pvdz iop(5/13=1,5/36=2,99/5=2) pseudo=read geom=check gue
 ss=(read,tcheck) scf=(maxcycle=1)
 ----------------------------------------------------------------------
 -----
 title
 -----
 Structure from the checkpoint file:  "E2SN2_241_mol2.chk"
 Charge = -1 Multiplicity = 1

                         Standard orientation:
 ---------------------------------------------------------------------
 Center     Atomic      Atomic             Coordinates (Angstroms)
 Number     Number       Type             X           Y           Z
 ---------------------------------------------------------------------
      1          6           0        0.416709   -0.036764    0.415638
      2          6           0       -0.637735   -0.024287   -0.669694
      3          9           0        0.240487   -1.135994    1.270538
      4          1           0       -0.440054   -0.784896   -1.415557
      5          1           0       -0.642044    1.016735   -1.063539
      6          7           0        1.793269   -0.517294   -0.264418
      7          8           0        2.820280   -0.062763    0.233566
      8          8           0        1.764220   -1.342181   -1.174169
      9          7           0        0.541956    1.143631    1.069813
     10          1           0        0.332542    1.940540    0.373667
     11          1           0        1.421614    1.210553    1.562500
     12          7           0       -1.978634   -0.338636   -0.115848
     13          8           0       -2.626334   -1.216947   -0.694252
     14          8           0       -2.386654    0.304858    0.845205
     15          9           0       -0.064279    2.636630   -0.875246
 ---------------------------------------------------------------------

 SCF Done:  E(RHF) =  -740.349362477     A.U. after    2 cycles

 The electronic state is 1-A.
 Alpha  occ. eigenvalues --  -26.36373 -26.13819 -20.48524 -20.48509 -20.47357
 Alpha  occ. eigenvalues --  -20.47193 -15.66967 -15.66543 -15.36158 -11.31661
 Alpha  occ. eigenvalues --  -11.17702  -1.55287  -1.54333  -1.48835  -1.39238
 Alpha  occ. eigenvalues --   -1.38090  -1.21097  -1.11769  -1.01070  -0.92298
 Alpha  occ. eigenvalues --   -0.79921  -0.72905  -0.69603  -0.67349  -0.64751
 Alpha  occ. eigenvalues --   -0.63379  -0.63190  -0.61818  -0.59756  -0.57690
 Alpha  occ. eigenvalues --   -0.52896  -0.51133  -0.48662  -0.45276  -0.40851
 Alpha  occ. eigenvalues --   -0.38629  -0.37186  -0.36304  -0.34358  -0.33564
 Alpha  occ. eigenvalues --   -0.33028  -0.30254  -0.29606  -0.29216
 Alpha virt. eigenvalues --    0.14251   0.15200   0.16735   0.17233   0.18130
 Alpha virt. eigenvalues --    0.18601   0.19264   0.21344   0.22215   0.23782
 Alpha virt. eigenvalues --    0.25444   0.25671   0.25922   0.26333   0.27675

 Mulliken charges:
               1
     1  C   -0.085935
     2  C   -0.537044
     3  F   -1.095596
     4  H    0.133577
     5  H    0.255032
     6  N    2.912509
     7  O   -1.475949
     8  O   -1.536444
     9  N    0.573140
    10  H    0.425091
    11  H    0.432069
    12  N    2.973658
    13  O   -1.458088
    14  O   -1.450556
    15  F   -1.065463
 Sum of Mulliken charges =  -1.00000

 Dipole moment (field-independent basis, Debye):
    X=              1.2347    Y=             -4.4578    Z=              1.4358  Tot=              4.8434

 Test job not archived.
 1\1\GINC-SE044\SP\RHF\Aug-CC-pVDZ\C2H4F2N3O4(1-)\OHZDE\09-Apr-2025\0\\
 #t hf aug-cc-pvdz iop(5/13=1,5/36=2,99/5=2) pseudo=read geom=check gue
 ss=(read,tcheck) scf=(maxcycle=1)\\title\\-1,1\C,0,-0.039965,0.045409,
 0.003047\C,0,-0.687954,0.195678,-1.356175\F,0,1.352079,-0.086829,-0.11
 9193\H,0,-0.512578,1.183271,-1.76583\H,0,-1.761273,-0.053892,-1.199459
 \N,0,-0.053516,1.495781,0.699137\O,0,-0.128804,1.497211,1.925378\O,0,0
 .077563,2.50174,0.006465\N,0,-0.608982,-0.910455,0.777325\H,0,-1.66276
 9,-0.947552,0.54996\H,0,-0.373937,-0.794937,1.753249\N,0,-0.106286,-0.

 Normal termination of Gaussian 16 at Wed Apr  9 02:46:43 2025.
