 Gaussian 16, Revision C.01,

 ----------------------------------------------------------------------
 #t hf aug-cc-pvdz symm=none int=(grid=ultrafine) guess=(read,tcheck) s
 table=(opt,rrhf)
 ----------------------------------------------------------------------
 -----
 title
 -----
 Symbolic Z-matrix:
 Charge = -1 Multiplicity = 1

 SCF Done:  E(RHF) =  -935.186844072     A.U. after   15 cycles
 Normal termination of Gaussian 16 at Wed Apr  9 02:36:23 2025.
 Gaussian 16:  ES64L-G16RevC.01  3-Jul-2019

 ----------------------------------------------------------------------
 #t hf aug-cc-pvdz iop(5/13=1,5/36=2,99/5=2) pseudo=read geom=check gue
 ss=(read,tcheck) scf=(maxcycle=1)
 ----------------------------------------------------------------------
 -----
 title
 -----
 Structure from the checkpoint file:  "E2SN2_128_mol2.chk"
 Charge = -1 Multiplicity = 1

                         Standard orientation:
 ---------------------------------------------------------------------
 Center     Atomic      Atomic             Coordinates (Angstroms)
 Number     Number       Type             X           Y           Z
 ---------------------------------------------------------------------
      1          6           0        0.468833    0.205223    0.383912
      2          6           0       -1.031703    0.186694    0.189259
      3         17           0        1.140570    1.784694   -0.144004
      4          1           0       -1.350532    0.466843   -0.817157
      5          1           0       -1.472616    0.959704    0.823680
      6          7           0        0.964802   -0.055913    1.707045
      7          1           0        0.421613    0.522646    2.338361
      8          1           0        0.773893   -1.027258    1.922593
      9          7           0        1.066345   -0.862216   -0.537614
     10          8           0        1.479158   -1.891841   -0.006701
     11          8           0        1.009416   -0.660898   -1.742488
     12          6           0       -1.699244   -1.142293    0.517431
     13          1           0       -1.582183   -1.435570    1.567304
     14          1           0       -2.747624   -0.887489    0.263997
     15          1           0       -1.338768   -1.955554   -0.121651
     16          9           0       -3.627489    0.485329   -0.473907
 ---------------------------------------------------------------------

 SCF Done:  E(RHF) =  -935.735377914     A.U. after    2 cycles

 The electronic state is 1-A.
 Alpha  occ. eigenvalues -- -105.46424 -26.05745 -20.49156 -20.49120 -15.68299
 Alpha  occ. eigenvalues --  -15.41514 -11.28793 -11.10758 -11.07465 -10.51324
 Alpha  occ. eigenvalues --   -7.68270  -7.67879  -7.67860  -1.56380  -1.40375
 Alpha  occ. eigenvalues --   -1.15553  -1.11417  -1.00505  -0.93029  -0.89689
 Alpha  occ. eigenvalues --   -0.75794  -0.72269  -0.66693  -0.64695  -0.63405
 Alpha  occ. eigenvalues --   -0.59458  -0.53571  -0.50901  -0.47272  -0.41639
 Alpha  occ. eigenvalues --   -0.40688  -0.39311  -0.37914  -0.37284  -0.36123
 Alpha  occ. eigenvalues --   -0.35405  -0.34213  -0.33463  -0.21922  -0.21839
 Alpha  occ. eigenvalues --   -0.21099
 Alpha virt. eigenvalues --    0.12100   0.13885   0.14781   0.15234   0.16406
 Alpha virt. eigenvalues --    0.16657   0.17602   0.18657   0.19827   0.21215
 Alpha virt. eigenvalues --    0.23269   0.24334   0.24989   0.25773   0.26148

 Mulliken charges:
               1
     1  C   -2.140354
     2  C    0.029696
     3  Cl  -0.002186
     4  H    0.220139
     5  H    0.158571
     6  N    0.783380
     7  H    0.209170
     8  H    0.403974
     9  N    2.995579
    10  O   -1.455755
    11  O   -1.515164
    12  C   -0.199428
    13  H    0.086175
    14  H    0.263221
    15  H    0.135680
    16  F   -0.972697
 Sum of Mulliken charges =  -1.00000

 Dipole moment (field-independent basis, Debye):
    X=             10.1034    Y=             -0.8581    Z=              4.0598  Tot=             10.9223

 Test job not archived.
 1\1\GINC-SE188\SP\RHF\Aug-CC-pVDZ\C3H7Cl1F1N2O2(1-)\OHZDE\09-Apr-2025\
 0\\#t hf aug-cc-pvdz iop(5/13=1,5/36=2,99/5=2) pseudo=read geom=check
 guess=(read,tcheck) scf=(maxcycle=1)\\title\\-1,1\C,0,-0.634859,0.0193
 6,-1.535927\C,0,0.139339,0.031766,-0.23581\Cl,0,-0.062773,-1.323013,-2
 .582544\H,0,1.223698,0.03018,-0.366847\H,0,-0.057565,-0.904054,0.29325
 3\N,0,-2.065894,-0.078367,-1.449639\H,0,-2.265197,-0.830762,-0.79962\H
 ,0,-2.411249,0.786328,-1.050328\N,0,-0.318238,1.323817,-2.273355\O,0,-
 1.200062,2.180675,-2.297685\O,0,0.816555,1.463474,-2.70721\C,0,-0.1982

 Normal termination of Gaussian 16 at Wed Apr  9 02:36:30 2025.
