 Gaussian 16, Revision C.01,

 ----------------------------------------------------------------------
 #t hf aug-cc-pvdz symm=none int=(grid=ultrafine) guess=(read,tcheck) s
 table=(opt,rrhf)
 ----------------------------------------------------------------------
 -----
 title
 -----
 Symbolic Z-matrix:
 Charge = -1 Multiplicity = 1

 SCF Done:  E(RHF) =  -836.265748416     A.U. after   16 cycles
 Normal termination of Gaussian 16 at Wed Apr  9 02:56:15 2025.
 Gaussian 16:  ES64L-G16RevC.01  3-Jul-2019

 ----------------------------------------------------------------------
 #t hf aug-cc-pvdz iop(5/13=1,5/36=2,99/5=2) pseudo=read geom=check gue
 ss=(read,tcheck) scf=(maxcycle=1)
 ----------------------------------------------------------------------
 -----
 title
 -----
 Structure from the checkpoint file:  "E2SN2_367_mol2.chk"
 Charge = -1 Multiplicity = 1

                         Standard orientation:
 ---------------------------------------------------------------------
 Center     Atomic      Atomic             Coordinates (Angstroms)
 Number     Number       Type             X           Y           Z
 ---------------------------------------------------------------------
      1          6           0       -0.914208    0.126210   -0.576775
      2          6           0        0.353356    0.761890   -0.044325
      3         17           0       -1.348659   -1.375663    0.462481
      4          1           0        0.478584    1.660615   -0.703539
      5          1           0       -0.709800   -0.346085   -1.538738
      6          7           0       -1.940690    1.092192   -0.542946
      7          1           0       -1.505477    2.012089   -0.850833
      8          1           0       -2.670842    0.845638   -1.200543
      9          7           0        1.516130   -0.134351   -0.282143
     10          8           0        2.355214   -0.269637    0.611857
     11          8           0        1.610480   -0.660855   -1.393603
     12          6           0        0.277053    1.232508    1.386519
     13          1           0        0.187116    0.397047    2.080907
     14          1           0       -0.600310    1.873685    1.468723
     15          1           0        1.164171    1.814429    1.638178
     16          1           0       -0.467066    3.144251   -1.319252
 ---------------------------------------------------------------------

 SCF Done:  E(RHF) =  -836.728567066     A.U. after    2 cycles

 The electronic state is 1-A.
 Alpha  occ. eigenvalues -- -105.42231 -20.47003 -20.46627 -15.66092 -15.35641
 Alpha  occ. eigenvalues --  -11.21751 -11.17120 -11.11134 -10.47113  -7.64017
 Alpha  occ. eigenvalues --   -7.63712  -7.63695  -1.53678  -1.37424  -1.10120
 Alpha  occ. eigenvalues --   -1.00819  -0.91861  -0.85328  -0.77940  -0.69659
 Alpha  occ. eigenvalues --   -0.64741  -0.62413  -0.61700  -0.55995  -0.53644
 Alpha  occ. eigenvalues --   -0.50910  -0.45073  -0.44142  -0.41548  -0.38419
 Alpha  occ. eigenvalues --   -0.37088  -0.36010  -0.33216  -0.32861  -0.32575
 Alpha  occ. eigenvalues --   -0.30471  -0.11660
 Alpha virt. eigenvalues --    0.13491   0.13801   0.15003   0.15204   0.16158
 Alpha virt. eigenvalues --    0.17697   0.18170   0.19481   0.20612   0.20894
 Alpha virt. eigenvalues --    0.22994   0.24142   0.24703   0.25952   0.26728

 Mulliken charges:
               1
     1  C   -0.779161
     2  C   -1.076193
     3  Cl  -0.196585
     4  H    0.187669
     5  H    0.181615
     6  N    0.569603
     7  H   -0.021476
     8  H    0.188109
     9  N    2.865481
    10  O   -1.381858
    11  O   -1.534149
    12  C   -0.161996
    13  H    0.260961
    14  H    0.301770
    15  H    0.219486
    16  H   -0.623276
 Sum of Mulliken charges =  -1.00000

 Dipole moment (field-independent basis, Debye):
    X=             -0.1004    Y=             -6.7784    Z=              2.9867  Tot=              7.4079

 Test job not archived.
 1\1\GINC-SE456\SP\RHF\Aug-CC-pVDZ\C3H8Cl1N2O2(1-)\OHZDE\09-Apr-2025\0\
 \#t hf aug-cc-pvdz iop(5/13=1,5/36=2,99/5=2) pseudo=read geom=check gu
 ess=(read,tcheck) scf=(maxcycle=1)\\title\\-1,1\C,0,0.053539,-0.026068
 ,0.019775\C,0,-0.554125,-0.272656,-1.3456\Cl,0,1.904133,0.237511,-0.15
 4157\H,0,-1.648979,-0.363071,-1.11961\H,0,0.034724,-0.949632,0.6002\N,
 0,-0.577464,1.099854,0.587284\H,0,-1.610767,1.024282,0.348558\H,0,-0.4
 77954,1.081914,1.595312\N,0,-0.097161,-1.582392,-1.881906\O,0,0.216961
 ,-1.660574,-3.072206\O,0,-0.106569,-2.546536,-1.112628\C,0,-0.367462,0

 Normal termination of Gaussian 16 at Wed Apr  9 02:56:21 2025.
