 Gaussian 16, Revision C.01,

 ----------------------------------------------------------------------
 #t hf aug-cc-pvdz symm=none int=(grid=ultrafine) guess=(read,tcheck) s
 table=(opt,rrhf)
 ----------------------------------------------------------------------
 -----
 title
 -----
 Symbolic Z-matrix:
 Charge = -1 Multiplicity = 1

 SCF Done:  E(RHF) =  -515.187519669     A.U. after   17 cycles
 Normal termination of Gaussian 16 at Wed Apr  9 02:45:48 2025.
 Gaussian 16:  ES64L-G16RevC.01  3-Jul-2019

 ----------------------------------------------------------------------
 #t hf aug-cc-pvdz iop(5/13=1,5/36=2,99/5=2) pseudo=read geom=check gue
 ss=(read,tcheck) scf=(maxcycle=1)
 ----------------------------------------------------------------------
 -----
 title
 -----
 Structure from the checkpoint file:  "E2SN2_234_mol1.chk"
 Charge = -1 Multiplicity = 1

                         Standard orientation:
 ---------------------------------------------------------------------
 Center     Atomic      Atomic             Coordinates (Angstroms)
 Number     Number       Type             X           Y           Z
 ---------------------------------------------------------------------
      1          6           0        0.128951    0.341937    0.047428
      2          1           0       -0.882838   -1.008660   -1.207165
      3          9           0        0.253441   -0.249823    1.571415
      4          1           0        0.309838    0.783050   -1.735928
      5          6           0       -1.181317   -0.298108   -0.431869
      6          7           0        1.381037   -0.304682   -0.387335
      7          8           0        1.328022   -1.496785   -0.714384
      8          8           0        2.439781    0.310745   -0.227248
      9          6           0        0.194972    1.791206    0.472309
     10          1           0        0.208004    2.480768   -0.365206
     11          1           0       -0.682154    1.984612    1.092868
     12          1           0        1.093751    1.919842    1.073523
     13          7           0       -2.060875    0.760585   -0.958316
     14          1           0       -2.858107    0.301183   -1.389452
     15          1           0       -1.510289    1.181901   -1.707600
     16          6           0       -1.956100   -1.059583    0.639157
     17          1           0       -1.356902   -1.879160    1.030150
     18          1           0       -2.232197   -0.402507    1.463870
     19          1           0       -2.872664   -1.468335    0.192664
 ---------------------------------------------------------------------

 SCF Done:  E(RHF) =  -515.705794286     A.U. after    2 cycles

 The electronic state is 1-A.
 Alpha  occ. eigenvalues --  -26.22051 -20.40755 -20.40731 -15.62067 -15.34595
 Alpha  occ. eigenvalues --  -11.23375 -11.12964 -11.08911 -11.08783  -1.48204
 Alpha  occ. eigenvalues --   -1.31743  -1.31402  -1.05672  -0.96021  -0.86024
 Alpha  occ. eigenvalues --   -0.83107  -0.72943  -0.64936  -0.58235  -0.57555
 Alpha  occ. eigenvalues --   -0.57278  -0.54008  -0.51242  -0.48039  -0.45087
 Alpha  occ. eigenvalues --   -0.42396  -0.40938  -0.40128  -0.38436  -0.37272
 Alpha  occ. eigenvalues --   -0.36647  -0.34873  -0.32274  -0.30856  -0.29196
 Alpha  occ. eigenvalues --   -0.27772  -0.13059
 Alpha virt. eigenvalues --    0.12243   0.13445   0.14074   0.14536   0.15541
 Alpha virt. eigenvalues --    0.15936   0.16552   0.17071   0.18762   0.19645
 Alpha virt. eigenvalues --    0.22471   0.23133   0.23733   0.24424   0.25651

 Mulliken charges:
               1
     1  C   -0.703109
     2  H    0.147853
     3  F   -0.958557
     4  H   -0.234013
     5  C   -1.253228
     6  N    3.336816
     7  O   -1.578692
     8  O   -1.590207
     9  C   -0.196718
    10  H    0.185173
    11  H    0.374623
    12  H    0.204924
    13  N    0.478294
    14  H    0.169622
    15  H    0.221628
    16  C   -0.145850
    17  H    0.253143
    18  H    0.248906
    19  H    0.039390
 Sum of Mulliken charges =  -1.00000

 Dipole moment (field-independent basis, Debye):
    X=             -4.1458    Y=             -0.1081    Z=              1.1878  Tot=              4.3139

 Test job not archived.
 1\1\GINC-SE222\SP\RHF\Aug-CC-pVDZ\C4H10F1N2O2(1-)\OHZDE\09-Apr-2025\0\
 \#t hf aug-cc-pvdz iop(5/13=1,5/36=2,99/5=2) pseudo=read geom=check gu
 ess=(read,tcheck) scf=(maxcycle=1)\\title\\-1,1\C,0,0.49655237,-0.0702
 6572,-0.08939763\H,0,1.56077293,1.56525427,-0.87319827\F,0,-0.90707446
 ,-0.30457665,-0.9037349\H,0,2.2354991,-0.01430676,0.52752349\C,0,0.688
 66389,1.44662019,-0.22480983\N,0,1.26494361,-0.92166821,-1.01651287\O,
 0,1.65193825,-0.41312246,-2.07599285\O,0,1.32275297,-2.13283574,-0.781
 8932\C,0,0.00005096,-0.69558844,1.19423766\H,0,0.76564718,-0.7617625,1

 Normal termination of Gaussian 16 at Wed Apr  9 02:45:58 2025.
