 Gaussian 16, Revision C.01,

 ----------------------------------------------------------------------
 #t hf aug-cc-pvdz symm=none int=(grid=ultrafine) guess=(read,tcheck) s
 table=(opt,rrhf)
 ----------------------------------------------------------------------
 -----
 title
 -----
 Symbolic Z-matrix:
 Charge = -1 Multiplicity = 1

 SCF Done:  E(RHF) =  -935.214408613     A.U. after   16 cycles
 Normal termination of Gaussian 16 at Wed Apr  9 03:02:08 2025.
 Gaussian 16:  ES64L-G16RevC.01  3-Jul-2019

 ----------------------------------------------------------------------
 #t hf aug-cc-pvdz iop(5/13=1,5/36=2,99/5=2) pseudo=read geom=check gue
 ss=(read,tcheck) scf=(maxcycle=1)
 ----------------------------------------------------------------------
 -----
 title
 -----
 Structure from the checkpoint file:  "E2SN2_6_mol2.chk"
 Charge = -1 Multiplicity = 1

                         Standard orientation:
 ---------------------------------------------------------------------
 Center     Atomic      Atomic             Coordinates (Angstroms)
 Number     Number       Type             X           Y           Z
 ---------------------------------------------------------------------
      1          6           0        0.060321    0.189314   -0.284266
      2          6           0       -0.756346   -0.124026    0.986633
      3         17           0        0.126647   -1.194588   -1.395689
      4          1           0       -0.706108    0.817888    1.543265
      5          1           0       -0.517117    1.028042   -0.774165
      6          7           0        1.437944    0.620498    0.096928
      7          8           0        2.433945   -0.003273   -0.265785
      8          8           0        1.471919    1.624268    0.812636
      9          6           0       -0.165125   -1.250477    1.817573
     10          1           0       -0.177645   -2.191185    1.260334
     11          1           0        0.867894   -1.043733    2.112860
     12          1           0       -0.769762   -1.378602    2.718070
     13          7           0       -2.155311   -0.349498    0.677278
     14          1           0       -2.217169   -1.183002    0.099486
     15          1           0       -2.393554    0.457683    0.066740
     16          9           0       -1.921998    1.783009   -0.912641
 ---------------------------------------------------------------------

 SCF Done:  E(RHF) =  -935.762445303     A.U. after    2 cycles

 The electronic state is 1-A.
 Alpha  occ. eigenvalues -- -105.44141 -26.11009 -20.47024 -20.46458 -15.66261
 Alpha  occ. eigenvalues --  -15.33088 -11.20135 -11.14458 -11.11135 -10.49026
 Alpha  occ. eigenvalues --   -7.65976  -7.65607  -7.65587  -1.53813  -1.37550
 Alpha  occ. eigenvalues --   -1.17798  -1.07247  -1.00727  -0.90738  -0.87343
 Alpha  occ. eigenvalues --   -0.76065  -0.68957  -0.63252  -0.62249  -0.60911
 Alpha  occ. eigenvalues --   -0.55821  -0.50636  -0.48725  -0.46228  -0.42075
 Alpha  occ. eigenvalues --   -0.40303  -0.38038  -0.37823  -0.37229  -0.34267
 Alpha  occ. eigenvalues --   -0.33197  -0.32330  -0.30042  -0.27428  -0.26718
 Alpha  occ. eigenvalues --   -0.25171
 Alpha virt. eigenvalues --    0.12619   0.13881   0.14283   0.15832   0.16502
 Alpha virt. eigenvalues --    0.17386   0.18599   0.18943   0.19812   0.22359
 Alpha virt. eigenvalues --    0.24006   0.24916   0.25818   0.26136   0.26659

 Mulliken charges:
               1
     1  C   -0.475933
     2  C   -1.667401
     3  Cl  -0.032942
     4  H    0.146261
     5  H    0.422270
     6  N    2.879847
     7  O   -1.435505
     8  O   -1.507581
     9  C    0.046180
    10  H    0.181358
    11  H    0.179730
    12  H    0.147224
    13  N    0.653852
    14  H    0.255577
    15  H    0.236574
    16  F   -1.029512
 Sum of Mulliken charges =  -1.00000

 Dipole moment (field-independent basis, Debye):
    X=              3.8077    Y=             -5.3890    Z=              2.0169  Tot=              6.8998

 Test job not archived.
 1\1\GINC-SE054\SP\RHF\Aug-CC-pVDZ\C3H7Cl1F1N2O2(1-)\OHZDE\09-Apr-2025\
 0\\#t hf aug-cc-pvdz iop(5/13=1,5/36=2,99/5=2) pseudo=read geom=check
 guess=(read,tcheck) scf=(maxcycle=1)\\title\\-1,1\C,0,-0.103076,-0.026
 257,-1.414494\C,0,0.132537,-0.185721,0.101873\Cl,0,-1.761288,0.492364,
 -1.783561\H,0,1.183063,-0.491524,0.151315\H,0,0.614577,0.794094,-1.712
 652\N,0,0.210489,-1.309756,-2.109748\O,0,-0.640984,-1.92097,-2.75324\O
 ,0,1.371922,-1.695203,-1.956613\C,0,-0.748124,-1.248259,0.737755\H,0,-
 1.803491,-0.971676,0.66492\H,0,-0.619084,-2.225672,0.263332\H,0,-0.489

 Normal termination of Gaussian 16 at Wed Apr  9 03:02:16 2025.
