 Gaussian 16, Revision C.01,

 ----------------------------------------------------------------------
 #t hf aug-cc-pvdz symm=none int=(grid=ultrafine) guess=(read,tcheck) s
 table=(opt,rrhf)
 ----------------------------------------------------------------------
 -----
 title
 -----
 Symbolic Z-matrix:
 Charge = -1 Multiplicity = 1

 SCF Done:  E(RHF) =  -777.187962709     A.U. after   16 cycles
 Normal termination of Gaussian 16 at Wed Apr  9 02:57:51 2025.
 Gaussian 16:  ES64L-G16RevC.01  3-Jul-2019

 ----------------------------------------------------------------------
 #t hf aug-cc-pvdz iop(5/13=1,5/36=2,99/5=2) pseudo=read geom=check gue
 ss=(read,tcheck) scf=(maxcycle=1)
 ----------------------------------------------------------------------
 -----
 title
 -----
 Structure from the checkpoint file:  "E2SN2_384_mol2.chk"
 Charge = -1 Multiplicity = 1

                         Standard orientation:
 ---------------------------------------------------------------------
 Center     Atomic      Atomic             Coordinates (Angstroms)
 Number     Number       Type             X           Y           Z
 ---------------------------------------------------------------------
      1          6           0        0.390382   -0.147453    0.214209
      2          6           0       -0.602517   -0.830761   -0.744290
      3         17           0        0.220936    1.677583    0.032906
      4          1           0       -0.455927   -1.910051   -0.502661
      5          1           0       -0.378309   -0.615615   -1.792720
      6          7           0        0.259750   -0.537753    1.572085
      7          1           0       -0.683570   -0.297501    1.871524
      8          1           0        0.283147   -1.618690    1.512810
      9          6           0        1.750758   -0.455273   -0.261713
     10          7           0        2.830086   -0.658992   -0.677212
     11          6           0       -1.978103   -0.466905   -0.443534
     12          7           0       -3.092668   -0.179154   -0.209672
     13          1           0        0.135461   -3.043414    0.967216
 ---------------------------------------------------------------------

 SCF Done:  E(RHF) =  -777.580918201     A.U. after    2 cycles

 The electronic state is 1-A.
 Alpha  occ. eigenvalues -- -105.46062 -15.41680 -15.41335 -15.37024 -11.27846
 Alpha  occ. eigenvalues --  -11.18722 -11.18577 -11.17669 -10.50925  -7.67850
 Alpha  occ. eigenvalues --   -7.67485  -7.67479  -1.14392  -1.11741  -1.10084
 Alpha  occ. eigenvalues --   -0.97577  -0.92766  -0.81442  -0.62165  -0.60461
 Alpha  occ. eigenvalues --   -0.58058  -0.54639  -0.52216  -0.50280  -0.49410
 Alpha  occ. eigenvalues --   -0.44907  -0.40163  -0.39691  -0.38809  -0.38142
 Alpha  occ. eigenvalues --   -0.35832  -0.35413  -0.33716  -0.12245
 Alpha virt. eigenvalues --    0.12878   0.15032   0.16413   0.16753   0.17337
 Alpha virt. eigenvalues --    0.18566   0.20058   0.20849   0.22370   0.22765
 Alpha virt. eigenvalues --    0.23301   0.23624   0.24317   0.24976   0.25310

 Mulliken charges:
               1
     1  C   -1.568520
     2  C    0.326043
     3  Cl  -0.001208
     4  H    0.350761
     5  H    0.234451
     6  N    0.748143
     7  H    0.287845
     8  H    0.078005
     9  C   -1.329239
    10  N    0.941990
    11  C   -1.311272
    12  N    0.870741
    13  H   -0.627740
 Sum of Mulliken charges =  -1.00000

 Dipole moment (field-independent basis, Debye):
    X=             -1.0234    Y=              7.8382    Z=             -3.5030  Tot=              8.6462

 Test job not archived.
 1\1\GINC-SE024\SP\RHF\Aug-CC-pVDZ\C4H5Cl1N3(1-)\OHZDE\09-Apr-2025\0\\#
 t hf aug-cc-pvdz iop(5/13=1,5/36=2,99/5=2) pseudo=read geom=check gues
 s=(read,tcheck) scf=(maxcycle=1)\\title\\-1,1\C,0,0.000058,-0.024587,0
 .014146\C,0,-0.50739,-0.146936,-1.434649\Cl,0,1.834372,0.138614,-0.017
 429\H,0,-1.613765,-0.174482,-1.293525\H,0,-0.138397,-1.05147,-1.926\N,
 0,-0.591426,1.029692,0.757025\H,0,-0.380716,1.901495,0.274533\H,0,-1.6
 50679,0.860409,0.609337\C,0,-0.258852,-1.310614,0.685695\N,0,-0.418434
 ,-2.354954,1.198507\C,0,-0.165902,1.024918,-2.225362\N,0,0.10532,1.966

 Normal termination of Gaussian 16 at Wed Apr  9 02:57:56 2025.
