 Gaussian 16, Revision C.01,

 ----------------------------------------------------------------------
 #t hf aug-cc-pvdz symm=none int=(grid=ultrafine) guess=(read,tcheck) s
 table=(opt,rrhf)
 ----------------------------------------------------------------------
 -----
 title
 -----
 Symbolic Z-matrix:
 Charge = -1 Multiplicity = 1

 SCF Done:  E(RHF) =  -823.434562223     A.U. after   16 cycles
 Normal termination of Gaussian 16 at Wed Apr  9 02:41:12 2025.
 Gaussian 16:  ES64L-G16RevC.01  3-Jul-2019

 ----------------------------------------------------------------------
 #t hf aug-cc-pvdz iop(5/13=1,5/36=2,99/5=2) pseudo=read geom=check gue
 ss=(read,tcheck) scf=(maxcycle=1)
 ----------------------------------------------------------------------
 -----
 title
 -----
 Structure from the checkpoint file:  "E2SN2_192_mol1.chk"
 Charge = -1 Multiplicity = 1

                         Standard orientation:
 ---------------------------------------------------------------------
 Center     Atomic      Atomic             Coordinates (Angstroms)
 Number     Number       Type             X           Y           Z
 ---------------------------------------------------------------------
      1          6           0        0.428193    0.279219    0.481203
      2          1           0        0.140138   -1.140814   -1.111856
      3          9           0       -1.186547    0.584844    1.610638
      4         17           0        2.413270   -0.296166   -0.362213
      5          6           0       -0.432965   -0.711706   -0.287707
      6          1           0        0.784508   -0.042528    1.439555
      7          6           0        0.485487    1.720810    0.063747
      8          1           0        0.649904    1.807389   -1.011334
      9          1           0       -0.457971    2.184737    0.342505
     10          1           0        1.312226    2.218613    0.569807
     11          6           0       -1.582021   -0.004961   -0.904777
     12          7           0       -2.490016    0.454164   -1.492671
     13          7           0       -0.843916   -1.780463    0.613467
     14          1           0       -1.485806   -2.398704    0.129890
     15          1           0       -1.344308   -1.273532    1.342947
 ---------------------------------------------------------------------

 SCF Done:  E(RHF) =  -823.876192025     A.U. after    2 cycles

 The electronic state is 1-A.
 Alpha  occ. eigenvalues -- -105.33903 -26.14803 -15.38421 -15.36674 -11.21167
 Alpha  occ. eigenvalues --  -11.18472 -11.15831 -11.10333 -10.38719  -7.55544
 Alpha  occ. eigenvalues --   -7.55390  -7.55379  -1.22615  -1.09978  -1.06890
 Alpha  occ. eigenvalues --   -0.94209  -0.83108  -0.80122  -0.70795  -0.59897
 Alpha  occ. eigenvalues --   -0.57827  -0.53511  -0.48781  -0.47838  -0.45303
 Alpha  occ. eigenvalues --   -0.43574  -0.40612  -0.37701  -0.35989  -0.33583
 Alpha  occ. eigenvalues --   -0.32924  -0.31057  -0.30498  -0.26131  -0.25916
 Alpha  occ. eigenvalues --   -0.24887
 Alpha virt. eigenvalues --    0.13198   0.14015   0.14651   0.15360   0.16280
 Alpha virt. eigenvalues --    0.16700   0.18139   0.18908   0.21207   0.22728
 Alpha virt. eigenvalues --    0.23715   0.24148   0.25035   0.26646   0.27311

 Mulliken charges:
               1
     1  C    0.389940
     2  H    0.189247
     3  F   -0.906846
     4  Cl  -0.672576
     5  C   -0.447239
     6  H   -0.026808
     7  C   -0.424602
     8  H    0.308530
     9  H    0.382189
    10  H    0.080768
    11  C   -1.729384
    12  N    0.948922
    13  N    0.440801
    14  H    0.150323
    15  H    0.316735
 Sum of Mulliken charges =  -1.00000

 Dipole moment (field-independent basis, Debye):
    X=              0.0660    Y=             -1.0125    Z=             -0.6035  Tot=              1.1806

 Test job not archived.
 1\1\GINC-SE164\SP\RHF\Aug-CC-pVDZ\C4H7Cl1F1N2(1-)\OHZDE\09-Apr-2025\0\
 \#t hf aug-cc-pvdz iop(5/13=1,5/36=2,99/5=2) pseudo=read geom=check gu
 ess=(read,tcheck) scf=(maxcycle=1)\\title\\-1,1\C,0,0.61498654,-0.0310
 7623,0.02612507\H,0,1.79207999,1.77217037,0.0339154\F,0,-1.35536619,0.
 27445747,0.05396037\Cl,0,2.73014803,-0.52845305,-0.48539741\C,0,0.7388
 0163,1.48530424,0.02313128\H,0,0.32376213,-0.48717217,-0.89912371\C,0,
 0.57849675,-0.78844709,1.32258018\H,0,1.37684293,-0.45712918,1.9883126
 2\H,0,-0.39337383,-0.61691274,1.77984363\H,0,0.72113941,-1.85189026,1.

 Normal termination of Gaussian 16 at Wed Apr  9 02:41:19 2025.
