 Gaussian 16, Revision C.01,

 ----------------------------------------------------------------------
 #t hf aug-cc-pvdz symm=none int=(grid=ultrafine) guess=(read,tcheck) s
 table=(opt,rrhf)
 ----------------------------------------------------------------------
 -----
 title
 -----
 Symbolic Z-matrix:
 Charge = -1 Multiplicity = 1

 SCF Done:  E(RHF) =  -971.891917396     A.U. after   17 cycles
 Normal termination of Gaussian 16 at Wed Apr  9 02:45:31 2025.
 Gaussian 16:  ES64L-G16RevC.01  3-Jul-2019

 ----------------------------------------------------------------------
 #t hf aug-cc-pvdz iop(5/13=1,5/36=2,99/5=2) pseudo=read geom=check gue
 ss=(read,tcheck) scf=(maxcycle=1)
 ----------------------------------------------------------------------
 -----
 title
 -----
 Structure from the checkpoint file:  "E2SN2_232_mol1.chk"
 Charge = -1 Multiplicity = 1

                         Standard orientation:
 ---------------------------------------------------------------------
 Center     Atomic      Atomic             Coordinates (Angstroms)
 Number     Number       Type             X           Y           Z
 ---------------------------------------------------------------------
      1          6           0        0.043955    0.069630    0.174483
      2          1           0       -0.853804    1.284496   -1.391607
      3          9           0       -0.818117   -1.715095    0.275193
      4         17           0        1.259749    1.808717   -0.113363
      5          6           0       -0.982924    0.308491   -0.921798
      6          1           0       -0.854014   -0.471141   -1.668089
      7          7           0        1.171518   -0.854190   -0.181062
      8          8           0        1.333038   -1.116077   -1.365917
      9          8           0        1.890927   -1.235990    0.730984
     10          6           0       -0.258402    0.303081    1.628255
     11          1           0        0.664621    0.216995    2.196954
     12          1           0       -0.658121    1.308970    1.760717
     13          1           0       -0.973163   -0.446448    1.952791
     14          6           0       -2.342423    0.236326   -0.390338
     15          7           0       -3.447397    0.297926    0.000421
 ---------------------------------------------------------------------

 SCF Done:  E(RHF) =  -972.462938575     A.U. after    2 cycles

 The electronic state is 1-A.
 Alpha  occ. eigenvalues -- -105.38692 -26.15723 -20.45565 -20.45435 -15.66668
 Alpha  occ. eigenvalues --  -15.39270 -11.29246 -11.17353 -11.17249 -11.11933
 Alpha  occ. eigenvalues --  -10.43531  -7.60387  -7.60158  -7.60152  -1.53543
 Alpha  occ. eigenvalues --   -1.37299  -1.23947  -1.10091  -1.03545  -0.91402
 Alpha  occ. eigenvalues --   -0.87020  -0.84516  -0.70731  -0.63231  -0.61445
 Alpha  occ. eigenvalues --   -0.60776  -0.58382  -0.53130  -0.49050  -0.48511
 Alpha  occ. eigenvalues --   -0.47528  -0.43572  -0.38454  -0.37719  -0.36251
 Alpha  occ. eigenvalues --   -0.35556  -0.34212  -0.32943  -0.31836  -0.31383
 Alpha  occ. eigenvalues --   -0.30169  -0.29309  -0.28316
 Alpha virt. eigenvalues --    0.13784   0.13822   0.15072   0.15692   0.16325
 Alpha virt. eigenvalues --    0.17785   0.18373   0.19710   0.21608   0.22730
 Alpha virt. eigenvalues --    0.23485   0.24773   0.25263   0.25743   0.26512

 Mulliken charges:
               1
     1  C   -1.097765
     2  H    0.227562
     3  F   -0.863604
     4  Cl  -0.476566
     5  C    0.190125
     6  H    0.469597
     7  N    3.339714
     8  O   -1.567791
     9  O   -1.579555
    10  C   -0.063885
    11  H    0.187583
    12  H    0.366117
    13  H    0.417338
    14  C   -1.446555
    15  N    0.897686
 Sum of Mulliken charges =  -1.00000

 Dipole moment (field-independent basis, Debye):
    X=              1.4859    Y=              2.6301    Z=             -0.5236  Tot=              3.0659

 Test job not archived.
 1\1\GINC-SE083\SP\RHF\Aug-CC-pVDZ\C4H5Cl1F1N2O2(1-)\OHZDE\09-Apr-2025\
 0\\#t hf aug-cc-pvdz iop(5/13=1,5/36=2,99/5=2) pseudo=read geom=check
 guess=(read,tcheck) scf=(maxcycle=1)\\title\\-1,1\C,0,0.82385877,-0.04
 207466,0.0881754\H,0,1.6925503,1.95279157,0.10800233\F,0,-1.1312226,0.
 03460141,-0.24398534\Cl,0,2.95668314,-0.23280928,0.07737903\C,0,0.7164
 2349,1.4736197,0.0211193\H,0,0.27293645,1.72934754,-0.93769063\N,0,0.6
 9032749,-0.76183009,-1.22154711\O,0,0.78330344,-0.0941581,-2.24337119\
 O,0,0.55757154,-1.97670295,-1.18144821\C,0,0.58313998,-0.81290645,1.35

 Normal termination of Gaussian 16 at Wed Apr  9 02:45:42 2025.
