 Gaussian 16, Revision C.01,

 ----------------------------------------------------------------------
 #t hf aug-cc-pvdz symm=none int=(grid=ultrafine) guess=(read,tcheck) s
 table=(opt,rrhf)
 ----------------------------------------------------------------------
 -----
 title
 -----
 Symbolic Z-matrix:
 Charge = -1 Multiplicity = 1

 SCF Done:  E(RHF) =  -784.417843905     A.U. after   15 cycles
 Normal termination of Gaussian 16 at Wed Apr  9 02:38:31 2025.
 Gaussian 16:  ES64L-G16RevC.01  3-Jul-2019

 ----------------------------------------------------------------------
 #t hf aug-cc-pvdz iop(5/13=1,5/36=2,99/5=2) pseudo=read geom=check gue
 ss=(read,tcheck) scf=(maxcycle=1)
 ----------------------------------------------------------------------
 -----
 title
 -----
 Structure from the checkpoint file:  "E2SN2_167_mol2.chk"
 Charge = -1 Multiplicity = 1

                         Standard orientation:
 ---------------------------------------------------------------------
 Center     Atomic      Atomic             Coordinates (Angstroms)
 Number     Number       Type             X           Y           Z
 ---------------------------------------------------------------------
      1          6           0       -0.308516    0.541127   -0.774852
      2          6           0        0.054320   -0.826791   -0.197149
      3         17           0        0.347296    1.881242    0.234451
      4          1           0       -0.389530   -1.530108   -0.910414
      5          1           0        0.092048    0.685045   -1.780383
      6          1           0       -1.406975    0.543841   -0.734874
      7          7           0       -0.562190   -1.125802    1.084087
      8          1           0       -0.335801   -0.366905    1.719905
      9          1           0       -1.572974   -1.035023    0.817011
     10          6           0        1.511345   -1.043725   -0.173999
     11          7           0        2.673732   -1.212006   -0.176728
     12          9           0       -2.734943   -0.659664   -0.285825
 ---------------------------------------------------------------------

 SCF Done:  E(RHF) =  -784.816091556     A.U. after    2 cycles

 The electronic state is 1-A.
 Alpha  occ. eigenvalues -- -105.43202 -26.10166 -15.39112 -15.33490 -11.17347
 Alpha  occ. eigenvalues --  -11.16270 -11.16230 -10.48066  -7.65001  -7.64665
 Alpha  occ. eigenvalues --   -7.64643  -1.16733  -1.10128  -1.05870  -0.96403
 Alpha  occ. eigenvalues --   -0.85355  -0.73722  -0.60403  -0.53492  -0.50493
 Alpha  occ. eigenvalues --   -0.49773  -0.47613  -0.44803  -0.40924  -0.37191
 Alpha  occ. eigenvalues --   -0.36141  -0.33568  -0.32533  -0.30392  -0.26583
 Alpha  occ. eigenvalues --   -0.26045  -0.25350
 Alpha virt. eigenvalues --    0.13651   0.15066   0.15819   0.17484   0.18006
 Alpha virt. eigenvalues --    0.18797   0.19411   0.22806   0.23984   0.24790
 Alpha virt. eigenvalues --    0.25381   0.26218   0.27205   0.27816   0.28303

 Mulliken charges:
               1
     1  C   -0.204561
     2  C   -0.834233
     3  Cl  -0.129435
     4  H    0.225924
     5  H    0.224415
     6  H    0.375349
     7  N    0.510254
     8  H    0.250527
     9  H    0.272975
    10  C   -1.566459
    11  N    0.860917
    12  F   -0.985671
 Sum of Mulliken charges =  -1.00000

 Dipole moment (field-independent basis, Debye):
    X=              3.2345    Y=              3.0999    Z=             -0.9353  Tot=              4.5767

 Test job not archived.
 1\1\GINC-SE362\SP\RHF\Aug-CC-pVDZ\C3H5Cl1F1N2(1-)\OHZDE\09-Apr-2025\0\
 \#t hf aug-cc-pvdz iop(5/13=1,5/36=2,99/5=2) pseudo=read geom=check gu
 ess=(read,tcheck) scf=(maxcycle=1)\\title\\-1,1\C,0,-0.088991,0.174947
 ,-0.005237\C,0,-0.665196,0.151502,-1.420874\Cl,0,1.607526,-0.429481,0.
 029212\H,0,-1.676365,0.552751,-1.290718\H,0,-0.068485,1.181916,0.41648
 4\H,0,-0.74532,-0.517034,0.541218\N,0,-0.839564,-1.17747,-1.981664\H,0
 ,0.053514,-1.657285,-1.921404\H,0,-1.478989,-1.589601,-1.258795\C,0,0.
 076389,1.042611,-2.329991\N,0,0.664546,1.769403,-3.040846\F,0,-2.27828

 Normal termination of Gaussian 16 at Wed Apr  9 02:38:36 2025.
