 Gaussian 16, Revision C.01,

 ----------------------------------------------------------------------
 #t hf aug-cc-pvdz symm=none int=(grid=ultrafine) guess=(read,tcheck) s
 table=(opt,rrhf)
 ----------------------------------------------------------------------
 -----
 title
 -----
 Symbolic Z-matrix:
 Charge = -1 Multiplicity = 1

 SCF Done:  E(RHF) =  -1079.60478634     A.U. after   18 cycles
 Normal termination of Gaussian 16 at Wed Apr  9 02:45:31 2025.
 Gaussian 16:  ES64L-G16RevC.01  3-Jul-2019

 ----------------------------------------------------------------------
 #t hf aug-cc-pvdz iop(5/13=1,5/36=2,99/5=2) pseudo=read geom=check gue
 ss=(read,tcheck) scf=(maxcycle=1)
 ----------------------------------------------------------------------
 -----
 title
 -----
 Structure from the checkpoint file:  "E2SN2_228_mol1.chk"
 Charge = -1 Multiplicity = 1

                         Standard orientation:
 ---------------------------------------------------------------------
 Center     Atomic      Atomic             Coordinates (Angstroms)
 Number     Number       Type             X           Y           Z
 ---------------------------------------------------------------------
      1          6           0       -0.176724   -0.054530    0.134281
      2          1           0        0.762261    0.560691   -1.682812
      3          9           0       -0.212343    1.197893    1.558521
      4         17           0       -0.341680   -1.625499   -1.343159
      5          6           0        0.937684    0.736275   -0.621744
      6          7           0       -1.582297    0.404271   -0.077096
      7          8           0       -1.738416    1.273355   -0.929766
      8          8           0       -2.460097   -0.119473    0.586552
      9          6           0        0.061415   -0.969942    1.220195
     10          7           0        0.292040   -1.759163    2.060841
     11          6           0        2.221185    0.103033   -0.285360
     12          7           0        3.273953   -0.338679   -0.011397
     13          7           0        1.037721    2.164506   -0.424510
     14          1           0        0.919990    2.309608    0.574039
     15          1           0        0.214230    2.565537   -0.857592
 ---------------------------------------------------------------------

 SCF Done:  E(RHF) =  -1080.26990111     A.U. after    2 cycles

 The electronic state is 1-A.
 Alpha  occ. eigenvalues -- -105.41099 -26.21740 -20.49470 -20.49096 -15.70432
 Alpha  occ. eigenvalues --  -15.41724 -15.41098 -15.39192 -11.34763 -11.23653
 Alpha  occ. eigenvalues --  -11.19216 -11.18606 -10.45886  -7.62750  -7.62497
 Alpha  occ. eigenvalues --   -7.62491  -1.57209  -1.41115  -1.30314  -1.13672
 Alpha  occ. eigenvalues --   -1.11265  -1.10145  -1.04507  -0.90967  -0.86655
 Alpha  occ. eigenvalues --   -0.81323  -0.72658  -0.66698  -0.64588  -0.64198
 Alpha  occ. eigenvalues --   -0.61651  -0.57569  -0.51896  -0.50209  -0.49420
 Alpha  occ. eigenvalues --   -0.46335  -0.42754  -0.41704  -0.40269  -0.39683
 Alpha  occ. eigenvalues --   -0.38304  -0.38203  -0.37936  -0.35996  -0.34911
 Alpha  occ. eigenvalues --   -0.34582  -0.32424  -0.31671  -0.30820
 Alpha virt. eigenvalues --    0.13071   0.14077   0.14542   0.16005   0.17817
 Alpha virt. eigenvalues --    0.18451   0.18915   0.21002   0.21351   0.22200
 Alpha virt. eigenvalues --    0.22749   0.23749   0.24325   0.24455   0.24734

 Mulliken charges:
               1
     1  C    0.125387
     2  H    0.162475
     3  F   -0.846361
     4  Cl  -0.341917
     5  C   -0.050565
     6  N    3.455199
     7  O   -1.634498
     8  O   -1.544530
     9  C   -1.925810
    10  N    1.155172
    11  C   -1.719574
    12  N    1.045161
    13  N    0.593032
    14  H    0.297451
    15  H    0.229378
 Sum of Mulliken charges =  -1.00000

 Dipole moment (field-independent basis, Debye):
    X=             -2.1966    Y=              3.2047    Z=             -3.8895  Tot=              5.4976

 Test job not archived.
 1\1\GINC-SE402\SP\RHF\Aug-CC-pVDZ\C4H3Cl1F1N4O2(1-)\OHZDE\09-Apr-2025\
 0\\#t hf aug-cc-pvdz iop(5/13=1,5/36=2,99/5=2) pseudo=read geom=check
 guess=(read,tcheck) scf=(maxcycle=1)\\title\\-1,1\C,0,0.60374453,0.028
 64701,0.04188778\H,0,1.71822822,1.76594506,-0.50742122\F,0,-1.26574089
 ,0.06143578,-0.27786248\Cl,0,2.70581993,-0.29599064,0.43415304\C,0,0.7
 233241,1.57888231,-0.10413111\N,0,0.63294367,-0.76598088,-1.22244104\O
 ,0,0.8832945,-0.13466,-2.24493079\O,0,0.42781266,-1.96502769,-1.148435
 04\C,0,0.1777838,-0.6512118,1.23781724\N,0,-0.11145708,-1.18060508,2.2

 Normal termination of Gaussian 16 at Wed Apr  9 02:45:41 2025.
