 Gaussian 16, Revision C.01,

 ----------------------------------------------------------------------
 #t hf aug-cc-pvdz symm=none int=(grid=ultrafine) guess=(read,tcheck) s
 table=(opt,rrhf)
 ----------------------------------------------------------------------
 -----
 title
 -----
 Symbolic Z-matrix:
 Charge = -1 Multiplicity = 1

 SCF Done:  E(RHF) =  -823.439846931     A.U. after   16 cycles
 Normal termination of Gaussian 16 at Wed Apr  9 02:57:26 2025.
 Gaussian 16:  ES64L-G16RevC.01  3-Jul-2019

 ----------------------------------------------------------------------
 #t hf aug-cc-pvdz iop(5/13=1,5/36=2,99/5=2) pseudo=read geom=check gue
 ss=(read,tcheck) scf=(maxcycle=1)
 ----------------------------------------------------------------------
 -----
 title
 -----
 Structure from the checkpoint file:  "E2SN2_373_mol1.chk"
 Charge = -1 Multiplicity = 1

                         Standard orientation:
 ---------------------------------------------------------------------
 Center     Atomic      Atomic             Coordinates (Angstroms)
 Number     Number       Type             X           Y           Z
 ---------------------------------------------------------------------
      1          6           0        0.421633   -0.430977    0.341043
      2          1           0        0.146438    1.058386   -1.146314
      3          9           0       -1.215876   -0.886361    1.461469
      4         17           0        2.429383    0.230170   -0.323440
      5          6           0       -0.396818    0.690276   -0.271477
      6          1           0        0.777431   -0.313392    1.347626
      7          7           0        0.357753   -1.679528   -0.307556
      8          1           0       -0.531726   -2.041622    0.034517
      9          1           0        1.105538   -2.265122    0.042491
     10          6           0       -0.587853    1.818008    0.737664
     11          1           0       -1.127503    1.402369    1.586282
     12          1           0        0.393776    2.179802    1.052800
     13          1           0       -1.145644    2.650757    0.301192
     14          6           0       -1.688795    0.207755   -0.772223
     15          7           0       -2.709746   -0.080073   -1.275783
 ---------------------------------------------------------------------

 SCF Done:  E(RHF) =  -823.883157494     A.U. after    2 cycles

 The electronic state is 1-A.
 Alpha  occ. eigenvalues -- -105.34616 -26.13535 -15.37233 -15.36892 -11.23695
 Alpha  occ. eigenvalues --  -11.15644 -11.15222 -11.11288 -10.39438  -7.56263
 Alpha  occ. eigenvalues --   -7.56103  -7.56089  -1.21313  -1.09260  -1.07592
 Alpha  occ. eigenvalues --   -0.96517  -0.82906  -0.78743  -0.72165  -0.59217
 Alpha  occ. eigenvalues --   -0.57497  -0.56037  -0.51041  -0.47603  -0.44089
 Alpha  occ. eigenvalues --   -0.42429  -0.41331  -0.37085  -0.35151  -0.34735
 Alpha  occ. eigenvalues --   -0.31562  -0.29782  -0.29225  -0.26890  -0.26677
 Alpha  occ. eigenvalues --   -0.25148
 Alpha virt. eigenvalues --    0.12712   0.14031   0.14375   0.15234   0.16250
 Alpha virt. eigenvalues --    0.16866   0.18263   0.19746   0.21100   0.22709
 Alpha virt. eigenvalues --    0.24090   0.24637   0.25536   0.26143   0.26990

 Mulliken charges:
               1
     1  C   -0.899816
     2  H    0.303366
     3  F   -0.909813
     4  Cl  -0.600263
     5  C    0.272719
     6  H   -0.004287
     7  N    0.552171
     8  H    0.355871
     9  H    0.206925
    10  C   -0.028263
    11  H    0.399863
    12  H    0.182070
    13  H    0.111071
    14  C   -2.034204
    15  N    1.092590
 Sum of Mulliken charges =  -1.00000

 Dipole moment (field-independent basis, Debye):
    X=              1.9753    Y=              1.9266    Z=              0.7807  Tot=              2.8676

 Test job not archived.
 1\1\GINC-SE041\SP\RHF\Aug-CC-pVDZ\C4H7Cl1F1N2(1-)\OHZDE\09-Apr-2025\0\
 \#t hf aug-cc-pvdz iop(5/13=1,5/36=2,99/5=2) pseudo=read geom=check gu
 ess=(read,tcheck) scf=(maxcycle=1)\\title\\-1,1\C,0,0.72517013,-0.0424
 5266,-0.03925519\H,0,1.61153761,1.86905627,-0.2974221\F,0,-1.30847158,
 -0.10002537,-0.11104219\Cl,0,2.83707195,-0.1902882,0.61475475\C,0,0.61
 383179,1.46976009,-0.09464925\H,0,0.46523691,-0.54116822,0.87581017\N,
 0,0.81405363,-0.70969546,-1.27640035\H,0,-0.16096907,-0.7180095,-1.573
 98968\H,0,1.11328544,-1.66227405,-1.10999821\C,0,0.09435047,2.01097849

 Normal termination of Gaussian 16 at Wed Apr  9 02:57:33 2025.
