 Gaussian 16, Revision C.01,

 ----------------------------------------------------------------------
 #t hf aug-cc-pvdz symm=none int=(grid=ultrafine) guess=(read,tcheck) s
 table=(opt,rrhf)
 ----------------------------------------------------------------------
 -----
 title
 -----
 Symbolic Z-matrix:
 Charge = -1 Multiplicity = 1

 SCF Done:  E(RHF) =  -479.406220145     A.U. after   15 cycles
 Normal termination of Gaussian 16 at Wed Apr  9 02:51:00 2025.
 Gaussian 16:  ES64L-G16RevC.01  3-Jul-2019

 ----------------------------------------------------------------------
 #t hf aug-cc-pvdz iop(5/13=1,5/36=2,99/5=2) pseudo=read geom=check gue
 ss=(read,tcheck) scf=(maxcycle=1)
 ----------------------------------------------------------------------
 -----
 title
 -----
 Structure from the checkpoint file:  "E2SN2_301_mol2.chk"
 Charge = -1 Multiplicity = 1

                         Standard orientation:
 ---------------------------------------------------------------------
 Center     Atomic      Atomic             Coordinates (Angstroms)
 Number     Number       Type             X           Y           Z
 ---------------------------------------------------------------------
      1          6           0       -0.499445    0.137147    0.229783
      2          6           0        0.367310    0.649050   -0.929202
      3          9           0       -0.970345    1.316856    0.922102
      4          1           0        0.600899   -0.207968   -1.563733
      5          1           0       -0.242930    1.365677   -1.492266
      6          6           0       -1.758807   -0.457267   -0.292084
      7          7           0       -2.728822   -0.964179   -0.721030
      8          7           0        0.202122   -0.699113    1.084758
      9          1           0        1.130627   -1.052249    0.680165
     10          1           0       -0.366388   -1.391470    1.545085
     11          7           0        1.625516    1.237361   -0.513050
     12          1           0        2.206836    0.426904   -0.255497
     13          1           0        1.455810    1.791917    0.318444
     14          9           0        2.400243   -1.308509   -0.059649
 ---------------------------------------------------------------------

 SCF Done:  E(RHF) =  -479.875435028     A.U. after    2 cycles

 The electronic state is 1-A.
 Alpha  occ. eigenvalues --  -26.31370 -26.11842 -15.40779 -15.34008 -15.32791
 Alpha  occ. eigenvalues --  -11.25350 -11.17406 -11.13162  -1.43066  -1.19002
 Alpha  occ. eigenvalues --   -1.11322  -1.07613  -1.02325  -0.85928  -0.73953
 Alpha  occ. eigenvalues --   -0.64186  -0.58506  -0.57967  -0.54127  -0.50751
 Alpha  occ. eigenvalues --   -0.50022  -0.46664  -0.44309  -0.42715  -0.40196
 Alpha  occ. eigenvalues --   -0.38751  -0.38622  -0.32048  -0.30397  -0.28343
 Alpha  occ. eigenvalues --   -0.27778  -0.26441
 Alpha virt. eigenvalues --    0.13932   0.14749   0.15517   0.16261   0.18025
 Alpha virt. eigenvalues --    0.18472   0.19561   0.20698   0.22326   0.23900
 Alpha virt. eigenvalues --    0.24607   0.25193   0.25969   0.26522   0.27571

 Mulliken charges:
               1
     1  C    1.340576
     2  C   -0.777871
     3  F   -0.974745
     4  H    0.125619
     5  H    0.045472
     6  C   -2.148332
     7  N    0.918374
     8  N    0.234307
     9  H    0.359696
    10  H    0.215891
    11  N    0.296135
    12  H    0.223905
    13  H    0.196415
    14  F   -1.055441
 Sum of Mulliken charges =  -1.00000

 Dipole moment (field-independent basis, Debye):
    X=             -3.6944    Y=              2.6616    Z=              1.1279  Tot=              4.6910

 Test job not archived.
 1\1\GINC-SE073\SP\RHF\Aug-CC-pVDZ\C3H6F2N3(1-)\OHZDE\09-Apr-2025\0\\#t
  hf aug-cc-pvdz iop(5/13=1,5/36=2,99/5=2) pseudo=read geom=check guess
 =(read,tcheck) scf=(maxcycle=1)\\title\\-1,1\C,0,0.008085,0.079945,0.0
 45848\C,0,-0.538586,0.098432,-1.388504\F,0,1.386359,-0.346076,-0.06200
 1\H,0,-1.521934,0.571317,-1.355636\H,0,0.145025,0.716643,-1.983044\C,0
 ,0.13694,1.467177,0.566089\N,0,0.191067,2.566062,0.9801\N,0,-0.713976,
 -0.764332,0.875507\H,0,-1.660984,-1.063921,0.470607\H,0,-0.719735,-0.4
 87347,1.843861\N,0,-0.708285,-1.216803,-1.974793\H,0,-1.550189,-1.5892

 Normal termination of Gaussian 16 at Wed Apr  9 02:51:06 2025.
