 Gaussian 16, Revision C.01,

 ----------------------------------------------------------------------
 #t hf aug-cc-pvdz symm=none int=(grid=ultrafine) guess=(read,tcheck) s
 table=(opt,rrhf)
 ----------------------------------------------------------------------
 -----
 title
 -----
 Symbolic Z-matrix:
 Charge = -1 Multiplicity = 1

 SCF Done:  E(RHF) =  -1348.03784385     A.U. after   16 cycles
 Normal termination of Gaussian 16 at Wed Apr  9 02:45:31 2025.
 Gaussian 16:  ES64L-G16RevC.01  3-Jul-2019

 ----------------------------------------------------------------------
 #t hf aug-cc-pvdz iop(5/13=1,5/36=2,99/5=2) pseudo=read geom=check gue
 ss=(read,tcheck) scf=(maxcycle=1)
 ----------------------------------------------------------------------
 -----
 title
 -----
 Structure from the checkpoint file:  "E2SN2_240_mol2.chk"
 Charge = -1 Multiplicity = 1

                         Standard orientation:
 ---------------------------------------------------------------------
 Center     Atomic      Atomic             Coordinates (Angstroms)
 Number     Number       Type             X           Y           Z
 ---------------------------------------------------------------------
      1          6           0        0.479307   -0.146446   -0.208212
      2          6           0        0.147364    0.896067    0.845617
      3         17           0        2.268348   -0.271554   -0.449636
      4          1           0       -0.949288    0.903375    0.937357
      5          1           0        0.590557    0.614545    1.799854
      6          7           0        0.146541   -1.559706    0.401755
      7          8           0        0.229586   -1.704841    1.615524
      8          8           0       -0.133437   -2.431971   -0.409906
      9          7           0       -0.167529    0.095958   -1.409331
     10          1           0       -0.051762   -0.682987   -2.045397
     11          1           0       -1.170287    0.249769   -1.214695
     12          6           0        0.622138    2.215834    0.449669
     13          7           0        1.016171    3.290193    0.189815
     14         17           0       -3.071145    0.355787   -0.133904
 ---------------------------------------------------------------------

 SCF Done:  E(RHF) =  -1348.61220693     A.U. after    2 cycles

 The electronic state is 1-A.
 Alpha  occ. eigenvalues -- -105.48495-105.30206 -20.49713 -20.49684 -15.68601
 Alpha  occ. eigenvalues --  -15.41641 -15.40162 -11.31639 -11.19143 -11.18869
 Alpha  occ. eigenvalues --  -10.53388 -10.34843  -7.70329  -7.69936  -7.69929
 Alpha  occ. eigenvalues --   -7.51620  -7.51580  -7.51559  -1.56753  -1.40978
 Alpha  occ. eigenvalues --   -1.17025  -1.11947  -1.01475  -0.95125  -0.91485
 Alpha  occ. eigenvalues --   -0.76148  -0.74572  -0.69702  -0.66165  -0.64813
 Alpha  occ. eigenvalues --   -0.62006  -0.59740  -0.57115  -0.51528  -0.50189
 Alpha  occ. eigenvalues --   -0.47298  -0.44403  -0.40233  -0.39291  -0.38716
 Alpha  occ. eigenvalues --   -0.38113  -0.37533  -0.35522  -0.35092  -0.23215
 Alpha  occ. eigenvalues --   -0.22730  -0.22542
 Alpha virt. eigenvalues --    0.13018   0.14023   0.15053   0.16231   0.16773
 Alpha virt. eigenvalues --    0.17307   0.19294   0.21045   0.22050   0.23309
 Alpha virt. eigenvalues --    0.23503   0.24741   0.25111   0.25507   0.26083

 Mulliken charges:
               1
     1  C   -2.546413
     2  C    0.779700
     3  Cl   0.007757
     4  H    0.283252
     5  H    0.287958
     6  N    3.287228
     7  O   -1.545821
     8  O   -1.521857
     9  N    0.907004
    10  H    0.351499
    11  H    0.226848
    12  C   -1.433120
    13  N    0.863804
    14  Cl  -0.947838
 Sum of Mulliken charges =  -1.00000

 Dipole moment (field-independent basis, Debye):
    X=              7.9521    Y=             -3.3490    Z=              0.5678  Tot=              8.6472

 Test job not archived.
 1\1\GINC-SE461\SP\RHF\Aug-CC-pVDZ\C3H4Cl2N3O2(1-)\OHZDE\09-Apr-2025\0\
 \#t hf aug-cc-pvdz iop(5/13=1,5/36=2,99/5=2) pseudo=read geom=check gu
 ess=(read,tcheck) scf=(maxcycle=1)\\title\\-1,1\C,0,-0.010035,0.012399
 ,0.005144\C,0,-0.524997,0.365379,-1.3797\Cl,0,1.796733,-0.088156,0.014
 383\H,0,-1.621319,0.414891,-1.297584\H,0,-0.138524,1.337219,-1.683688\
 N,0,-0.258574,1.258714,0.935209\O,0,-0.263839,2.373486,0.426828\O,0,-0
 .386858,1.010502,2.126831\N,0,-0.574278,-1.154892,0.493925\H,0,-0.3333
 42,-1.292288,1.46748\H,0,-1.599765,-1.091195,0.387233\C,0,-0.144663,-0

 Normal termination of Gaussian 16 at Wed Apr  9 02:45:38 2025.
