 Gaussian 16, Revision C.01,

 ----------------------------------------------------------------------
 #t hf aug-cc-pvdz symm=none int=(grid=ultrafine) guess=(read,tcheck) s
 table=(opt,rrhf)
 ----------------------------------------------------------------------
 -----
 title
 -----
 Symbolic Z-matrix:
 Charge = -1 Multiplicity = 1

 SCF Done:  E(RHF) =  -1404.70731515     A.U. after   16 cycles
 Normal termination of Gaussian 16 at Wed Apr  9 02:39:23 2025.
 Gaussian 16:  ES64L-G16RevC.01  3-Jul-2019

 ----------------------------------------------------------------------
 #t hf aug-cc-pvdz iop(5/13=1,5/36=2,99/5=2) pseudo=read geom=check gue
 ss=(read,tcheck) scf=(maxcycle=1)
 ----------------------------------------------------------------------
 -----
 title
 -----
 Structure from the checkpoint file:  "E2SN2_168_mol1.chk"
 Charge = -1 Multiplicity = 1

                         Standard orientation:
 ---------------------------------------------------------------------
 Center     Atomic      Atomic             Coordinates (Angstroms)
 Number     Number       Type             X           Y           Z
 ---------------------------------------------------------------------
      1          6           0       -0.349641    0.004856   -0.224830
      2          1           0        0.655086   -1.053648    1.364424
      3         17           0        0.006554    2.255099   -0.483601
      4         17           0       -0.751762   -2.251016   -0.386577
      5          6           0        0.749340   -0.138100    0.786419
      6          1           0       -0.242798   -0.039393   -1.288345
      7          1           0        0.802219    0.715933    1.452619
      8          7           0       -1.695705    0.241310    0.317663
      9          8           0       -1.795199    0.282945    1.543049
     10          8           0       -2.609146    0.375159   -0.484198
     11          7           0        2.083297   -0.220893    0.122119
     12          8           0        3.047284   -0.147093    0.882380
     13          8           0        2.149895   -0.390481   -1.089191
 ---------------------------------------------------------------------

 SCF Done:  E(RHF) =  -1405.32869960     A.U. after    2 cycles

 The electronic state is 1-A.
 Alpha  occ. eigenvalues -- -105.36942-105.36826 -20.49453 -20.48705 -20.48572
 Alpha  occ. eigenvalues --  -20.48477 -15.69404 -15.68847 -11.30456 -11.22113
 Alpha  occ. eigenvalues --  -10.41729 -10.41608  -7.58564  -7.58441  -7.58376
 Alpha  occ. eigenvalues --   -7.58369  -7.58256  -7.58248  -1.56380  -1.56086
 Alpha  occ. eigenvalues --   -1.40263  -1.40026  -1.08146  -0.99747  -0.84144
 Alpha  occ. eigenvalues --   -0.84001  -0.80097  -0.74149  -0.69458  -0.67608
 Alpha  occ. eigenvalues --   -0.65524  -0.64670  -0.63378  -0.63248  -0.52847
 Alpha  occ. eigenvalues --   -0.51893  -0.40605  -0.40181  -0.38240  -0.37801
 Alpha  occ. eigenvalues --   -0.35873  -0.34724  -0.33775  -0.29271  -0.29013
 Alpha  occ. eigenvalues --   -0.28906  -0.28398  -0.25569
 Alpha virt. eigenvalues --    0.13008   0.14461   0.14997   0.15702   0.17112
 Alpha virt. eigenvalues --    0.19981   0.20120   0.20824   0.23381   0.23789
 Alpha virt. eigenvalues --    0.24525   0.24934   0.26115   0.27435   0.28112

 Mulliken charges:
               1
     1  C   -0.173290
     2  H    0.279704
     3  Cl  -0.601501
     4  Cl  -0.595339
     5  C   -0.238955
     6  H    0.007582
     7  H    0.251358
     8  N    2.988091
     9  O   -1.394880
    10  O   -1.466159
    11  N    2.710385
    12  O   -1.442627
    13  O   -1.324369
 Sum of Mulliken charges =  -1.00000

 Dipole moment (field-independent basis, Debye):
    X=              1.1983    Y=             -0.2480    Z=              1.8021  Tot=              2.1783

 Test job not archived.
 1\1\GINC-SE419\SP\RHF\Aug-CC-pVDZ\C2H3Cl2N2O4(1-)\OHZDE\09-Apr-2025\0\
 \#t hf aug-cc-pvdz iop(5/13=1,5/36=2,99/5=2) pseudo=read geom=check gu
 ess=(read,tcheck) scf=(maxcycle=1)\\title\\-1,1\C,0,0.58968643,-0.0470
 1876,0.02226801\H,0,1.45781371,1.89948651,0.35858203\Cl,0,-1.68776493,
 -0.29766819,0.11070797\Cl,0,2.85482598,-0.10489272,-0.35537336\C,0,0.5
 1101486,1.45042107,0.07028726\H,0,0.52903566,-0.65767953,-0.85400418\H
 ,0,-0.27769659,1.79500264,0.72997625\N,0,0.75302516,-0.72406804,1.3172
 6642\O,0,0.82572102,-0.00155705,2.31018993\O,0,0.80668597,-1.94567983,

 Normal termination of Gaussian 16 at Wed Apr  9 02:39:30 2025.
