 Gaussian 16, Revision C.01,

 ----------------------------------------------------------------------
 #t hf aug-cc-pvdz symm=none int=(grid=ultrafine) guess=(read,tcheck) s
 table=(opt,rrhf)
 ----------------------------------------------------------------------
 -----
 title
 -----
 Symbolic Z-matrix:
 Charge = -1 Multiplicity = 1

 SCF Done:  E(RHF) =  -778.623518988     A.U. after   16 cycles
 Normal termination of Gaussian 16 at Wed Apr  9 02:47:42 2025.
 Gaussian 16:  ES64L-G16RevC.01  3-Jul-2019

 ----------------------------------------------------------------------
 #t hf aug-cc-pvdz iop(5/13=1,5/36=2,99/5=2) pseudo=read geom=check gue
 ss=(read,tcheck) scf=(maxcycle=1)
 ----------------------------------------------------------------------
 -----
 title
 -----
 Structure from the checkpoint file:  "E2SN2_242_mol1.chk"
 Charge = -1 Multiplicity = 1

                         Standard orientation:
 ---------------------------------------------------------------------
 Center     Atomic      Atomic             Coordinates (Angstroms)
 Number     Number       Type             X           Y           Z
 ---------------------------------------------------------------------
      1          6           0       -0.435608   -0.227954    0.251681
      2          1           0        0.582813    0.076442   -1.586943
      3          9           0       -0.725440    1.169197    1.293453
      4          9           0       -0.434991   -1.612285   -0.811612
      5          6           0        0.696232    0.429898   -0.567846
      6          7           0       -1.834345    0.030851   -0.271100
      7          8           0       -1.949527    0.743097   -1.263215
      8          8           0       -2.759230   -0.499305    0.327531
      9          7           0       -0.201492   -1.047006    1.370822
     10          1           0       -0.571598   -1.963053    1.174076
     11          1           0       -0.625165   -0.612590    2.174638
     12          7           0        1.981075   -0.193499   -0.101636
     13          8           0        2.466615   -1.092761   -0.787739
     14          8           0        2.494079    0.255687    0.920941
     15          6           0        0.861853    1.934520   -0.528789
     16          1           0       -0.056368    2.396132   -0.885095
     17          1           0        1.058626    2.270655    0.482093
     18          1           0        1.688529    2.215251   -1.192362
 ---------------------------------------------------------------------

 SCF Done:  E(RHF) =  -779.373117148     A.U. after    2 cycles

 The electronic state is 1-A.
 Alpha  occ. eigenvalues --  -26.20731 -26.20289 -20.45917 -20.45681 -20.45281
 Alpha  occ. eigenvalues --  -20.45211 -15.65653 -15.65231 -15.37170 -11.31849
 Alpha  occ. eigenvalues --  -11.18675 -11.11240  -1.53009  -1.52777  -1.36812
 Alpha  occ. eigenvalues --   -1.36573  -1.30960  -1.29192  -1.08532  -1.01624
 Alpha  occ. eigenvalues --   -0.93312  -0.84448  -0.76212  -0.70022  -0.66337
 Alpha  occ. eigenvalues --   -0.64018  -0.61907  -0.61099  -0.60256  -0.59577
 Alpha  occ. eigenvalues --   -0.58931  -0.52646  -0.47843  -0.44876  -0.42673
 Alpha  occ. eigenvalues --   -0.41054  -0.40267  -0.37778  -0.36881  -0.36660
 Alpha  occ. eigenvalues --   -0.36328  -0.35413  -0.34715  -0.34371  -0.33063
 Alpha  occ. eigenvalues --   -0.31273  -0.31094  -0.30669
 Alpha virt. eigenvalues --    0.12795   0.14067   0.14612   0.15201   0.15926
 Alpha virt. eigenvalues --    0.17011   0.19116   0.20431   0.21943   0.22506
 Alpha virt. eigenvalues --    0.23751   0.23790   0.24714   0.26008   0.26563

 Mulliken charges:
               1
     1  C   -1.121254
     2  H    0.332888
     3  F   -1.021685
     4  F   -0.967110
     5  C   -1.134350
     6  N    3.936801
     7  O   -1.749486
     8  O   -1.652242
     9  N    0.656108
    10  H    0.413144
    11  H    0.384742
    12  N    3.329374
    13  O   -1.482479
    14  O   -1.581171
    15  C   -0.127372
    16  H    0.279395
    17  H    0.370450
    18  H    0.134248
 Sum of Mulliken charges =  -1.00000

 Dipole moment (field-independent basis, Debye):
    X=              1.0290    Y=              1.4886    Z=             -0.2981  Tot=              1.8340

 Test job not archived.
 1\1\GINC-SE094\SP\RHF\Aug-CC-pVDZ\C3H6F2N3O4(1-)\OHZDE\09-Apr-2025\0\\
 #t hf aug-cc-pvdz iop(5/13=1,5/36=2,99/5=2) pseudo=read geom=check gue
 ss=(read,tcheck) scf=(maxcycle=1)\\title\\-1,1\C,0,0.62495097,-0.07696
 852,0.00168031\H,0,1.64335353,1.71807148,-0.49938199\F,0,-1.007738,-0.
 32093951,-0.62770617\F,0,2.31163541,-0.05387716,0.45059646\C,0,0.63480
 524,1.45425785,-0.20007098\N,0,1.07297778,-0.88137335,-1.20204307\O,0,
 1.37596412,-0.26543386,-2.21873862\O,0,1.11335456,-2.0967777,-1.075555
 4\N,0,0.2765988,-0.69234652,1.21744868\H,0,1.07230217,-1.21612833,1.54

 Normal termination of Gaussian 16 at Wed Apr  9 02:47:54 2025.
