 Gaussian 16, Revision C.01,

 ----------------------------------------------------------------------
 #t hf aug-cc-pvdz symm=none int=(grid=ultrafine) guess=(read,tcheck) s
 table=(opt,rrhf)
 ----------------------------------------------------------------------
 -----
 title
 -----
 Symbolic Z-matrix:
 Charge = -1 Multiplicity = 1

 SCF Done:  E(RHF) =  -971.891901977     A.U. after   16 cycles
 Normal termination of Gaussian 16 at Wed Apr  9 02:47:38 2025.
 Gaussian 16:  ES64L-G16RevC.01  3-Jul-2019

 ----------------------------------------------------------------------
 #t hf aug-cc-pvdz iop(5/13=1,5/36=2,99/5=2) pseudo=read geom=check gue
 ss=(read,tcheck) scf=(maxcycle=1)
 ----------------------------------------------------------------------
 -----
 title
 -----
 Structure from the checkpoint file:  "E2SN2_256_mol1.chk"
 Charge = -1 Multiplicity = 1

                         Standard orientation:
 ---------------------------------------------------------------------
 Center     Atomic      Atomic             Coordinates (Angstroms)
 Number     Number       Type             X           Y           Z
 ---------------------------------------------------------------------
      1          6           0       -0.691754   -0.012782    0.483287
      2          1           0        0.030019   -1.022710   -1.272257
      3          9           0        0.790757    0.685184    1.633067
      4         17           0       -2.367046   -0.883356   -0.403782
      5          6           0        0.395217   -0.759089   -0.277334
      6          1           0       -0.930864   -0.373372    1.466440
      7          6           0       -0.979347    1.380536    0.244638
      8          7           0       -1.322345    2.490209    0.062702
      9          6           0        0.816705   -1.977148    0.509787
     10          1           0        1.228173   -1.625977    1.453576
     11          1           0       -0.064304   -2.599390    0.683123
     12          1           0        1.564497   -2.560584   -0.027593
     13          7           0        1.576945    0.124926   -0.585345
     14          8           0        2.700678   -0.267854   -0.292957
     15          8           0        1.332863    1.135027   -1.237090
 ---------------------------------------------------------------------

 SCF Done:  E(RHF) =  -972.461889718     A.U. after    2 cycles

 The electronic state is 1-A.
 Alpha  occ. eigenvalues -- -105.40002 -26.14681 -20.45815 -20.45532 -15.65635
 Alpha  occ. eigenvalues --  -15.38233 -11.25672 -11.20617 -11.16527 -11.12710
 Alpha  occ. eigenvalues --  -10.44794  -7.61659  -7.61420  -7.61408  -1.53174
 Alpha  occ. eigenvalues --   -1.37047  -1.22476  -1.08671  -1.04059  -0.92596
 Alpha  occ. eigenvalues --   -0.86022  -0.82581  -0.72299  -0.66400  -0.63045
 Alpha  occ. eigenvalues --   -0.61687  -0.59350  -0.51257  -0.48703  -0.47249
 Alpha  occ. eigenvalues --   -0.44891  -0.43919  -0.41659  -0.37338  -0.36366
 Alpha  occ. eigenvalues --   -0.34637  -0.34334  -0.32002  -0.31145  -0.30953
 Alpha  occ. eigenvalues --   -0.30845  -0.29989  -0.27341
 Alpha virt. eigenvalues --    0.12135   0.13501   0.14145   0.15387   0.16715
 Alpha virt. eigenvalues --    0.18546   0.19729   0.19964   0.21572   0.22970
 Alpha virt. eigenvalues --    0.23282   0.23714   0.24629   0.25430   0.26396

 Mulliken charges:
               1
     1  C    1.015597
     2  H    0.115258
     3  F   -0.912800
     4  Cl  -0.415048
     5  C   -0.811978
     6  H    0.095954
     7  C   -1.979216
     8  N    1.005692
     9  C   -0.009720
    10  H    0.377534
    11  H    0.209050
    12  H    0.165569
    13  N    3.244690
    14  O   -1.536563
    15  O   -1.564019
 Sum of Mulliken charges =  -1.00000

 Dipole moment (field-independent basis, Debye):
    X=              0.3777    Y=             -6.5835    Z=             -1.3751  Tot=              6.7361

 Test job not archived.
 1\1\GINC-SE364\SP\RHF\Aug-CC-pVDZ\C4H5Cl1F1N2O2(1-)\OHZDE\09-Apr-2025\
 0\\#t hf aug-cc-pvdz iop(5/13=1,5/36=2,99/5=2) pseudo=read geom=check
 guess=(read,tcheck) scf=(maxcycle=1)\\title\\-1,1\C,0,0.66698164,-0.02
 090724,-0.02138773\H,0,1.67066217,1.84986747,-0.36149709\F,0,-1.317074
 57,0.11870819,-0.24725668\Cl,0,2.65435147,-0.33054148,0.53167936\C,0,0
 .6727851,1.49976963,-0.08871299\H,0,0.2697483,-0.46554063,0.87208638\C
 ,0,0.60693326,-0.84309289,-1.20519606\N,0,0.63029245,-1.58240745,-2.11
 897496\C,0,0.21919166,2.0655135,1.23607565\H,0,-0.80129212,1.72637837,

 Normal termination of Gaussian 16 at Wed Apr  9 02:47:46 2025.
