 Gaussian 16, Revision C.01,

 ----------------------------------------------------------------------
 #t hf aug-cc-pvdz symm=none int=(grid=ultrafine) guess=(read,tcheck) s
 table=(opt,rrhf)
 ----------------------------------------------------------------------
 -----
 title
 -----
 Symbolic Z-matrix:
 Charge = -1 Multiplicity = 1

 SCF Done:  E(RHF) =  -987.882632275     A.U. after   17 cycles
 Normal termination of Gaussian 16 at Wed Apr  9 02:52:38 2025.
 Gaussian 16:  ES64L-G16RevC.01  3-Jul-2019

 ----------------------------------------------------------------------
 #t hf aug-cc-pvdz iop(5/13=1,5/36=2,99/5=2) pseudo=read geom=check gue
 ss=(read,tcheck) scf=(maxcycle=1)
 ----------------------------------------------------------------------
 -----
 title
 -----
 Structure from the checkpoint file:  "E2SN2_305_mol1.chk"
 Charge = -1 Multiplicity = 1

                         Standard orientation:
 ---------------------------------------------------------------------
 Center     Atomic      Atomic             Coordinates (Angstroms)
 Number     Number       Type             X           Y           Z
 ---------------------------------------------------------------------
      1          6           0       -0.713905   -0.220761    0.243577
      2          1           0        0.426238   -1.976108    0.107823
      3         17           0        0.255140    1.791225    0.371540
      4          9           0       -1.707902   -1.824920   -0.020289
      5          6           0        0.405150   -1.022855   -0.408704
      6          1           0        0.204186   -1.151525   -1.467944
      7          6           0       -1.739276    0.351627   -0.617381
      8          7           0       -2.587129    0.817347   -1.286416
      9          7           0       -0.903565   -0.345310    1.654915
     10          1           0       -1.690597   -0.971887    1.763959
     11          1           0       -1.086589    0.561011    2.058890
     12          7           0        1.794032   -0.483071   -0.303364
     13          8           0        2.316716   -0.050867   -1.330320
     14          8           0        2.351449   -0.581491    0.785669
 ---------------------------------------------------------------------

 SCF Done:  E(RHF) =  -988.469172731     A.U. after    2 cycles

 The electronic state is 1-A.
 Alpha  occ. eigenvalues -- -105.36394 -26.19462 -20.46844 -20.46727 -15.66320
 Alpha  occ. eigenvalues --  -15.39128 -15.38975 -11.31172 -11.19883 -11.17360
 Alpha  occ. eigenvalues --  -10.41255  -7.58091  -7.57898  -7.57878  -1.53845
 Alpha  occ. eigenvalues --   -1.37745  -1.28002  -1.11576  -1.08576  -1.01131
 Alpha  occ. eigenvalues --   -0.88113  -0.82135  -0.75399  -0.66952  -0.64326
 Alpha  occ. eigenvalues --   -0.62998  -0.61313  -0.60228  -0.51172  -0.49774
 Alpha  occ. eigenvalues --   -0.48062  -0.43814  -0.39619  -0.38102  -0.36336
 Alpha  occ. eigenvalues --   -0.35931  -0.35167  -0.34309  -0.33575  -0.32733
 Alpha  occ. eigenvalues --   -0.28688  -0.28321  -0.27516
 Alpha virt. eigenvalues --    0.13559   0.14243   0.15021   0.16309   0.18232
 Alpha virt. eigenvalues --    0.18790   0.20035   0.21445   0.21953   0.23108
 Alpha virt. eigenvalues --    0.23729   0.24053   0.24556   0.26029   0.26274

 Mulliken charges:
               1
     1  C   -0.647208
     2  H    0.338045
     3  Cl  -0.530513
     4  F   -0.856634
     5  C   -0.086523
     6  H    0.175983
     7  C   -1.624673
     8  N    1.008130
     9  N    0.599468
    10  H    0.333889
    11  H    0.292173
    12  N    2.857116
    13  O   -1.434764
    14  O   -1.424488
 Sum of Mulliken charges =  -1.00000

 Dipole moment (field-independent basis, Debye):
    X=              1.7270    Y=             -2.1926    Z=              1.8757  Tot=              3.3628

 Test job not archived.
 1\1\GINC-SE083\SP\RHF\Aug-CC-pVDZ\C3H4Cl1F1N3O2(1-)\OHZDE\09-Apr-2025\
 0\\#t hf aug-cc-pvdz iop(5/13=1,5/36=2,99/5=2) pseudo=read geom=check
 guess=(read,tcheck) scf=(maxcycle=1)\\title\\-1,1\C,0,0.63680716,-0.09
 932635,0.09797145\H,0,1.77159678,1.44552604,0.94960884\Cl,0,-1.5917068
 1,-0.14754357,0.28482017\F,0,2.49989217,-0.13604339,-0.30021085\C,0,0.
 89748727,1.38659638,0.31054998\H,0,1.07132048,1.87562616,-0.64316072\C
 ,0,0.51123707,-0.58498114,-1.26900797\N,0,0.41535163,-1.00798213,-2.36
 227546\N,0,0.86175787,-0.99054912,1.19272178\H,0,1.75703266,-1.4230927

 Normal termination of Gaussian 16 at Wed Apr  9 02:52:47 2025.
