 Gaussian 16, Revision C.01,

 ----------------------------------------------------------------------
 #t hf aug-cc-pvdz symm=none int=(grid=ultrafine) guess=(read,tcheck) s
 table=(opt,rrhf)
 ----------------------------------------------------------------------
 -----
 title
 -----
 Symbolic Z-matrix:
 Charge = -1 Multiplicity = 1

 SCF Done:  E(RHF) =  -567.943166044     A.U. after   16 cycles
 Normal termination of Gaussian 16 at Wed Apr  9 02:36:39 2025.
 Gaussian 16:  ES64L-G16RevC.01  3-Jul-2019

 ----------------------------------------------------------------------
 #t hf aug-cc-pvdz iop(5/13=1,5/36=2,99/5=2) pseudo=read geom=check gue
 ss=(read,tcheck) scf=(maxcycle=1)
 ----------------------------------------------------------------------
 -----
 title
 -----
 Structure from the checkpoint file:  "E2SN2_125_mol2.chk"
 Charge = -1 Multiplicity = 1

                         Standard orientation:
 ---------------------------------------------------------------------
 Center     Atomic      Atomic             Coordinates (Angstroms)
 Number     Number       Type             X           Y           Z
 ---------------------------------------------------------------------
      1          6           0       -0.171034   -0.540453   -0.135429
      2          6           0        0.778908    0.470342    0.533173
      3          9           0        0.061704   -0.549918   -1.490729
      4          1           0        0.705948    0.240261    1.608970
      5          7           0       -0.181680   -1.826292    0.403804
      6          1           0        0.161351   -1.767447    1.445881
      7          1           0        0.489842   -2.387399   -0.108338
      8          7           0       -1.588365    0.059575    0.024174
      9          8           0       -1.994858    0.140158    1.176506
     10          8           0       -2.191828    0.428684   -0.979198
     11          6           0        0.479193    1.933669    0.201695
     12          1           0        1.256861    2.579222    0.615355
     13          1           0        0.432842    2.090894   -0.878422
     14          1           0       -0.473855    2.229077    0.643696
     15          6           0        2.137367    0.126145    0.123522
     16          7           0        3.237538   -0.099036   -0.221411
     17          1           0        0.746109   -1.464028    2.727235
 ---------------------------------------------------------------------

 SCF Done:  E(RHF) =  -568.499771624     A.U. after    2 cycles

 The electronic state is 1-A.
 Alpha  occ. eigenvalues --  -26.37174 -20.48296 -20.48047 -15.66850 -15.40604
 Alpha  occ. eigenvalues --  -15.36096 -11.31364 -11.17908 -11.17631 -11.14922
 Alpha  occ. eigenvalues --   -1.55530  -1.50372  -1.39254  -1.11853  -1.10085
 Alpha  occ. eigenvalues --   -0.99494  -0.93006  -0.82380  -0.73958  -0.68578
 Alpha  occ. eigenvalues --   -0.66423  -0.64401  -0.60816  -0.59553  -0.56859
 Alpha  occ. eigenvalues --   -0.54226  -0.51381  -0.50083  -0.48843  -0.48507
 Alpha  occ. eigenvalues --   -0.45409  -0.43851  -0.39279  -0.38278  -0.37767
 Alpha  occ. eigenvalues --   -0.36933  -0.33913  -0.32520  -0.11962
 Alpha virt. eigenvalues --    0.12042   0.13617   0.14280   0.14759   0.17300
 Alpha virt. eigenvalues --    0.17434   0.18488   0.19361   0.20649   0.21599
 Alpha virt. eigenvalues --    0.22209   0.22486   0.24048   0.24241   0.25112

 Mulliken charges:
               1
     1  C   -0.324919
     2  C   -0.371103
     3  F   -1.021737
     4  H    0.312534
     5  N    0.621649
     6  H    0.125238
     7  H    0.351712
     8  N    2.981842
     9  O   -1.530661
    10  O   -1.456588
    11  C   -0.122791
    12  H    0.143362
    13  H    0.255364
    14  H    0.214900
    15  C   -1.537927
    16  N    0.975556
    17  H   -0.616429
 Sum of Mulliken charges =  -1.00000

 Dipole moment (field-independent basis, Debye):
    X=             -2.5792    Y=              5.6809    Z=             -6.5822  Tot=              9.0692

 Test job not archived.
 1\1\GINC-SE116\SP\RHF\Aug-CC-pVDZ\C4H7F1N3O2(1-)\OHZDE\09-Apr-2025\0\\
 #t hf aug-cc-pvdz iop(5/13=1,5/36=2,99/5=2) pseudo=read geom=check gue
 ss=(read,tcheck) scf=(maxcycle=1)\\title\\-1,1\C,0,-0.210752,0.216706,
 -1.433335\C,0,0.062066,-0.10798,0.04696\F,0,-1.489798,0.705784,-1.5595
 89\H,0,1.154262,-0.250325,0.096423\N,0,0.726739,1.029878,-2.069046\H,0
 ,1.68198,0.940605,-1.533692\H,0,0.417157,1.991695,-1.984555\N,0,-0.230
 693,-1.150697,-2.157314\O,0,0.836995,-1.750242,-2.170952\O,0,-1.286772
 ,-1.55071,-2.638825\C,0,-0.732313,-1.297763,0.589555\H,0,-0.574258,-1.

 Normal termination of Gaussian 16 at Wed Apr  9 02:36:49 2025.
