 Gaussian 16, Revision C.01,

 ----------------------------------------------------------------------
 #t hf aug-cc-pvdz symm=none int=(grid=ultrafine) guess=(read,tcheck) s
 table=(opt,rrhf)
 ----------------------------------------------------------------------
 -----
 title
 -----
 Symbolic Z-matrix:
 Charge = -1 Multiplicity = 1

 SCF Done:  E(RHF) =  -821.092706929     A.U. after   16 cycles
 Normal termination of Gaussian 16 at Wed Apr  9 02:46:38 2025.
 Gaussian 16:  ES64L-G16RevC.01  3-Jul-2019

 ----------------------------------------------------------------------
 #t hf aug-cc-pvdz iop(5/13=1,5/36=2,99/5=2) pseudo=read geom=check gue
 ss=(read,tcheck) scf=(maxcycle=1)
 ----------------------------------------------------------------------
 -----
 title
 -----
 Structure from the checkpoint file:  "E2SN2_251_mol1.chk"
 Charge = -1 Multiplicity = 1

                         Standard orientation:
 ---------------------------------------------------------------------
 Center     Atomic      Atomic             Coordinates (Angstroms)
 Number     Number       Type             X           Y           Z
 ---------------------------------------------------------------------
      1          6           0        0.268560   -0.144023   -0.252003
      2          1           0       -0.786575   -1.039280    1.357391
      3         17           0        1.000057    1.832115   -0.193806
      4          9           0       -0.436919   -1.958502   -0.592092
      5          6           0       -0.786514   -0.081377    0.840920
      6          1           0       -0.015243   -0.076344   -1.284574
      7          1           0       -0.593565    0.728591    1.546813
      8          6           0        1.487271   -0.846816    0.066203
      9          7           0        2.503356   -1.352447    0.372254
     10          6           0       -2.112053    0.108567    0.260179
     11          7           0       -3.191485    0.302374   -0.156238
 ---------------------------------------------------------------------

 SCF Done:  E(RHF) =  -821.514718273     A.U. after    2 cycles

 The electronic state is 1-A.
 Alpha  occ. eigenvalues -- -105.39012 -26.15011 -15.39844 -15.39191 -11.25899
 Alpha  occ. eigenvalues --  -11.17896 -11.17546 -11.17453 -10.43810  -7.60668
 Alpha  occ. eigenvalues --   -7.60436  -7.60428  -1.22683  -1.10570  -1.09579
 Alpha  occ. eigenvalues --   -0.99544  -0.87546  -0.81172  -0.63623  -0.58851
 Alpha  occ. eigenvalues --   -0.53715  -0.51296  -0.48839  -0.47519  -0.42894
 Alpha  occ. eigenvalues --   -0.38370  -0.37376  -0.36454  -0.35093  -0.31201
 Alpha  occ. eigenvalues --   -0.30477  -0.30300  -0.30108  -0.27038
 Alpha virt. eigenvalues --    0.13697   0.15149   0.15432   0.16876   0.19167
 Alpha virt. eigenvalues --    0.19558   0.21645   0.22407   0.23466   0.23990
 Alpha virt. eigenvalues --    0.24512   0.24726   0.26383   0.26997   0.27887

 Mulliken charges:
               1
     1  C    0.605680
     2  H    0.404397
     3  Cl  -0.460388
     4  F   -0.862273
     5  C    0.113886
     6  H    0.076543
     7  H    0.254770
     8  C   -1.493259
     9  N    0.838671
    10  C   -1.257315
    11  N    0.779289
 Sum of Mulliken charges =  -1.00000

 Dipole moment (field-independent basis, Debye):
    X=             -0.2070    Y=              2.7976    Z=              2.3634  Tot=              3.6681

 Test job not archived.
 1\1\GINC-SE188\SP\RHF\Aug-CC-pVDZ\C4H3Cl1F1N2(1-)\OHZDE\09-Apr-2025\0\
 \#t hf aug-cc-pvdz iop(5/13=1,5/36=2,99/5=2) pseudo=read geom=check gu
 ess=(read,tcheck) scf=(maxcycle=1)\\title\\-1,1\C,0,0.39446067,-0.0530
 3569,-0.05503894\H,0,1.43426959,1.73118842,-0.54522568\Cl,0,-1.6653004
 ,-0.32268759,-0.41318664\F,0,2.28981382,0.01587725,0.50046096\C,0,0.48
 477493,1.46436889,-0.08523867\H,0,0.36518062,-0.57624909,0.88129322\H,
 0,-0.34263407,1.91027264,-0.64033007\C,0,0.91807825,-0.75423172,-1.201
 58977\N,0,1.27523563,-1.30186954,-2.17846755\C,0,0.4833272,2.00268098,

 Normal termination of Gaussian 16 at Wed Apr  9 02:46:43 2025.
