 Gaussian 16, Revision C.01,

 ----------------------------------------------------------------------
 #t hf aug-cc-pvdz symm=none int=(grid=ultrafine) guess=(read,tcheck) s
 table=(opt,rrhf)
 ----------------------------------------------------------------------
 -----
 title
 -----
 Symbolic Z-matrix:
 Charge = -1 Multiplicity = 1

 SCF Done:  E(RHF) =  -1220.19238013     A.U. after   16 cycles
 Normal termination of Gaussian 16 at Wed Apr  9 02:49:19 2025.
 Gaussian 16:  ES64L-G16RevC.01  3-Jul-2019

 ----------------------------------------------------------------------
 #t hf aug-cc-pvdz iop(5/13=1,5/36=2,99/5=2) pseudo=read geom=check gue
 ss=(read,tcheck) scf=(maxcycle=1)
 ----------------------------------------------------------------------
 -----
 title
 -----
 Structure from the checkpoint file:  "E2SN2_271_mol1.chk"
 Charge = -1 Multiplicity = 1

                         Standard orientation:
 ---------------------------------------------------------------------
 Center     Atomic      Atomic             Coordinates (Angstroms)
 Number     Number       Type             X           Y           Z
 ---------------------------------------------------------------------
      1          6           0        0.002123    0.141696   -0.086474
      2          1           0       -0.884572   -0.478380   -1.923771
      3         17           0        2.360592    0.162070    0.051384
      4         17           0       -2.355076    0.185757    0.057946
      5          6           0       -0.005547   -0.739172   -1.335810
      6          1           0        0.883212   -0.502631   -1.919225
      7          6           0        0.009444    1.571325   -0.243588
      8          7           0        0.014786    2.733025   -0.436095
      9          6           0        0.001981   -0.413029    1.242218
     10          7           0        0.000674   -0.910345    2.309610
     11          6           0       -0.025946   -2.216247   -0.981435
     12          1           0        0.860164   -2.483804   -0.403164
     13          1           0       -0.917363   -2.458731   -0.400502
     14          1           0       -0.035764   -2.815725   -1.896022
 ---------------------------------------------------------------------

 SCF Done:  E(RHF) =  -1220.64290379     A.U. after    2 cycles

 The electronic state is 1-A.
 Alpha  occ. eigenvalues -- -105.36502-105.36486 -15.41379 -15.40754 -11.31165
 Alpha  occ. eigenvalues --  -11.19456 -11.19170 -11.15471 -11.12814 -10.41246
 Alpha  occ. eigenvalues --  -10.41229  -7.58078  -7.58061  -7.57885  -7.57882
 Alpha  occ. eigenvalues --   -7.57869  -7.57866  -1.12294  -1.10652  -1.02633
 Alpha  occ. eigenvalues --   -0.91005  -0.83428  -0.80300  -0.76900  -0.71254
 Alpha  occ. eigenvalues --   -0.56294  -0.54057  -0.50548  -0.49738  -0.45445
 Alpha  occ. eigenvalues --   -0.45030  -0.42428  -0.41763  -0.40143  -0.38561
 Alpha  occ. eigenvalues --   -0.38189  -0.30335  -0.28550  -0.28366  -0.27857
 Alpha  occ. eigenvalues --   -0.27293  -0.25490
 Alpha virt. eigenvalues --    0.11417   0.13424   0.13435   0.14433   0.15403
 Alpha virt. eigenvalues --    0.16670   0.18417   0.19392   0.20911   0.21258
 Alpha virt. eigenvalues --    0.21998   0.22868   0.23536   0.24208   0.24971

 Mulliken charges:
               1
     1  C   -0.551655
     2  H    0.220068
     3  Cl  -0.491531
     4  Cl  -0.489764
     5  C    0.671731
     6  H    0.218432
     7  C   -1.688914
     8  N    0.933042
     9  C   -1.110551
    10  N    0.857856
    11  C   -0.176704
    12  H    0.281269
    13  H    0.283542
    14  H    0.043177
 Sum of Mulliken charges =  -1.00000

 Dipole moment (field-independent basis, Debye):
    X=             -0.0433    Y=             -3.7470    Z=             -4.1525  Tot=              5.5934

 Test job not archived.
 1\1\GINC-SE143\SP\RHF\Aug-CC-pVDZ\C5H5Cl2N2(1-)\OHZDE\09-Apr-2025\0\\#
 t hf aug-cc-pvdz iop(5/13=1,5/36=2,99/5=2) pseudo=read geom=check gues
 s=(read,tcheck) scf=(maxcycle=1)\\title\\-1,1\C,0,0.57549908,-0.050507
 49,-0.01363937\H,0,1.39818581,1.85513801,-0.50157974\Cl,0,-1.75035927,
 -0.3554116,-0.29509146\Cl,0,2.90295672,-0.00950878,0.38691534\C,0,0.47
 242685,1.4735295,-0.07292979\H,0,-0.34894519,1.72905854,-0.74096544\C,
 0,0.80781492,-0.77971298,-1.23136876\N,0,0.99897157,-1.32045717,-2.259
 80927\C,0,0.44789171,-0.77967073,1.22134202\N,0,0.33805218,-1.33446962

 Normal termination of Gaussian 16 at Wed Apr  9 02:49:26 2025.
