 Gaussian 16, Revision C.01,

 ----------------------------------------------------------------------
 #t hf aug-cc-pvdz symm=none int=(grid=ultrafine) guess=(read,tcheck) s
 table=(opt,rrhf)
 ----------------------------------------------------------------------
 -----
 title
 -----
 Symbolic Z-matrix:
 Charge = -1 Multiplicity = 1

 SCF Done:  E(RHF) =  -502.386901890     A.U. after   15 cycles
 Normal termination of Gaussian 16 at Wed Apr  9 02:56:48 2025.
 Gaussian 16:  ES64L-G16RevC.01  3-Jul-2019

 ----------------------------------------------------------------------
 #t hf aug-cc-pvdz iop(5/13=1,5/36=2,99/5=2) pseudo=read geom=check gue
 ss=(read,tcheck) scf=(maxcycle=1)
 ----------------------------------------------------------------------
 -----
 title
 -----
 Structure from the checkpoint file:  "E2SN2_363_mol1.chk"
 Charge = -1 Multiplicity = 1

                         Standard orientation:
 ---------------------------------------------------------------------
 Center     Atomic      Atomic             Coordinates (Angstroms)
 Number     Number       Type             X           Y           Z
 ---------------------------------------------------------------------
      1          6           0        0.688148   -0.193329    0.079098
      2          1           0       -0.330984    0.644035   -1.584211
      3          9           0       -0.277240   -0.448441    1.631075
      4          9           0        1.657369    0.168724   -1.435496
      5          6           0       -0.523075    0.546234   -0.514245
      6          6           0        0.833095   -1.680409   -0.179739
      7          1           0        0.475950   -2.244393    0.679212
      8          1           0        0.261851   -1.962287   -1.066800
      9          1           0        1.881578   -1.897306   -0.383606
     10          7           0        1.653449    0.546577    0.845509
     11          1           0        2.538203    0.439302    0.371606
     12          1           0        1.655690    0.147099    1.772629
     13          6           0       -0.693111    1.935419    0.091685
     14          1           0       -0.841306    1.829639    1.164322
     15          1           0        0.217615    2.505675   -0.086357
     16          1           0       -1.547628    2.449871   -0.359707
     17          6           0       -1.762323   -0.226311   -0.379628
     18          7           0       -2.794669   -0.787121   -0.395556
 ---------------------------------------------------------------------

 SCF Done:  E(RHF) =  -502.886585774     A.U. after    2 cycles

 The electronic state is 1-A.
 Alpha  occ. eigenvalues --  -26.15750 -26.15141 -15.36086 -15.34110 -11.23011
 Alpha  occ. eigenvalues --  -11.14046 -11.13014 -11.09322 -11.08332  -1.25066
 Alpha  occ. eigenvalues --   -1.23434  -1.06999  -1.03955  -0.93971  -0.85336
 Alpha  occ. eigenvalues --   -0.75792  -0.66995  -0.56275  -0.55100  -0.51245
 Alpha  occ. eigenvalues --   -0.50020  -0.46601  -0.45302  -0.43118  -0.41480
 Alpha  occ. eigenvalues --   -0.39590  -0.37996  -0.35370  -0.34703  -0.33487
 Alpha  occ. eigenvalues --   -0.32155  -0.30907  -0.30542  -0.30300  -0.29492
 Alpha  occ. eigenvalues --   -0.27787
 Alpha virt. eigenvalues --    0.13113   0.13430   0.14096   0.15181   0.15804
 Alpha virt. eigenvalues --    0.16058   0.16131   0.17307   0.18118   0.20385
 Alpha virt. eigenvalues --    0.22164   0.23988   0.25042   0.25466   0.26266

 Mulliken charges:
               1
     1  C   -0.860776
     2  H    0.279969
     3  F   -0.942827
     4  F   -0.941459
     5  C   -0.335403
     6  C   -0.212377
     7  H    0.328782
     8  H    0.232840
     9  H    0.125946
    10  N    0.519126
    11  H    0.395479
    12  H    0.423567
    13  C    0.104587
    14  H    0.379208
    15  H    0.234240
    16  H    0.082379
    17  C   -1.869172
    18  N    1.055890
 Sum of Mulliken charges =  -1.00000

 Dipole moment (field-independent basis, Debye):
    X=              2.6161    Y=              1.4184    Z=             -0.0526  Tot=              2.9763

 Test job not archived.
 1\1\GINC-SE113\SP\RHF\Aug-CC-pVDZ\C5H9F2N2(1-)\OHZDE\09-Apr-2025\0\\#t
  hf aug-cc-pvdz iop(5/13=1,5/36=2,99/5=2) pseudo=read geom=check guess
 =(read,tcheck) scf=(maxcycle=1)\\title\\-1,1\C,0,0.64758645,-0.0692354
 9,-0.00846548\H,0,1.60351962,1.80908252,-0.26246964\F,0,-1.1958186,-0.
 10597246,-0.08718168\F,0,2.4710938,0.00436329,0.17557775\C,0,0.5868046
 9,1.46685862,-0.06131201\C,0,0.80633433,-0.83786733,-1.305931\H,0,-0.1
 602726,-1.20929141,-1.6393139\H,0,1.23485532,-0.18995791,-2.0735484\H,
 0,1.50634298,-1.6569274,-1.14146193\N,0,0.56899327,-0.7294506,1.266128

 Normal termination of Gaussian 16 at Wed Apr  9 02:56:57 2025.
