 Gaussian 16, Revision C.01,

 ----------------------------------------------------------------------
 #t hf aug-cc-pvdz symm=none int=(grid=ultrafine) guess=(read,tcheck) s
 table=(opt,rrhf)
 ----------------------------------------------------------------------
 -----
 title
 -----
 Symbolic Z-matrix:
 Charge = -1 Multiplicity = 1

 SCF Done:  E(RHF) =  -682.852565524     A.U. after   16 cycles
 Normal termination of Gaussian 16 at Wed Apr  9 02:53:47 2025.
 Gaussian 16:  ES64L-G16RevC.01  3-Jul-2019

 ----------------------------------------------------------------------
 #t hf aug-cc-pvdz iop(5/13=1,5/36=2,99/5=2) pseudo=read geom=check gue
 ss=(read,tcheck) scf=(maxcycle=1)
 ----------------------------------------------------------------------
 -----
 title
 -----
 Structure from the checkpoint file:  "E2SN2_320_mol1.chk"
 Charge = -1 Multiplicity = 1

                         Standard orientation:
 ---------------------------------------------------------------------
 Center     Atomic      Atomic             Coordinates (Angstroms)
 Number     Number       Type             X           Y           Z
 ---------------------------------------------------------------------
      1          6           0       -0.820245    0.170197    0.234363
      2          1           0        0.784475    0.793073    1.448534
      3          9           0       -1.198842    1.000598   -1.287533
      4          9           0       -0.509029   -0.874298    1.678355
      5          6           0        0.615760    0.711860    0.381269
      6          6           0       -1.178379   -1.069806   -0.451271
      7          7           0       -1.544760   -2.064781   -0.957750
      8          7           0       -1.789512    0.947976    0.954466
      9          1           0       -2.131122    0.358172    1.700593
     10          1           0       -2.521537    1.188945    0.301828
     11          7           0        0.937522    1.946337   -0.279229
     12          1           0        0.557216    2.684951    0.299787
     13          1           0        0.390638    1.940638   -1.135245
     14          7           0        1.611268   -0.306680   -0.089386
     15          8           0        2.472832   -0.680451    0.703640
     16          8           0        1.538009   -0.649043   -1.268109
 ---------------------------------------------------------------------

 SCF Done:  E(RHF) =  -683.508821803     A.U. after    2 cycles

 The electronic state is 1-A.
 Alpha  occ. eigenvalues --  -26.21593 -26.19579 -20.45971 -20.45811 -15.65039
 Alpha  occ. eigenvalues --  -15.38812 -15.38054 -15.37314 -11.29786 -11.21377
 Alpha  occ. eigenvalues --  -11.15687  -1.52846  -1.36790  -1.31152  -1.28459
 Alpha  occ. eigenvalues --   -1.11238  -1.08490  -1.06988  -0.95255  -0.84100
 Alpha  occ. eigenvalues --   -0.74299  -0.67641  -0.63439  -0.62276  -0.60397
 Alpha  occ. eigenvalues --   -0.59973  -0.57602  -0.52973  -0.48797  -0.47086
 Alpha  occ. eigenvalues --   -0.44720  -0.41017  -0.38887  -0.37918  -0.36789
 Alpha  occ. eigenvalues --   -0.36308  -0.35659  -0.35070  -0.34916  -0.34215
 Alpha  occ. eigenvalues --   -0.32271  -0.31148  -0.31070
 Alpha virt. eigenvalues --    0.12762   0.13592   0.14931   0.15965   0.16384
 Alpha virt. eigenvalues --    0.18813   0.19211   0.22229   0.22497   0.22913
 Alpha virt. eigenvalues --    0.24420   0.24905   0.25080   0.26270   0.26660

 Mulliken charges:
               1
     1  C    1.272761
     2  H    0.170568
     3  F   -0.934631
     4  F   -0.915151
     5  C   -1.619127
     6  C   -2.802151
     7  N    1.214382
     8  N    0.520579
     9  H    0.363753
    10  H    0.338008
    11  N    0.498291
    12  H    0.299888
    13  H    0.334442
    14  N    3.243718
    15  O   -1.486206
    16  O   -1.499122
 Sum of Mulliken charges =  -1.00000

 Dipole moment (field-independent basis, Debye):
    X=             -0.4511    Y=              5.2224    Z=              1.9930  Tot=              5.6079

 Test job not archived.
 1\1\GINC-SE105\SP\RHF\Aug-CC-pVDZ\C3H5F2N4O2(1-)\OHZDE\09-Apr-2025\0\\
 #t hf aug-cc-pvdz iop(5/13=1,5/36=2,99/5=2) pseudo=read geom=check gue
 ss=(read,tcheck) scf=(maxcycle=1)\\title\\-1,1\C,0,0.68778246,0.015289
 37,0.06478266\H,0,1.60802217,1.89069178,0.33559228\F,0,-0.96986302,-0.
 28529728,0.62239153\F,0,2.32840746,0.17224718,-0.68130958\C,0,0.607979
 37,1.55482647,0.08815753\C,0,0.36095113,-0.81988239,-1.08917989\N,0,0.
 14551728,-1.55769355,-1.97797339\N,0,1.24303991,-0.53593682,1.26927639
 \H,0,2.13300047,-0.94088006,1.01380909\H,0,0.59484926,-1.23489064,1.60

 Normal termination of Gaussian 16 at Wed Apr  9 02:53:56 2025.
