 Gaussian 16, Revision C.01,

 ----------------------------------------------------------------------
 #t hf aug-cc-pvdz symm=none int=(grid=ultrafine) guess=(read,tcheck) s
 table=(opt,rrhf)
 ----------------------------------------------------------------------
 -----
 title
 -----
 Symbolic Z-matrix:
 Charge = -1 Multiplicity = 1

 SCF Done:  E(RHF) =  -508.842513208     A.U. after   17 cycles
 Normal termination of Gaussian 16 at Wed Apr  9 03:01:24 2025.
 Gaussian 16:  ES64L-G16RevC.01  3-Jul-2019

 ----------------------------------------------------------------------
 #t hf aug-cc-pvdz iop(5/13=1,5/36=2,99/5=2) pseudo=read geom=check gue
 ss=(read,tcheck) scf=(maxcycle=1)
 ----------------------------------------------------------------------
 -----
 title
 -----
 Structure from the checkpoint file:  "E2SN2_69_mol2.chk"
 Charge = -1 Multiplicity = 1

                         Standard orientation:
 ---------------------------------------------------------------------
 Center     Atomic      Atomic             Coordinates (Angstroms)
 Number     Number       Type             X           Y           Z
 ---------------------------------------------------------------------
      1          6           0       -0.475107    0.183466    0.213690
      2          6           0        0.628715   -0.659589   -0.436403
      3          9           0       -0.287375    0.242238    1.588393
      4          1           0        0.494123   -0.688605   -1.523048
      5          6           0       -0.478372    1.572660   -0.289043
      6          7           0       -0.469928    2.677556   -0.687763
      7          6           0       -1.792543   -0.424540   -0.038139
      8          7           0       -2.879182   -0.830350   -0.219216
      9          7           0        0.498388   -2.030751   -0.028603
     10          1           0        1.245717   -2.304331    0.597366
     11          1           0        0.587180   -2.525159   -0.978193
     12          6           0        1.920060   -0.028157   -0.140666
     13          7           0        2.965326    0.447007    0.112753
     14          1           0        0.640598   -2.369315   -2.488484
 ---------------------------------------------------------------------

 SCF Done:  E(RHF) =  -509.328648581     A.U. after    2 cycles

 The electronic state is 1-A.
 Alpha  occ. eigenvalues --  -26.40816 -15.46402 -15.45137 -15.42356 -15.37082
 Alpha  occ. eigenvalues --  -11.33889 -11.22616 -11.21632 -11.21450 -11.19176
 Alpha  occ. eigenvalues --   -1.53448  -1.16403  -1.14730  -1.13297  -1.09659
 Alpha  occ. eigenvalues --   -0.99794  -0.85809  -0.75453  -0.68756  -0.65681
 Alpha  occ. eigenvalues --   -0.62662  -0.56353  -0.55286  -0.55001  -0.52504
 Alpha  occ. eigenvalues --   -0.51446  -0.51000  -0.47144  -0.44014  -0.43324
 Alpha  occ. eigenvalues --   -0.42527  -0.41957  -0.40383  -0.38968  -0.34015
 Alpha  occ. eigenvalues --   -0.12693
 Alpha virt. eigenvalues --    0.13716   0.14796   0.16308   0.16948   0.17553
 Alpha virt. eigenvalues --    0.18243   0.18869   0.19272   0.19792   0.20509
 Alpha virt. eigenvalues --    0.21269   0.22493   0.22898   0.23401   0.24282

 Mulliken charges:
               1
     1  C    1.832144
     2  C   -0.637318
     3  F   -0.894609
     4  H    0.190401
     5  C   -1.570325
     6  N    0.935895
     7  C   -1.349000
     8  N    0.955206
     9  N    0.522491
    10  H    0.254165
    11  H    0.293160
    12  C   -1.864351
    13  N    0.978628
    14  H   -0.646486
 Sum of Mulliken charges =  -1.00000

 Dipole moment (field-independent basis, Debye):
    X=             -1.5849    Y=              4.3294    Z=              7.5630  Tot=              8.8575

 Test job not archived.
 1\1\GINC-SE460\SP\RHF\Aug-CC-pVDZ\C5H4F1N4(1-)\OHZDE\09-Apr-2025\0\\#t
  hf aug-cc-pvdz iop(5/13=1,5/36=2,99/5=2) pseudo=read geom=check guess
 =(read,tcheck) scf=(maxcycle=1)\\title\\-1,1\C,0,-0.537161,0.001216,-1
 .492983\C,0,0.048574,0.070449,-0.077388\F,0,-1.91857,-0.128591,-1.4349
 74\H,0,1.135912,0.194781,-0.122022\C,0,-0.242884,1.220632,-2.27339\N,0
 ,-0.011634,2.196413,-2.885126\C,0,-0.00155,-1.170212,-2.206849\N,0,0.4
 00564,-2.064859,-2.851957\N,0,-0.134882,-1.189393,0.587829\H,0,-0.8230
 34,-1.121715,1.327457\H,0,0.850317,-1.343369,0.987478\C,0,-0.529287,1.

 Normal termination of Gaussian 16 at Wed Apr  9 03:01:30 2025.
