 Gaussian 16, Revision C.01,

 ----------------------------------------------------------------------
 #t hf aug-cc-pvdz symm=none int=(grid=ultrafine) guess=(read,tcheck) s
 table=(opt,rrhf)
 ----------------------------------------------------------------------
 -----
 title
 -----
 Symbolic Z-matrix:
 Charge = -1 Multiplicity = 1

 SCF Done:  E(RHF) =  -419.422137669     A.U. after   17 cycles
 Normal termination of Gaussian 16 at Wed Apr  9 02:50:19 2025.
 Gaussian 16:  ES64L-G16RevC.01  3-Jul-2019

 ----------------------------------------------------------------------
 #t hf aug-cc-pvdz iop(5/13=1,5/36=2,99/5=2) pseudo=read geom=check gue
 ss=(read,tcheck) scf=(maxcycle=1)
 ----------------------------------------------------------------------
 -----
 title
 -----
 Structure from the checkpoint file:  "E2SN2_287_mol1.chk"
 Charge = -1 Multiplicity = 1

                         Standard orientation:
 ---------------------------------------------------------------------
 Center     Atomic      Atomic             Coordinates (Angstroms)
 Number     Number       Type             X           Y           Z
 ---------------------------------------------------------------------
      1          6           0       -0.361681   -0.190305    0.202068
      2          1           0        0.625226   -0.102250   -1.686222
      3          9           0       -0.580323    1.387772    0.719189
      4          1           0       -0.433392   -1.901860   -0.608096
      5          6           0        0.944403   -0.045112   -0.636749
      6          6           0       -1.598744   -0.293448   -0.530539
      7          7           0       -2.650601   -0.156926   -1.053560
      8          6           0       -0.284645   -0.762962    1.607374
      9          1           0       -0.119860   -1.834990    1.613990
     10          1           0        0.541938   -0.267626    2.120378
     11          1           0       -1.209718   -0.517589    2.133561
     12          7           0        1.897985   -1.089530   -0.273017
     13          1           0        2.685189   -0.996705   -0.907571
     14          1           0        1.409607   -1.961602   -0.464097
     15          7           0        1.677954    1.208201   -0.468326
     16          1           0        2.070408    1.170324    0.467964
     17          1           0        0.980145    1.941102   -0.431209
 ---------------------------------------------------------------------

 SCF Done:  E(RHF) =  -419.848492550     A.U. after    2 cycles

 The electronic state is 1-A.
 Alpha  occ. eigenvalues --  -26.21792 -15.34710 -15.34614 -15.33592 -11.21388
 Alpha  occ. eigenvalues --  -11.16203 -11.13256 -11.09837  -1.30728  -1.09337
 Alpha  occ. eigenvalues --   -1.04372  -0.99269  -0.91504  -0.78932  -0.70368
 Alpha  occ. eigenvalues --   -0.59640  -0.58230  -0.53354  -0.48632  -0.46683
 Alpha  occ. eigenvalues --   -0.46158  -0.44497  -0.43536  -0.41217  -0.40279
 Alpha  occ. eigenvalues --   -0.37050  -0.35491  -0.33504  -0.32259  -0.31267
 Alpha  occ. eigenvalues --   -0.29272  -0.12880
 Alpha virt. eigenvalues --    0.13042   0.13574   0.14559   0.15280   0.15667
 Alpha virt. eigenvalues --    0.16092   0.17055   0.17619   0.19896   0.20784
 Alpha virt. eigenvalues --    0.23304   0.24388   0.24705   0.25491   0.25970

 Mulliken charges:
               1
     1  C    0.601479
     2  H   -0.042770
     3  F   -0.927773
     4  H   -0.359312
     5  C   -2.033816
     6  C   -2.181986
     7  N    1.010841
     8  C    0.235497
     9  H    0.170432
    10  H    0.276034
    11  H    0.164394
    12  N    0.634412
    13  H    0.182890
    14  H    0.213422
    15  N    0.530096
    16  H    0.276022
    17  H    0.250137
 Sum of Mulliken charges =  -1.00000

 Dipole moment (field-independent basis, Debye):
    X=              5.2571    Y=              1.0176    Z=              2.6781  Tot=              5.9871

 Test job not archived.
 1\1\GINC-SE188\SP\RHF\Aug-CC-pVDZ\C4H9F1N3(1-)\OHZDE\09-Apr-2025\0\\#t
  hf aug-cc-pvdz iop(5/13=1,5/36=2,99/5=2) pseudo=read geom=check guess
 =(read,tcheck) scf=(maxcycle=1)\\title\\-1,1\C,0,0.48938116,-0.0064139
 2,-0.06431425\H,0,1.37598343,1.70820841,-0.97061566\F,0,-1.00849395,-0
 .22516696,-0.78129632\H,0,2.32057873,0.06467225,0.41796293\C,0,0.64163
 438,1.54148704,-0.17094822\C,0,1.23719321,-0.80131241,-1.00590374\N,0,
 1.63862201,-1.49215901,-1.87778529\C,0,0.07498567,-0.62465351,1.260378
 89\H,0,0.87422106,-0.61785567,1.99360451\H,0,-0.77033342,-0.04925859,1

 Normal termination of Gaussian 16 at Wed Apr  9 02:50:26 2025.
