 Gaussian 16, Revision C.01,

 ----------------------------------------------------------------------
 #t hf aug-cc-pvdz symm=none int=(grid=ultrafine) guess=(read,tcheck) s
 table=(opt,rrhf)
 ----------------------------------------------------------------------
 -----
 title
 -----
 Symbolic Z-matrix:
 Charge = -1 Multiplicity = 1

 SCF Done:  E(RHF) =  -419.477065822     A.U. after   15 cycles
 Normal termination of Gaussian 16 at Wed Apr  9 02:35:08 2025.
 Gaussian 16:  ES64L-G16RevC.01  3-Jul-2019

 ----------------------------------------------------------------------
 #t hf aug-cc-pvdz iop(5/13=1,5/36=2,99/5=2) pseudo=read geom=check gue
 ss=(read,tcheck) scf=(maxcycle=1)
 ----------------------------------------------------------------------
 -----
 title
 -----
 Structure from the checkpoint file:  "E2SN2_116_mol2.chk"
 Charge = -1 Multiplicity = 1

                         Standard orientation:
 ---------------------------------------------------------------------
 Center     Atomic      Atomic             Coordinates (Angstroms)
 Number     Number       Type             X           Y           Z
 ---------------------------------------------------------------------
      1          6           0        0.415345    0.331899    0.336004
      2          6           0       -1.078538    0.025449    0.193657
      3          9           0        0.827706   -0.195768    1.607599
      4          1           0       -1.552937    0.654458    0.957081
      5          6           0        1.206876   -0.466118   -0.633884
      6          7           0        1.880533   -1.091045   -1.365816
      7          7           0        0.672249    1.700786    0.268159
      8          1           0       -0.141038    2.303546   -0.023158
      9          1           0        1.509739    1.942070   -0.239494
     10          6           0       -1.390204   -1.436895    0.467923
     11          1           0       -2.473434   -1.594429    0.433781
     12          1           0       -1.026867   -1.742913    1.449152
     13          1           0       -0.931704   -2.067735   -0.298901
     14          7           0       -1.463806    0.388283   -1.162209
     15          1           0       -2.400702    0.033455   -1.329240
     16          1           0       -1.536124    1.422413   -1.183713
     17          1           0       -1.440001    3.098860   -0.597038
 ---------------------------------------------------------------------

 SCF Done:  E(RHF) =  -419.903195999     A.U. after    2 cycles

 The electronic state is 1-A.
 Alpha  occ. eigenvalues --  -26.32146 -15.40324 -15.35466 -15.34313 -11.26039
 Alpha  occ. eigenvalues --  -11.17107 -11.14779 -11.11769  -1.44060  -1.11419
 Alpha  occ. eigenvalues --   -1.08844  -1.04127  -0.89882  -0.82680  -0.73236
 Alpha  occ. eigenvalues --   -0.63663  -0.58986  -0.57882  -0.54328  -0.52442
 Alpha  occ. eigenvalues --   -0.51892  -0.49983  -0.45838  -0.45376  -0.42468
 Alpha  occ. eigenvalues --   -0.40469  -0.39957  -0.38694  -0.37277  -0.32271
 Alpha  occ. eigenvalues --   -0.30235  -0.11429
 Alpha virt. eigenvalues --    0.12043   0.13269   0.13998   0.15048   0.15735
 Alpha virt. eigenvalues --    0.16610   0.17851   0.19608   0.20303   0.21292
 Alpha virt. eigenvalues --    0.21755   0.23213   0.23811   0.24456   0.25249

 Mulliken charges:
               1
     1  C    0.788867
     2  C   -1.753051
     3  F   -0.959780
     4  H    0.097268
     5  C   -2.015015
     6  N    1.008196
     7  N    0.620020
     8  H    0.082982
     9  H    0.264989
    10  C   -0.000585
    11  H    0.095371
    12  H    0.205717
    13  H    0.277612
    14  N    0.773873
    15  H    0.192551
    16  H    0.098342
    17  H   -0.777355
 Sum of Mulliken charges =  -1.00000

 Dipole moment (field-independent basis, Debye):
    X=              0.6174    Y=             -7.8502    Z=              3.1316  Tot=              8.4743

 Test job not archived.
 1\1\GINC-SE195\SP\RHF\Aug-CC-pVDZ\C4H9F1N3(1-)\OHZDE\09-Apr-2025\0\\#t
  hf aug-cc-pvdz iop(5/13=1,5/36=2,99/5=2) pseudo=read geom=check guess
 =(read,tcheck) scf=(maxcycle=1)\\title\\-1,1\C,0,-0.25807,-0.02139,-1.
 402708\C,0,0.026215,-0.257342,0.083687\F,0,-0.278982,-1.313638,-2.0312
 67\H,0,1.059397,-0.625767,0.101594\C,0,-1.644814,0.471663,-1.597323\N,
 0,-2.739867,0.841596,-1.807277\N,0,0.707984,0.793385,-1.99206\H,0,1.38
 502,1.251635,-1.327793\H,0,0.342735,1.455011,-2.660014\C,0,-0.901137,-
 1.301749,0.683722\H,0,-0.612342,-1.496518,1.722005\H,0,-0.854043,-2.23

 Normal termination of Gaussian 16 at Wed Apr  9 02:35:16 2025.
