 Gaussian 16, Revision C.01,

 ----------------------------------------------------------------------
 #t hf aug-cc-pvdz symm=none int=(grid=ultrafine) guess=(read,tcheck) s
 table=(opt,rrhf)
 ----------------------------------------------------------------------
 -----
 title
 -----
 Symbolic Z-matrix:
 Charge = -1 Multiplicity = 1

 SCF Done:  E(RHF) =  -1236.21565967     A.U. after   16 cycles
 Normal termination of Gaussian 16 at Wed Apr  9 03:02:25 2025.
 Gaussian 16:  ES64L-G16RevC.01  3-Jul-2019

 ----------------------------------------------------------------------
 #t hf aug-cc-pvdz iop(5/13=1,5/36=2,99/5=2) pseudo=read geom=check gue
 ss=(read,tcheck) scf=(maxcycle=1)
 ----------------------------------------------------------------------
 -----
 title
 -----
 Structure from the checkpoint file:  "E2SN2_80_mol1.chk"
 Charge = -1 Multiplicity = 1

                         Standard orientation:
 ---------------------------------------------------------------------
 Center     Atomic      Atomic             Coordinates (Angstroms)
 Number     Number       Type             X           Y           Z
 ---------------------------------------------------------------------
      1          6           0        0.427053   -0.495893    0.037531
      2          6           0       -0.408761    0.408460   -0.652591
      3         17           0        2.646766   -0.260980   -0.778021
      4         17           0       -3.183325   -0.535333   -0.102124
      5          1           0       -1.802565   -0.049219   -0.227930
      6          1           0       -0.567622    0.172071   -1.704094
      7          7           0        0.249987   -1.847704   -0.158383
      8          1           0        0.011366   -2.068799   -1.115473
      9          1           0        1.047884   -2.384555    0.150370
     10          6           0        0.822718   -0.148334    1.384600
     11          7           0        1.067233    0.100426    2.508462
     12          6           0       -0.307312    1.802623   -0.370981
     13          7           0       -0.284326    2.956805   -0.140330
 ---------------------------------------------------------------------

 SCF Done:  E(RHF) =  -1236.68251187     A.U. after    2 cycles

 The electronic state is 1-A.
 Alpha  occ. eigenvalues -- -105.39788-105.35227 -15.44787 -15.43347 -15.39224
 Alpha  occ. eigenvalues --  -11.29926 -11.20129 -11.17179 -11.15155 -10.44596
 Alpha  occ. eigenvalues --  -10.39954  -7.61487  -7.61255  -7.61251  -7.56762
 Alpha  occ. eigenvalues --   -7.56618  -7.56616  -1.18177  -1.12398  -1.09748
 Alpha  occ. eigenvalues --   -0.97947  -0.88078  -0.84094  -0.80466  -0.71209
 Alpha  occ. eigenvalues --   -0.64311  -0.58441  -0.54977  -0.52767  -0.50945
 Alpha  occ. eigenvalues --   -0.48023  -0.45734  -0.41140  -0.40657  -0.39107
 Alpha  occ. eigenvalues --   -0.36976  -0.31540  -0.31505  -0.30341  -0.27298
 Alpha  occ. eigenvalues --   -0.27215  -0.22438
 Alpha virt. eigenvalues --    0.11782   0.13338   0.14679   0.15238   0.16606
 Alpha virt. eigenvalues --    0.18277   0.18495   0.20735   0.21728   0.22016
 Alpha virt. eigenvalues --    0.22897   0.23939   0.24111   0.25162   0.25470

 Mulliken charges:
               1
     1  C   -0.925486
     2  C    0.511731
     3  Cl  -0.592257
     4  Cl  -0.514963
     5  H    0.959834
     6  H   -0.035615
     7  N    0.856782
     8  H    0.146332
     9  H    0.151970
    10  C   -1.412230
    11  N    0.920794
    12  C   -2.000955
    13  N    0.934064
 Sum of Mulliken charges =  -1.00000

 Dipole moment (field-independent basis, Debye):
    X=             -1.0733    Y=             -5.6773    Z=             -2.6767  Tot=              6.3678

 Test job not archived.
 1\1\GINC-SE273\SP\RHF\Aug-CC-pVDZ\C4H4Cl2N3(1-)\OHZDE\09-Apr-2025\0\\#
 t hf aug-cc-pvdz iop(5/13=1,5/36=2,99/5=2) pseudo=read geom=check gues
 s=(read,tcheck) scf=(maxcycle=1)\\title\\-1,1\C,0,-0.5339145,0.0562617
 2,-0.18960698\C,0,-0.10836848,-0.05989183,1.15133517\Cl,0,1.38068261,0
 .16910725,-1.59282416\Cl,0,-2.51850271,0.59099133,2.78215481\H,0,-1.40
 780479,0.15672881,1.92401672\H,0,0.37120485,0.83017718,1.55699725\N,0,
 -1.17959386,1.20668043,-0.58554014\H,0,-0.79958449,2.03197535,-0.14245
 282\H,0,-1.19434938,1.30801579,-1.5903734\C,0,-1.0165876,-1.13906868,-

 Normal termination of Gaussian 16 at Wed Apr  9 03:02:32 2025.
