 Gaussian 16, Revision C.01,

 ----------------------------------------------------------------------
 #t hf aug-cc-pvdz symm=none int=(grid=ultrafine) guess=(read,tcheck) s
 table=(opt,rrhf)
 ----------------------------------------------------------------------
 -----
 title
 -----
 Symbolic Z-matrix:
 Charge = -1 Multiplicity = 1

 SCF Done:  E(RHF) =  -1222.60957190     A.U. after   15 cycles
 Normal termination of Gaussian 16 at Wed Apr  9 02:56:17 2025.
 Gaussian 16:  ES64L-G16RevC.01  3-Jul-2019

 ----------------------------------------------------------------------
 #t hf aug-cc-pvdz iop(5/13=1,5/36=2,99/5=2) pseudo=read geom=check gue
 ss=(read,tcheck) scf=(maxcycle=1)
 ----------------------------------------------------------------------
 -----
 title
 -----
 Structure from the checkpoint file:  "E2SN2_348_mol2.chk"
 Charge = -1 Multiplicity = 1

                         Standard orientation:
 ---------------------------------------------------------------------
 Center     Atomic      Atomic             Coordinates (Angstroms)
 Number     Number       Type             X           Y           Z
 ---------------------------------------------------------------------
      1          6           0       -0.591520   -0.653750    0.297835
      2          6           0        0.017117    0.706628   -0.112808
      3         17           0       -2.134982   -0.888149   -0.647751
      4          1           0        0.911998    0.825895    0.514573
      5          6           0        0.341557   -1.796591   -0.050656
      6          1           0       -0.092533   -2.742996    0.282060
      7          1           0        1.312145   -1.627229    0.421175
      8          1           0        0.511227   -1.849659   -1.125919
      9          6           0       -0.952085   -0.660119    1.773139
     10          1           0       -0.037772   -0.513463    2.356216
     11          1           0       -1.660762    0.133902    2.014545
     12          1           0       -1.395374   -1.619232    2.050556
     13          6           0       -0.921619    1.796109    0.216136
     14          7           0       -1.667311    2.660314    0.493115
     15          7           0        0.477093    0.838464   -1.478353
     16          1           0       -0.105222    0.299863   -2.107201
     17          1           0        1.439077    0.507434   -1.497004
     18         17           0        3.316631    0.049348    0.132798
 ---------------------------------------------------------------------

 SCF Done:  E(RHF) =  -1223.08033446     A.U. after    2 cycles

 The electronic state is 1-A.
 Alpha  occ. eigenvalues -- -105.44947-105.28975 -15.40013 -15.37359 -11.21438
 Alpha  occ. eigenvalues --  -11.19137 -11.17133 -11.14074 -11.12143 -10.49849
 Alpha  occ. eigenvalues --  -10.33569  -7.66773  -7.66449  -7.66436  -7.50334
 Alpha  occ. eigenvalues --   -7.50308  -7.50302  -1.11947  -1.08827  -1.02436
 Alpha  occ. eigenvalues --   -0.90370  -0.86073  -0.84473  -0.74384  -0.68144
 Alpha  occ. eigenvalues --   -0.62565  -0.56954  -0.56248  -0.52779  -0.50106
 Alpha  occ. eigenvalues --   -0.48376  -0.46889  -0.45686  -0.43955  -0.41419
 Alpha  occ. eigenvalues --   -0.39866  -0.37958  -0.36828  -0.35290  -0.34127
 Alpha  occ. eigenvalues --   -0.32593  -0.21695  -0.21356  -0.21270
 Alpha virt. eigenvalues --    0.11533   0.12467   0.13546   0.14641   0.15326
 Alpha virt. eigenvalues --    0.16042   0.16805   0.17521   0.18269   0.19266
 Alpha virt. eigenvalues --    0.20233   0.22257   0.23090   0.23771   0.24143

 Mulliken charges:
               1
     1  C   -1.524497
     2  C   -0.609041
     3  Cl  -0.177835
     4  H    0.249247
     5  C    0.232562
     6  H    0.195001
     7  H    0.335320
     8  H    0.127198
     9  C    0.141161
    10  H    0.258668
    11  H    0.248452
    12  H    0.160644
    13  C   -1.981988
    14  N    1.007930
    15  N    0.783385
    16  H    0.249785
    17  H    0.281953
    18  Cl  -0.977944
 Sum of Mulliken charges =  -1.00000

 Dipole moment (field-independent basis, Debye):
    X=             -7.5432    Y=             -5.1210    Z=              0.1957  Tot=              9.1194

 Test job not archived.
 1\1\GINC-SE109\SP\RHF\Aug-CC-pVDZ\C5H9Cl2N2(1-)\OHZDE\09-Apr-2025\0\\#
 t hf aug-cc-pvdz iop(5/13=1,5/36=2,99/5=2) pseudo=read geom=check gues
 s=(read,tcheck) scf=(maxcycle=1)\\title\\-1,1\C,0,0.013057,-0.043379,0
 .046397\C,0,-0.575453,-0.367676,-1.345789\Cl,0,1.820407,0.135861,-0.13
 4462\H,0,-1.652084,-0.515023,-1.179061\C,0,-0.530334,1.268848,0.576445
 \H,0,-0.129757,1.458324,1.575671\H,0,-1.621698,1.225895,0.597153\H,0,-
 0.253112,2.098606,-0.073512\C,0,-0.239823,-1.183113,1.017802\H,0,-1.32
 0624,-1.309695,1.133129\H,0,0.192811,-2.118123,0.657865\H,0,0.192732,-

 Normal termination of Gaussian 16 at Wed Apr  9 02:56:27 2025.
