 Gaussian 16, Revision C.01,

 ----------------------------------------------------------------------
 #t hf aug-cc-pvdz symm=none int=(grid=ultrafine) guess=(read,tcheck) s
 table=(opt,rrhf)
 ----------------------------------------------------------------------
 -----
 title
 -----
 Symbolic Z-matrix:
 Charge = -1 Multiplicity = 1

 SCF Done:  E(RHF) =  -528.913805886     A.U. after   17 cycles
 Normal termination of Gaussian 16 at Wed Apr  9 02:36:31 2025.
 Gaussian 16:  ES64L-G16RevC.01  3-Jul-2019

 ----------------------------------------------------------------------
 #t hf aug-cc-pvdz iop(5/13=1,5/36=2,99/5=2) pseudo=read geom=check gue
 ss=(read,tcheck) scf=(maxcycle=1)
 ----------------------------------------------------------------------
 -----
 title
 -----
 Structure from the checkpoint file:  "E2SN2_135_mol2.chk"
 Charge = -1 Multiplicity = 1

                         Standard orientation:
 ---------------------------------------------------------------------
 Center     Atomic      Atomic             Coordinates (Angstroms)
 Number     Number       Type             X           Y           Z
 ---------------------------------------------------------------------
      1          6           0       -0.424925    0.549673    0.176397
      2          6           0        0.815169    0.853101   -0.671116
      3          9           0       -0.057670    0.594406    1.486644
      4          1           0        0.972757    1.928354   -0.545576
      5          1           0        0.562854    0.691183   -1.720615
      6          7           0       -1.531355    1.375611   -0.050221
      7          1           0       -1.933424    1.131878   -0.949301
      8          1           0       -1.134091    2.375584   -0.159652
      9          7           0       -0.836613   -0.913696   -0.095751
     10          8           0       -1.213391   -1.148658   -1.243608
     11          8           0       -0.764414   -1.730520    0.812822
     12          6           0        1.982459    0.059905   -0.309856
     13          7           0        2.929060   -0.578025   -0.032575
     14          1           0       -0.290488    3.593468   -0.481089
 ---------------------------------------------------------------------

 SCF Done:  E(RHF) =  -529.427959037     A.U. after    2 cycles

 The electronic state is 1-A.
 Alpha  occ. eigenvalues --  -26.36786 -20.50003 -20.49229 -15.68149 -15.41723
 Alpha  occ. eigenvalues --  -15.37164 -11.32058 -11.19014 -11.17724  -1.56758
 Alpha  occ. eigenvalues --   -1.50543  -1.40581  -1.12523  -1.11338  -0.97725
 Alpha  occ. eigenvalues --   -0.92165  -0.75165  -0.70744  -0.66179  -0.65704
 Alpha  occ. eigenvalues --   -0.62419  -0.60576  -0.56049  -0.54573  -0.51781
 Alpha  occ. eigenvalues --   -0.51135  -0.50162  -0.47007  -0.40159  -0.39384
 Alpha  occ. eigenvalues --   -0.39289  -0.38246  -0.35286  -0.34291  -0.12511
 Alpha virt. eigenvalues --    0.13546   0.14767   0.15863   0.16235   0.18247
 Alpha virt. eigenvalues --    0.18961   0.20197   0.21141   0.21768   0.22268
 Alpha virt. eigenvalues --    0.23763   0.24060   0.24720   0.26134   0.26246

 Mulliken charges:
               1
     1  C   -0.677667
     2  C    0.464889
     3  F   -0.935665
     4  H    0.264711
     5  H    0.284802
     6  N    0.622843
     7  H    0.397544
     8  H    0.113037
     9  N    2.734726
    10  O   -1.492602
    11  O   -1.328590
    12  C   -1.593950
    13  N    0.853935
    14  H   -0.708012
 Sum of Mulliken charges =  -1.00000

 Dipole moment (field-independent basis, Debye):
    X=             -1.0225    Y=             -7.1659    Z=             -1.0801  Tot=              7.3187

 Test job not archived.
 1\1\GINC-SE083\SP\RHF\Aug-CC-pVDZ\C3H5F1N3O2(1-)\OHZDE\09-Apr-2025\0\\
 #t hf aug-cc-pvdz iop(5/13=1,5/36=2,99/5=2) pseudo=read geom=check gue
 ss=(read,tcheck) scf=(maxcycle=1)\\title\\-1,1\C,0,-0.185929,0.014104,
 -1.45975\C,0,0.003676,0.058245,0.060211\F,0,-0.099157,1.288985,-1.9296
 13\H,0,1.072798,0.247148,0.194584\H,0,-0.193982,-0.937642,0.460798\N,0
 ,0.690828,-0.824911,-2.156218\H,0,0.427559,-1.787056,-1.970812\H,0,1.6
 59608,-0.684318,-1.696392\N,0,-1.634425,-0.441012,-1.742111\O,0,-1.902
 465,-1.589331,-1.389603\O,0,-2.409094,0.339786,-2.278918\C,0,-0.83744,

 Normal termination of Gaussian 16 at Wed Apr  9 02:36:40 2025.
