 Gaussian 16, Revision C.01,

 ----------------------------------------------------------------------
 #t hf aug-cc-pvdz symm=none int=(grid=ultrafine) guess=(read,tcheck) s
 table=(opt,rrhf)
 ----------------------------------------------------------------------
 -----
 title
 -----
 Symbolic Z-matrix:
 Charge = -1 Multiplicity = 1

 SCF Done:  E(RHF) =  -987.885243021     A.U. after   17 cycles
 Normal termination of Gaussian 16 at Wed Apr  9 02:47:24 2025.
 Gaussian 16:  ES64L-G16RevC.01  3-Jul-2019

 ----------------------------------------------------------------------
 #t hf aug-cc-pvdz iop(5/13=1,5/36=2,99/5=2) pseudo=read geom=check gue
 ss=(read,tcheck) scf=(maxcycle=1)
 ----------------------------------------------------------------------
 -----
 title
 -----
 Structure from the checkpoint file:  "E2SN2_25_mol2.chk"
 Charge = -1 Multiplicity = 1

                         Standard orientation:
 ---------------------------------------------------------------------
 Center     Atomic      Atomic             Coordinates (Angstroms)
 Number     Number       Type             X           Y           Z
 ---------------------------------------------------------------------
      1          6           0        0.313580   -0.227774   -0.103561
      2          6           0       -0.994008    0.309374   -0.650033
      3         17           0        1.252085   -1.127571   -1.344414
      4          1           0       -1.681670   -0.516014   -0.878453
      5          1           0       -0.757203    0.845728   -1.576475
      6          7           0        1.205944    0.951920    0.304729
      7          8           0        1.814314    0.871607    1.364987
      8          8           0        1.261743    1.880857   -0.489195
      9          6           0        0.136649   -1.089068    1.059305
     10          7           0       -0.005255   -1.849902    1.942757
     11          7           0       -1.601836    1.079164    0.409839
     12          1           0       -2.613790    0.726394    0.331839
     13          1           0       -1.556122    2.065131    0.182796
     14          9           0       -3.690489   -0.132858   -0.294062
 ---------------------------------------------------------------------

 SCF Done:  E(RHF) =  -988.468516289     A.U. after    2 cycles

 The electronic state is 1-A.
 Alpha  occ. eigenvalues -- -105.50178 -26.09537 -20.51052 -20.50663 -15.70563
 Alpha  occ. eigenvalues --  -15.43226 -15.32977 -11.30866 -11.20057 -11.15278
 Alpha  occ. eigenvalues --  -10.54988  -7.71942  -7.71531  -7.71520  -1.58223
 Alpha  occ. eigenvalues --   -1.42285  -1.16216  -1.14244  -1.10126  -1.02924
 Alpha  occ. eigenvalues --   -0.94763  -0.84631  -0.77700  -0.72491  -0.65960
 Alpha  occ. eigenvalues --   -0.65948  -0.58202  -0.54601  -0.54166  -0.51188
 Alpha  occ. eigenvalues --   -0.47596  -0.43912  -0.42423  -0.41262  -0.40086
 Alpha  occ. eigenvalues --   -0.38793  -0.38284  -0.38116  -0.36159  -0.31362
 Alpha  occ. eigenvalues --   -0.25885  -0.25770  -0.24865
 Alpha virt. eigenvalues --    0.13599   0.13847   0.15016   0.15798   0.17232
 Alpha virt. eigenvalues --    0.18050   0.19379   0.20543   0.22092   0.22350
 Alpha virt. eigenvalues --    0.23010   0.23686   0.24820   0.25279   0.25730

 Mulliken charges:
               1
     1  C   -0.547637
     2  C   -0.254346
     3  Cl   0.024507
     4  H    0.159797
     5  H    0.140785
     6  N    3.077705
     7  O   -1.426608
     8  O   -1.582854
     9  C   -1.480062
    10  N    1.060468
    11  N    0.255201
    12  H    0.385272
    13  H    0.180989
    14  F   -0.993218
 Sum of Mulliken charges =  -1.00000

 Dipole moment (field-independent basis, Debye):
    X=             10.0194    Y=              1.3747    Z=             -3.4241  Tot=             10.6772

 Test job not archived.
 1\1\GINC-SE461\SP\RHF\Aug-CC-pVDZ\C3H4Cl1F1N3O2(1-)\OHZDE\09-Apr-2025\
 0\\#t hf aug-cc-pvdz iop(5/13=1,5/36=2,99/5=2) pseudo=read geom=check
 guess=(read,tcheck) scf=(maxcycle=1)\\title\\-1,1\C,0,-0.571261,0.0188
 94,-1.535037\C,0,0.034383,-0.105618,-0.151333\Cl,0,-0.451853,-1.510725
 ,-2.471065\H,0,1.123764,-0.22777,-0.219511\H,0,-0.398968,-1.001864,0.3
 0801\N,0,-2.074403,0.295816,-1.398768\O,0,-2.570536,1.144191,-2.130084
 \O,0,-2.671951,-0.385472,-0.577101\C,0,0.020242,1.092917,-2.323699\N,0
 ,0.549644,1.899963,-2.992955\N,0,-0.204554,1.149934,0.520871\H,0,0.762

 Normal termination of Gaussian 16 at Wed Apr  9 02:47:31 2025.
