 Gaussian 16, Revision C.01,

 ----------------------------------------------------------------------
 #t hf aug-cc-pvdz symm=none int=(grid=ultrafine) guess=(read,tcheck) s
 table=(opt,rrhf)
 ----------------------------------------------------------------------
 -----
 title
 -----
 Symbolic Z-matrix:
 Charge = -1 Multiplicity = 1

 SCF Done:  E(RHF) =  -971.882864279     A.U. after   17 cycles
 Normal termination of Gaussian 16 at Wed Apr  9 02:44:48 2025.
 Gaussian 16:  ES64L-G16RevC.01  3-Jul-2019

 ----------------------------------------------------------------------
 #t hf aug-cc-pvdz iop(5/13=1,5/36=2,99/5=2) pseudo=read geom=check gue
 ss=(read,tcheck) scf=(maxcycle=1)
 ----------------------------------------------------------------------
 -----
 title
 -----
 Structure from the checkpoint file:  "E2SN2_229_mol2.chk"
 Charge = -1 Multiplicity = 1

                         Standard orientation:
 ---------------------------------------------------------------------
 Center     Atomic      Atomic             Coordinates (Angstroms)
 Number     Number       Type             X           Y           Z
 ---------------------------------------------------------------------
      1          6           0        0.081345    0.128886   -0.032483
      2          6           0        0.878744   -0.116567   -1.300060
      3         17           0        0.234389    1.926219    0.381769
      4          1           0        0.476738   -1.043572   -1.697965
      5          1           0        0.685706    0.708835   -1.989111
      6          7           0       -1.410712   -0.043668   -0.249728
      7          8           0       -1.811488    0.043560   -1.403932
      8          8           0       -2.109065   -0.136854    0.747370
      9          6           0        0.512517   -0.619062    1.142086
     10          7           0        1.031948   -0.857458    2.174019
     11          6           0        2.363699   -0.266022   -1.003028
     12          1           0        2.522827   -1.168570   -0.411691
     13          1           0        2.761166    0.589048   -0.450110
     14          1           0        2.924678   -0.360333   -1.937519
     15          9           0       -0.261977   -2.131145   -0.117813
 ---------------------------------------------------------------------

 SCF Done:  E(RHF) =  -972.452185988     A.U. after    2 cycles

 The electronic state is 1-A.
 Alpha  occ. eigenvalues -- -105.45934 -26.11829 -20.45978 -20.45949 -15.66518
 Alpha  occ. eigenvalues --  -15.36668 -11.27925 -11.16521 -11.12481 -11.11756
 Alpha  occ. eigenvalues --  -10.50742  -7.67677  -7.67308  -7.67296  -1.53713
 Alpha  occ. eigenvalues --   -1.37668  -1.19220  -1.08796  -1.04575  -0.92335
 Alpha  occ. eigenvalues --   -0.90581  -0.78477  -0.74337  -0.67863  -0.61766
 Alpha  occ. eigenvalues --   -0.61233  -0.54764  -0.52000  -0.47512  -0.45799
 Alpha  occ. eigenvalues --   -0.44065  -0.41480  -0.40026  -0.39131  -0.36201
 Alpha  occ. eigenvalues --   -0.35406  -0.34892  -0.34685  -0.34137  -0.31689
 Alpha  occ. eigenvalues --   -0.28287  -0.27746  -0.25845
 Alpha virt. eigenvalues --    0.11794   0.13618   0.13839   0.16632   0.16779
 Alpha virt. eigenvalues --    0.18009   0.18937   0.20505   0.22075   0.23510
 Alpha virt. eigenvalues --    0.24241   0.24793   0.24891   0.25552   0.26079

 Mulliken charges:
               1
     1  C   -1.313213
     2  C    0.265012
     3  Cl  -0.102389
     4  H    0.435045
     5  H    0.205882
     6  N    3.523353
     7  O   -1.611844
     8  O   -1.588163
     9  C   -1.172222
    10  N    1.004322
    11  C   -0.367560
    12  H    0.278968
    13  H    0.263634
    14  H    0.062350
    15  F   -0.883174
 Sum of Mulliken charges =  -1.00000

 Dipole moment (field-independent basis, Debye):
    X=              2.2500    Y=              5.9107    Z=             -3.9861  Tot=              7.4758

 Test job not archived.
 1\1\GINC-SE080\SP\RHF\Aug-CC-pVDZ\C4H5Cl1F1N2O2(1-)\OHZDE\09-Apr-2025\
 0\\#t hf aug-cc-pvdz iop(5/13=1,5/36=2,99/5=2) pseudo=read geom=check
 guess=(read,tcheck) scf=(maxcycle=1)\\title\\-1,1\C,0,-0.069105,0.0032
 38,-0.020953\C,0,-0.41156,0.083529,-1.497138\Cl,0,1.775037,-0.066742,0
 .119317\H,0,-1.420867,0.483599,-1.519891\H,0,0.284535,0.779457,-1.9709
 3\N,0,-0.417793,1.280877,0.720166\O,0,-0.535299,2.294441,0.04245\O,0,-
 0.437406,1.226705,1.939701\C,0,-0.59645,-1.155141,0.68969\N,0,-0.63340
 8,-2.214888,1.206505\C,0,-0.369413,-1.288729,-2.153484\H,0,-1.158709,-

 Normal termination of Gaussian 16 at Wed Apr  9 02:44:56 2025.
