 Gaussian 16, Revision C.01,

 ----------------------------------------------------------------------
 #t hf aug-cc-pvdz symm=none int=(grid=ultrafine) guess=(read,tcheck) s
 table=(opt,rrhf)
 ----------------------------------------------------------------------
 -----
 title
 -----
 Symbolic Z-matrix:
 Charge = -1 Multiplicity = 1

 SCF Done:  E(RHF) =  -832.223781006     A.U. after   17 cycles
 Normal termination of Gaussian 16 at Wed Apr  9 02:38:15 2025.
 Gaussian 16:  ES64L-G16RevC.01  3-Jul-2019

 ----------------------------------------------------------------------
 #t hf aug-cc-pvdz iop(5/13=1,5/36=2,99/5=2) pseudo=read geom=check gue
 ss=(read,tcheck) scf=(maxcycle=1)
 ----------------------------------------------------------------------
 -----
 title
 -----
 Structure from the checkpoint file:  "E2SN2_149_mol2.chk"
 Charge = -1 Multiplicity = 1

                         Standard orientation:
 ---------------------------------------------------------------------
 Center     Atomic      Atomic             Coordinates (Angstroms)
 Number     Number       Type             X           Y           Z
 ---------------------------------------------------------------------
      1          6           0       -0.596035    0.339306   -0.158034
      2          6           0        0.880885    0.354558   -0.607750
      3         17           0       -0.613572   -0.009016    1.716991
      4          1           0        0.813906    0.415030   -1.709107
      5          7           0       -1.186746    1.536825   -0.497296
      6          1           0       -0.628249    2.136940   -1.215849
      7          1           0       -2.180550    1.487165   -0.667074
      8          6           0       -1.275607   -0.849957   -0.698770
      9          7           0       -1.850781   -1.751420   -1.189469
     10          6           0        1.564280   -0.890849   -0.255434
     11          7           0        2.165965   -1.871061   -0.017433
     12          7           0        1.563080    1.512265   -0.054644
     13          1           0        1.298421    2.279550   -0.694412
     14          1           0        2.563024    1.368559   -0.156930
     15          1           0        0.282396    2.761409   -2.113659
 ---------------------------------------------------------------------

 SCF Done:  E(RHF) =  -832.673454855     A.U. after    2 cycles

 The electronic state is 1-A.
 Alpha  occ. eigenvalues -- -105.43248 -15.42383 -15.41673 -15.37745 -15.37137
 Alpha  occ. eigenvalues --  -11.27607 -11.21199 -11.19215 -11.18535 -10.48081
 Alpha  occ. eigenvalues --   -7.64988  -7.64650  -7.64643  -1.15523  -1.12278
 Alpha  occ. eigenvalues --   -1.11026  -1.06989  -0.95148  -0.88436  -0.78854
 Alpha  occ. eigenvalues --   -0.69062  -0.62172  -0.57952  -0.56579  -0.53752
 Alpha  occ. eigenvalues --   -0.52703  -0.50116  -0.48649  -0.47073  -0.40605
 Alpha  occ. eigenvalues --   -0.40462  -0.39687  -0.38479  -0.34885  -0.33272
 Alpha  occ. eigenvalues --   -0.32585  -0.31191  -0.14707
 Alpha virt. eigenvalues --    0.13738   0.13917   0.14918   0.17428   0.17766
 Alpha virt. eigenvalues --    0.18031   0.18550   0.19358   0.19492   0.22062
 Alpha virt. eigenvalues --    0.22299   0.22899   0.24039   0.24625   0.24711

 Mulliken charges:
               1
     1  C   -1.816780
     2  C    0.283249
     3  Cl  -0.015524
     4  H    0.267873
     5  N    0.990928
     6  H    0.010157
     7  H    0.195838
     8  C   -0.860495
     9  N    0.840849
    10  C   -2.116989
    11  N    1.001346
    12  N    0.391140
    13  H    0.250158
    14  H    0.214173
    15  H   -0.635922
 Sum of Mulliken charges =  -1.00000

 Dipole moment (field-independent basis, Debye):
    X=             -0.4396    Y=             -1.9046    Z=              3.3236  Tot=              3.8558

 Test job not archived.
 1\1\GINC-SE222\SP\RHF\Aug-CC-pVDZ\C4H6Cl1N4(1-)\OHZDE\09-Apr-2025\0\\#
 t hf aug-cc-pvdz iop(5/13=1,5/36=2,99/5=2) pseudo=read geom=check gues
 s=(read,tcheck) scf=(maxcycle=1)\\title\\-1,1\C,0,-0.238108,-0.061308,
 -1.504668\C,0,-0.073671,-0.197633,0.024432\Cl,0,-2.060391,0.390345,-1.
 840303\H,0,0.950693,-0.596107,0.138572\N,0,0.653594,0.877351,-1.975706
 \H,0,1.450794,1.142478,-1.281044\H,0,0.950855,0.739282,-2.930436\C,0,-
 0.125484,-1.383176,-2.14384\N,0,0.042407,-2.419723,-2.674527\C,0,-1.01
 2048,-1.172432,0.582471\N,0,-1.725944,-1.954303,1.090914\N,0,-0.21072,

 Normal termination of Gaussian 16 at Wed Apr  9 02:38:22 2025.
