 Gaussian 16, Revision C.01,

 ----------------------------------------------------------------------
 #t hf aug-cc-pvdz symm=none int=(grid=ultrafine) guess=(read,tcheck) s
 table=(opt,rrhf)
 ----------------------------------------------------------------------
 -----
 title
 -----
 Symbolic Z-matrix:
 Charge = -1 Multiplicity = 1

 SCF Done:  E(RHF) =  -502.376762944     A.U. after   15 cycles
 Normal termination of Gaussian 16 at Wed Apr  9 02:54:31 2025.
 Gaussian 16:  ES64L-G16RevC.01  3-Jul-2019

 ----------------------------------------------------------------------
 #t hf aug-cc-pvdz iop(5/13=1,5/36=2,99/5=2) pseudo=read geom=check gue
 ss=(read,tcheck) scf=(maxcycle=1)
 ----------------------------------------------------------------------
 -----
 title
 -----
 Structure from the checkpoint file:  "E2SN2_338_mol1.chk"
 Charge = -1 Multiplicity = 1

                         Standard orientation:
 ---------------------------------------------------------------------
 Center     Atomic      Atomic             Coordinates (Angstroms)
 Number     Number       Type             X           Y           Z
 ---------------------------------------------------------------------
      1          6           0        0.258509    0.386585    0.004717
      2          1           0       -1.013445   -0.005178    1.622826
      3          9           0       -0.266328    0.211558   -1.713235
      4          9           0        1.058737    0.340549    1.700123
      5          6           0       -1.025371   -0.234774    0.558243
      6          6           0        0.380305    1.890508   -0.036104
      7          1           0       -0.236555    2.287927   -0.838477
      8          1           0        0.059245    2.285715    0.925477
      9          1           0        1.423215    2.169101   -0.191859
     10          6           0        1.396889   -0.444808   -0.346776
     11          7           0        2.308105   -1.113108   -0.670000
     12          6           0       -1.019094   -1.748925    0.373771
     13          1           0       -0.953935   -1.983020   -0.690443
     14          1           0       -0.166758   -2.194178    0.892593
     15          1           0       -1.939758   -2.180417    0.784072
     16          7           0       -2.186496    0.439299   -0.035381
     17          1           0       -3.022308   -0.050274    0.266240
     18          1           0       -2.080061    0.326516   -1.037855
 ---------------------------------------------------------------------

 SCF Done:  E(RHF) =  -502.874786668     A.U. after    2 cycles

 The electronic state is 1-A.
 Alpha  occ. eigenvalues --  -26.18291 -26.15185 -15.34966 -15.34671 -11.22999
 Alpha  occ. eigenvalues --  -11.13753 -11.13152 -11.09252 -11.09173  -1.26970
 Alpha  occ. eigenvalues --   -1.23278  -1.05791  -1.05136  -0.91870  -0.85971
 Alpha  occ. eigenvalues --   -0.76071  -0.70823  -0.58731  -0.51566  -0.50518
 Alpha  occ. eigenvalues --   -0.47878  -0.46273  -0.45865  -0.43855  -0.41919
 Alpha  occ. eigenvalues --   -0.40771  -0.38805  -0.37903  -0.34351  -0.33397
 Alpha  occ. eigenvalues --   -0.33205  -0.32042  -0.31410  -0.29545  -0.28614
 Alpha  occ. eigenvalues --   -0.27718
 Alpha virt. eigenvalues --    0.12099   0.13495   0.14188   0.14639   0.15779
 Alpha virt. eigenvalues --    0.16152   0.16787   0.17462   0.18217   0.20837
 Alpha virt. eigenvalues --    0.22174   0.23456   0.24509   0.25261   0.25792

 Mulliken charges:
               1
     1  C    2.012696
     2  H    0.093258
     3  F   -0.921255
     4  F   -0.881338
     5  C   -1.448994
     6  C   -0.142321
     7  H    0.306721
     8  H    0.292811
     9  H    0.158137
    10  C   -3.406943
    11  N    1.234577
    12  C    0.092374
    13  H    0.339654
    14  H    0.284150
    15  H    0.023548
    16  N    0.549033
    17  H    0.158893
    18  H    0.254999
 Sum of Mulliken charges =  -1.00000

 Dipole moment (field-independent basis, Debye):
    X=             -5.5770    Y=              0.6166    Z=              0.6179  Tot=              5.6449

 Test job not archived.
 1\1\GINC-SE331\SP\RHF\Aug-CC-pVDZ\C5H9F2N2(1-)\OHZDE\09-Apr-2025\0\\#t
  hf aug-cc-pvdz iop(5/13=1,5/36=2,99/5=2) pseudo=read geom=check guess
 =(read,tcheck) scf=(maxcycle=1)\\title\\-1,1\C,0,0.58510086,-0.0167449
 5,-0.05331901\H,0,1.59288036,1.79737492,-0.34136859\F,0,-1.21514125,-0
 .14500767,-0.06454839\F,0,2.43054623,-0.02791174,0.27998817\C,0,0.5699
 4912,1.51246719,-0.09922646\C,0,0.79036811,-0.78140518,-1.33840406\H,0
 ,-0.11556157,-0.74241314,-1.93842967\H,0,1.62415413,-0.33219393,-1.874
 04914\H,0,1.04524846,-1.81723176,-1.11117243\C,0,0.54321991,-0.7242499

 Normal termination of Gaussian 16 at Wed Apr  9 02:54:39 2025.
