 Gaussian 16, Revision C.01,

 ----------------------------------------------------------------------
 #t hf aug-cc-pvdz symm=none int=(grid=ultrafine) guess=(read,tcheck) s
 table=(opt,rrhf)
 ----------------------------------------------------------------------
 -----
 title
 -----
 Symbolic Z-matrix:
 Charge = -1 Multiplicity = 1

 SCF Done:  E(RHF) =  -1404.74958679     A.U. after   16 cycles
 Normal termination of Gaussian 16 at Wed Apr  9 02:39:26 2025.
 Gaussian 16:  ES64L-G16RevC.01  3-Jul-2019

 ----------------------------------------------------------------------
 #t hf aug-cc-pvdz iop(5/13=1,5/36=2,99/5=2) pseudo=read geom=check gue
 ss=(read,tcheck) scf=(maxcycle=1)
 ----------------------------------------------------------------------
 -----
 title
 -----
 Structure from the checkpoint file:  "E2SN2_168_mol2.chk"
 Charge = -1 Multiplicity = 1

                         Standard orientation:
 ---------------------------------------------------------------------
 Center     Atomic      Atomic             Coordinates (Angstroms)
 Number     Number       Type             X           Y           Z
 ---------------------------------------------------------------------
      1          6           0        0.185660   -0.510282   -0.232240
      2          6           0       -0.657833    0.261452    0.745656
      3         17           0       -0.538369   -2.098847   -0.610051
      4          1           0       -0.159784    1.227712    0.893857
      5          1           0        0.356657    0.041339   -1.150443
      6          1           0       -0.818923   -0.274047    1.676051
      7          7           0        1.538083   -0.796933    0.363953
      8          8           0        2.426619   -1.076170   -0.428488
      9          8           0        1.631704   -0.793000    1.588182
     10          7           0       -1.996733    0.554977    0.171498
     11          8           0       -2.915615    0.698437    0.977568
     12          8           0       -2.096347    0.680918   -1.045348
     13         17           0        1.379236    2.458269   -0.388974
 ---------------------------------------------------------------------

 SCF Done:  E(RHF) =  -1405.36958682     A.U. after    2 cycles

 The electronic state is 1-A.
 Alpha  occ. eigenvalues -- -105.49290-105.29083 -20.49569 -20.49557 -20.49553
 Alpha  occ. eigenvalues --  -20.49237 -15.69394 -15.69001 -11.27783 -11.20939
 Alpha  occ. eigenvalues --  -10.54151 -10.33701  -7.71105  -7.70707  -7.70688
 Alpha  occ. eigenvalues --   -7.50471  -7.50435  -7.50424  -1.56868  -1.56492
 Alpha  occ. eigenvalues --   -1.40924  -1.40460  -1.10616  -1.00877  -0.94315
 Alpha  occ. eigenvalues --   -0.81568  -0.74674  -0.74483  -0.69072  -0.67964
 Alpha  occ. eigenvalues --   -0.66191  -0.65156  -0.64000  -0.63396  -0.54513
 Alpha  occ. eigenvalues --   -0.51274  -0.45969  -0.42096  -0.40613  -0.39111
 Alpha  occ. eigenvalues --   -0.38687  -0.37991  -0.37629  -0.34955  -0.34748
 Alpha  occ. eigenvalues --   -0.22016  -0.21541  -0.21461
 Alpha virt. eigenvalues --    0.13381   0.14581   0.15592   0.15966   0.17137
 Alpha virt. eigenvalues --    0.18240   0.20601   0.21753   0.22841   0.23723
 Alpha virt. eigenvalues --    0.24301   0.24994   0.25265   0.26445   0.27641

 Mulliken charges:
               1
     1  C   -0.434107
     2  C   -0.226114
     3  Cl  -0.044043
     4  H    0.298694
     5  H    0.185176
     6  H    0.194222
     7  N    2.941584
     8  O   -1.463094
     9  O   -1.431698
    10  N    2.725979
    11  O   -1.415182
    12  O   -1.359231
    13  Cl  -0.972185
 Sum of Mulliken charges =  -1.00000

 Dipole moment (field-independent basis, Debye):
    X=             -4.1499    Y=             -7.9916    Z=              1.3986  Tot=              9.1128

 Test job not archived.
 1\1\GINC-SE403\SP\RHF\Aug-CC-pVDZ\C2H3Cl2N2O4(1-)\OHZDE\09-Apr-2025\0\
 \#t hf aug-cc-pvdz iop(5/13=1,5/36=2,99/5=2) pseudo=read geom=check gu
 ess=(read,tcheck) scf=(maxcycle=1)\\title\\-1,1\C,0,-0.075741,-0.01551
 6,0.008053\C,0,-0.516008,0.032048,-1.429736\Cl,0,1.69419,0.173165,0.15
 719\H,0,-1.609428,-0.057884,-1.425146\H,0,-0.575589,0.732077,0.614583\
 H,0,-0.035809,-0.725088,-2.041699\N,0,-0.406431,-1.356747,0.606723\O,0
 ,-0.447908,-1.404794,1.827953\O,0,-0.543806,-2.303916,-0.162378\N,0,-0
 .198767,1.351353,-2.035756\O,0,-0.022329,1.363111,-3.253707\O,0,-0.177

 Normal termination of Gaussian 16 at Wed Apr  9 02:39:33 2025.
