 Gaussian 16, Revision C.01,

 ----------------------------------------------------------------------
 #t hf aug-cc-pvdz symm=none int=(grid=ultrafine) guess=(read,tcheck) s
 table=(opt,rrhf)
 ----------------------------------------------------------------------
 -----
 title
 -----
 Symbolic Z-matrix:
 Charge = -1 Multiplicity = 1

 SCF Done:  E(RHF) =  -836.225142808     A.U. after   17 cycles
 Normal termination of Gaussian 16 at Wed Apr  9 02:33:02 2025.
 Gaussian 16:  ES64L-G16RevC.01  3-Jul-2019

 ----------------------------------------------------------------------
 #t hf aug-cc-pvdz iop(5/13=1,5/36=2,99/5=2) pseudo=read geom=check gue
 ss=(read,tcheck) scf=(maxcycle=1)
 ----------------------------------------------------------------------
 -----
 title
 -----
 Structure from the checkpoint file:  "E2SN2_104_mol1.chk"
 Charge = -1 Multiplicity = 1

                         Standard orientation:
 ---------------------------------------------------------------------
 Center     Atomic      Atomic             Coordinates (Angstroms)
 Number     Number       Type             X           Y           Z
 ---------------------------------------------------------------------
      1          6           0       -0.124650   -0.042688    0.201579
      2          6           0       -1.084651   -0.727776   -0.659004
      3         17           0       -0.005244    1.869002   -0.055165
      4          1           0       -1.523773   -3.055349   -0.032429
      5          1           0       -1.029992   -1.956102   -0.374527
      6          1           0       -0.838580   -0.623619   -1.718119
      7          6           0       -0.373154   -0.247388    1.666539
      8          1           0       -1.356291    0.167058    1.881440
      9          1           0       -0.400934   -1.325071    1.859177
     10          1           0        0.391279    0.227777    2.279024
     11          7           0       -2.461341   -0.470407   -0.286589
     12          1           0       -2.882809   -1.397372   -0.157103
     13          1           0       -2.949278    0.007565   -1.031840
     14          7           0        1.264906   -0.497271   -0.197813
     15          8           0        1.573141   -0.406802   -1.383134
     16          8           0        1.995522   -0.960330    0.679174
 ---------------------------------------------------------------------

 SCF Done:  E(RHF) =  -836.688015175     A.U. after    2 cycles

 The electronic state is 1-A.
 Alpha  occ. eigenvalues -- -105.42686 -20.47156 -20.46786 -15.66344 -15.34879
 Alpha  occ. eigenvalues --  -11.24237 -11.11389 -11.10000 -10.47464  -7.64368
 Alpha  occ. eigenvalues --   -7.64049  -7.64041  -1.53963  -1.37798  -1.07163
 Alpha  occ. eigenvalues --   -1.01313  -0.88757  -0.85767  -0.79065  -0.69587
 Alpha  occ. eigenvalues --   -0.62527  -0.61383  -0.58724  -0.56807  -0.49233
 Alpha  occ. eigenvalues --   -0.48787  -0.47245  -0.42954  -0.40335  -0.37966
 Alpha  occ. eigenvalues --   -0.36104  -0.34557  -0.33301  -0.33159  -0.31881
 Alpha  occ. eigenvalues --   -0.30049  -0.10350
 Alpha virt. eigenvalues --    0.13252   0.13580   0.14898   0.15757   0.16373
 Alpha virt. eigenvalues --    0.16681   0.17827   0.18776   0.20732   0.21773
 Alpha virt. eigenvalues --    0.22638   0.24256   0.24764   0.26021   0.26539

 Mulliken charges:
               1
     1  C   -1.122923
     2  C   -1.300692
     3  Cl  -0.234073
     4  H   -0.653444
     5  H    0.511650
     6  H   -0.008032
     7  C   -0.019016
     8  H    0.323968
     9  H    0.366211
    10  H    0.181974
    11  N    0.478587
    12  H    0.248247
    13  H    0.182811
    14  N    3.011578
    15  O   -1.547201
    16  O   -1.419647
 Sum of Mulliken charges =  -1.00000

 Dipole moment (field-independent basis, Debye):
    X=              1.7384    Y=              7.2351    Z=              0.4439  Tot=              7.4542

 Test job not archived.
 1\1\GINC-SE424\SP\RHF\Aug-CC-pVDZ\C3H8Cl1N2O2(1-)\OHZDE\09-Apr-2025\0\
 \#t hf aug-cc-pvdz iop(5/13=1,5/36=2,99/5=2) pseudo=read geom=check gu
 ess=(read,tcheck) scf=(maxcycle=1)\\title\\-1,1\C,0,-0.16379096,-0.067
 29469,-0.48017231\C,0,-0.17166734,-0.02138115,0.9790675\Cl,0,1.5880034
 ,-0.04738305,-1.29598825\H,0,-2.35587129,-0.47198203,1.9935777\H,0,-1.
 37921395,-0.02964148,1.34575825\H,0,0.28408022,0.89253242,1.36659785\C
 ,0,-0.87100436,-1.26060281,-1.05081113\H,0,-0.34139492,-2.14221139,-0.
 69474231\H,0,-1.88802995,-1.27901512,-0.64510012\H,0,-0.89714654,-1.23

 Normal termination of Gaussian 16 at Wed Apr  9 02:33:09 2025.
