 Gaussian 16, Revision C.01,

 ----------------------------------------------------------------------
 #t hf aug-cc-pvdz symm=none int=(grid=ultrafine) guess=(read,tcheck) s
 table=(opt,rrhf)
 ----------------------------------------------------------------------
 -----
 title
 -----
 Symbolic Z-matrix:
 Charge = -1 Multiplicity = 1

 SCF Done:  E(RHF) =  -836.223852924     A.U. after   17 cycles
 Normal termination of Gaussian 16 at Wed Apr  9 02:43:11 2025.
 Gaussian 16:  ES64L-G16RevC.01  3-Jul-2019

 ----------------------------------------------------------------------
 #t hf aug-cc-pvdz iop(5/13=1,5/36=2,99/5=2) pseudo=read geom=check gue
 ss=(read,tcheck) scf=(maxcycle=1)
 ----------------------------------------------------------------------
 -----
 title
 -----
 Structure from the checkpoint file:  "E2SN2_220_mol1.chk"
 Charge = -1 Multiplicity = 1

                         Standard orientation:
 ---------------------------------------------------------------------
 Center     Atomic      Atomic             Coordinates (Angstroms)
 Number     Number       Type             X           Y           Z
 ---------------------------------------------------------------------
      1          6           0       -0.119014   -0.009605    0.549301
      2          1           0        0.884179   -1.778696    0.070368
      3         17           0       -0.069855    1.782326   -0.175716
      4          1           0       -0.346957   -1.804779    1.916156
      5          6           0        1.131136   -0.721301    0.044726
      6          1           0       -0.197843    0.173528    1.605297
      7          7           0       -1.415025   -0.562698    0.074596
      8          8           0       -1.403027   -1.328843   -0.888103
      9          8           0       -2.429576   -0.100330    0.596445
     10          6           0        2.253626   -0.452671    1.042322
     11          1           0        2.457637    0.620895    1.114003
     12          1           0        1.958530   -0.838992    2.020799
     13          1           0        3.170976   -0.955088    0.717419
     14          7           0        1.457627   -0.382179   -1.343004
     15          1           0        2.104357   -1.083662   -1.683698
     16          1           0        1.924762    0.516237   -1.379143
 ---------------------------------------------------------------------

 SCF Done:  E(RHF) =  -836.683582642     A.U. after    2 cycles

 The electronic state is 1-A.
 Alpha  occ. eigenvalues -- -105.42145 -20.43987 -20.43572 -15.64216 -15.36712
 Alpha  occ. eigenvalues --  -11.22856 -11.14742 -11.10688 -10.46924  -7.63829
 Alpha  occ. eigenvalues --   -7.63521  -7.63502  -1.50929  -1.34791  -1.08137
 Alpha  occ. eigenvalues --   -0.99767  -0.88391  -0.87687  -0.75419  -0.68480
 Alpha  occ. eigenvalues --   -0.62991  -0.60540  -0.59122  -0.57092  -0.50668
 Alpha  occ. eigenvalues --   -0.48726  -0.45704  -0.43176  -0.40530  -0.36666
 Alpha  occ. eigenvalues --   -0.35620  -0.33563  -0.32704  -0.32363  -0.30632
 Alpha  occ. eigenvalues --   -0.29309  -0.09571
 Alpha virt. eigenvalues --    0.11719   0.13089   0.13539   0.15273   0.16379
 Alpha virt. eigenvalues --    0.16705   0.17594   0.18954   0.20640   0.21997
 Alpha virt. eigenvalues --    0.22856   0.24170   0.25241   0.26152   0.26380

 Mulliken charges:
               1
     1  C   -0.603347
     2  H    0.278214
     3  Cl  -0.253982
     4  H   -0.616764
     5  C   -1.320956
     6  H   -0.059679
     7  N    3.080948
     8  O   -1.428201
     9  O   -1.505818
    10  C   -0.085350
    11  H    0.230510
    12  H    0.217302
    13  H    0.087559
    14  N    0.568759
    15  H    0.201110
    16  H    0.209695
 Sum of Mulliken charges =  -1.00000

 Dipole moment (field-independent basis, Debye):
    X=              5.7246    Y=              4.5001    Z=             -4.2073  Tot=              8.4097

 Test job not archived.
 1\1\GINC-SE073\SP\RHF\Aug-CC-pVDZ\C3H8Cl1N2O2(1-)\OHZDE\09-Apr-2025\0\
 \#t hf aug-cc-pvdz iop(5/13=1,5/36=2,99/5=2) pseudo=read geom=check gu
 ess=(read,tcheck) scf=(maxcycle=1)\\title\\-1,1\C,0,0.22530015,-0.0219
 017,-0.14105939\H,0,1.51091316,1.5982537,-0.43728488\Cl,0,-1.66682864,
 -0.28683862,-0.4389561\H,0,2.34944515,-0.1490814,0.64298927\C,0,0.4662
 2259,1.4832387,-0.16319887\H,0,0.38497737,-0.53988663,0.78688201\N,0,0
 .88053319,-0.79853613,-1.22660537\O,0,1.30525877,-0.18595821,-2.205516
 04\O,0,0.82545545,-2.02454412,-1.13019435\C,0,0.26817692,2.00669136,1.

 Normal termination of Gaussian 16 at Wed Apr  9 02:43:28 2025.
