 Gaussian 16, Revision C.01,

 ----------------------------------------------------------------------
 #t hf aug-cc-pvdz symm=none int=(grid=ultrafine) guess=(read,tcheck) s
 table=(opt,rrhf)
 ----------------------------------------------------------------------
 -----
 title
 -----
 Symbolic Z-matrix:
 Charge = -1 Multiplicity = 1

 SCF Done:  E(RHF) =  -463.392175122     A.U. after   14 cycles
 Normal termination of Gaussian 16 at Wed Apr  9 02:46:58 2025.
 Gaussian 16:  ES64L-G16RevC.01  3-Jul-2019

 ----------------------------------------------------------------------
 #t hf aug-cc-pvdz iop(5/13=1,5/36=2,99/5=2) pseudo=read geom=check gue
 ss=(read,tcheck) scf=(maxcycle=1)
 ----------------------------------------------------------------------
 -----
 title
 -----
 Structure from the checkpoint file:  "E2SN2_258_mol2.chk"
 Charge = -1 Multiplicity = 1

                         Standard orientation:
 ---------------------------------------------------------------------
 Center     Atomic      Atomic             Coordinates (Angstroms)
 Number     Number       Type             X           Y           Z
 ---------------------------------------------------------------------
      1          6           0        0.464434   -0.445827    0.128610
      2          6           0       -0.418234    0.275124   -0.895850
      3          9           0        0.664482   -1.776194   -0.295259
      4          1           0        0.075309    0.221262   -1.877467
      5          1           0       -0.130275   -0.440588    1.066233
      6          6           0        1.795162    0.155331    0.270830
      7          7           0        2.856272    0.651313    0.366852
      8          6           0       -0.615424    1.717474   -0.449362
      9          1           0       -1.085235    1.660979    0.536142
     10          1           0        0.324442    2.274864   -0.397626
     11          1           0       -1.290310    2.216263   -1.148703
     12          7           0       -1.727592   -0.366518   -0.962496
     13          1           0       -2.036680   -0.340493    0.030288
     14          1           0       -1.575659   -1.344789   -1.189350
     15          9           0       -1.724257   -0.051991    1.720217
 ---------------------------------------------------------------------

 SCF Done:  E(RHF) =  -463.848167163     A.U. after    2 cycles

 The electronic state is 1-A.
 Alpha  occ. eigenvalues --  -26.32821 -26.09921 -15.40200 -15.32564 -11.20238
 Alpha  occ. eigenvalues --  -11.17060 -11.13570 -11.08430  -1.44577  -1.16427
 Alpha  occ. eigenvalues --   -1.10484  -1.04574  -0.90477  -0.82587  -0.69345
 Alpha  occ. eigenvalues --   -0.62152  -0.57335  -0.55409  -0.53418  -0.50182
 Alpha  occ. eigenvalues --   -0.46824  -0.45405  -0.42351  -0.40163  -0.39608
 Alpha  occ. eigenvalues --   -0.38254  -0.37306  -0.35913  -0.29795  -0.26083
 Alpha  occ. eigenvalues --   -0.25910  -0.24844
 Alpha virt. eigenvalues --    0.13220   0.13889   0.14823   0.15605   0.17127
 Alpha virt. eigenvalues --    0.17896   0.19016   0.19702   0.21448   0.23332
 Alpha virt. eigenvalues --    0.24495   0.25310   0.25807   0.26008   0.26247

 Mulliken charges:
               1
     1  C    2.403435
     2  C   -2.198117
     3  F   -0.941860
     4  H   -0.053694
     5  H    0.243422
     6  C   -1.948741
     7  N    0.871695
     8  C   -0.035999
     9  H    0.231110
    10  H    0.179864
    11  H    0.146636
    12  N    0.670758
    13  H    0.221168
    14  H    0.225564
    15  F   -1.015241
 Sum of Mulliken charges =  -1.00000

 Dipole moment (field-independent basis, Debye):
    X=              2.1196    Y=             -0.4901    Z=             -4.3969  Tot=              4.9056

 Test job not archived.
 1\1\GINC-SE435\SP\RHF\Aug-CC-pVDZ\C4H7F2N2(1-)\OHZDE\09-Apr-2025\0\\#t
  hf aug-cc-pvdz iop(5/13=1,5/36=2,99/5=2) pseudo=read geom=check guess
 =(read,tcheck) scf=(maxcycle=1)\\title\\-1,1\C,0,-0.248567,0.105152,0.
 068765\C,0,-0.304146,0.397339,-1.434541\F,0,0.589841,-1.007743,0.28808
 \H,0,0.72141,0.572588,-1.791724\H,0,-1.292012,-0.156465,0.343761\C,0,0
 .308147,1.21278,0.853421\N,0,0.759257,2.11129,1.461987\C,0,-1.191382,1
 .612472,-1.668791\H,0,-2.170559,1.347374,-1.261278\H,0,-0.804673,2.515
 669,-1.187751\H,0,-1.277215,1.787192,-2.743707\N,0,-0.888405,-0.738942

 Normal termination of Gaussian 16 at Wed Apr  9 02:47:04 2025.
