 Gaussian 16, Revision C.01,

 ----------------------------------------------------------------------
 #t hf aug-cc-pvdz symm=none int=(grid=ultrafine) guess=(read,tcheck) s
 table=(opt,rrhf)
 ----------------------------------------------------------------------
 -----
 title
 -----
 Symbolic Z-matrix:
 Charge = -1 Multiplicity = 1

 SCF Done:  E(RHF) =  -567.932148139     A.U. after   18 cycles
 Normal termination of Gaussian 16 at Wed Apr  9 02:59:06 2025.
 Gaussian 16:  ES64L-G16RevC.01  3-Jul-2019

 ----------------------------------------------------------------------
 #t hf aug-cc-pvdz iop(5/13=1,5/36=2,99/5=2) pseudo=read geom=check gue
 ss=(read,tcheck) scf=(maxcycle=1)
 ----------------------------------------------------------------------
 -----
 title
 -----
 Structure from the checkpoint file:  "E2SN2_390_mol2.chk"
 Charge = -1 Multiplicity = 1

                         Standard orientation:
 ---------------------------------------------------------------------
 Center     Atomic      Atomic             Coordinates (Angstroms)
 Number     Number       Type             X           Y           Z
 ---------------------------------------------------------------------
      1          6           0        0.711575   -0.448919    0.189234
      2          6           0       -0.320796    0.335036   -0.638649
      3          9           0        0.451121   -0.207147    1.569002
      4          1           0       -0.288338   -0.119959   -1.643894
      5          7           0        0.628809   -1.799815   -0.128381
      6          1           0        1.453987   -2.294923    0.193971
      7          1           0        0.570215   -1.882179   -1.239535
      8          6           0        2.065025    0.157898    0.000391
      9          7           0        3.154526    0.571923   -0.156186
     10          6           0       -0.106803    1.833286   -0.644473
     11          1           0        0.790981    2.064564   -1.220205
     12          1           0       -0.955776    2.333328   -1.114646
     13          1           0        0.001878    2.219168    0.369210
     14          7           0       -1.672016    0.017493   -0.074026
     15          8           0       -2.233412   -0.999748   -0.469748
     16          8           0       -2.146622    0.807311    0.746887
     17          1           0        0.533989   -1.707190   -2.611906
 ---------------------------------------------------------------------

 SCF Done:  E(RHF) =  -568.487437695     A.U. after    2 cycles

 The electronic state is 1-A.
 Alpha  occ. eigenvalues --  -26.34541 -20.47258 -20.46782 -15.66471 -15.42125
 Alpha  occ. eigenvalues --  -15.35591 -11.29028 -11.19398 -11.18580 -11.14127
 Alpha  occ. eigenvalues --   -1.54023  -1.46686  -1.37835  -1.12741  -1.09535
 Alpha  occ. eigenvalues --   -1.02084  -0.87746  -0.83898  -0.73824  -0.67061
 Alpha  occ. eigenvalues --   -0.65801  -0.63167  -0.61721  -0.58602  -0.56075
 Alpha  occ. eigenvalues --   -0.52450  -0.51519  -0.48812  -0.48214  -0.47019
 Alpha  occ. eigenvalues --   -0.43845  -0.42254  -0.40133  -0.39305  -0.36883
 Alpha  occ. eigenvalues --   -0.36433  -0.33494  -0.32079  -0.12663
 Alpha virt. eigenvalues --    0.12343   0.13805   0.14260   0.14816   0.17115
 Alpha virt. eigenvalues --    0.17539   0.18423   0.19585   0.20345   0.21374
 Alpha virt. eigenvalues --    0.22109   0.23061   0.23456   0.24011   0.24163

 Mulliken charges:
               1
     1  C   -0.027465
     2  C   -0.761428
     3  F   -1.006020
     4  H    0.250335
     5  N    0.719188
     6  H    0.261015
     7  H    0.166159
     8  C   -1.431541
     9  N    0.893880
    10  C   -0.243464
    11  H    0.281691
    12  H    0.158710
    13  H    0.312090
    14  N    2.975189
    15  O   -1.447350
    16  O   -1.486857
    17  H   -0.614134
 Sum of Mulliken charges =  -1.00000

 Dipole moment (field-independent basis, Debye):
    X=             -1.6289    Y=              5.2995    Z=              5.3358  Tot=              7.6948

 Test job not archived.
 1\1\GINC-SE159\SP\RHF\Aug-CC-pVDZ\C4H7F1N3O2(1-)\OHZDE\09-Apr-2025\0\\
 #t hf aug-cc-pvdz iop(5/13=1,5/36=2,99/5=2) pseudo=read geom=check gue
 ss=(read,tcheck) scf=(maxcycle=1)\\title\\-1,1\C,0,0.003461,0.020558,0
 .017007\C,0,-0.501487,0.087708,-1.434297\F,0,1.402022,0.292717,0.01420
 8\H,0,-1.597627,0.189791,-1.352765\N,0,-0.703518,0.930476,0.794747\H,0
 ,-0.583313,0.727637,1.781848\H,0,-1.78379,0.828742,0.534859\C,0,-0.053
 802,-1.393785,0.498744\N,0,-0.126742,-2.483115,0.935763\C,0,-0.063844,
 -1.073491,-2.300706\H,0,-0.582506,-1.977396,-1.976794\H,0,-0.32224,-0.

 Normal termination of Gaussian 16 at Wed Apr  9 02:59:15 2025.
