 Gaussian 16, Revision C.01,

 ----------------------------------------------------------------------
 #t hf aug-cc-pvdz symm=none int=(grid=ultrafine) guess=(read,tcheck) s
 table=(opt,rrhf)
 ----------------------------------------------------------------------
 -----
 title
 -----
 Symbolic Z-matrix:
 Charge = -1 Multiplicity = 1

 SCF Done:  E(RHF) =  -971.971652775     A.U. after   16 cycles
 Normal termination of Gaussian 16 at Wed Apr  9 02:47:43 2025.
 Gaussian 16:  ES64L-G16RevC.01  3-Jul-2019

 ----------------------------------------------------------------------
 #t hf aug-cc-pvdz iop(5/13=1,5/36=2,99/5=2) pseudo=read geom=check gue
 ss=(read,tcheck) scf=(maxcycle=1)
 ----------------------------------------------------------------------
 -----
 title
 -----
 Structure from the checkpoint file:  "E2SN2_256_mol2.chk"
 Charge = -1 Multiplicity = 1

                         Standard orientation:
 ---------------------------------------------------------------------
 Center     Atomic      Atomic             Coordinates (Angstroms)
 Number     Number       Type             X           Y           Z
 ---------------------------------------------------------------------
      1          6           0       -0.132103    0.632534    0.621833
      2          6           0        0.148210   -0.628111   -0.186651
      3          9           0        0.357638    0.519398    1.917754
      4          1           0       -0.388221   -0.522263   -1.129766
      5          1           0       -1.225140    0.728335    0.643464
      6          6           0        0.469185    1.828970    0.015678
      7          7           0        0.953191    2.792778   -0.447761
      8          6           0       -0.280639   -1.877589    0.553202
      9          1           0       -1.359920   -1.811741    0.695581
     10          1           0       -0.059288   -2.761151   -0.049924
     11          1           0        0.235885   -1.955136    1.508201
     12          7           0        1.606114   -0.694915   -0.528652
     13          8           0        2.388271   -1.008011    0.368808
     14          8           0        1.932321   -0.414190   -1.682948
     15         17           0       -3.184109   -0.082052   -0.447277
 ---------------------------------------------------------------------

 SCF Done:  E(RHF) =  -972.543205774     A.U. after    2 cycles

 The electronic state is 1-A.
 Alpha  occ. eigenvalues -- -105.29649 -26.37379 -20.49628 -20.49407 -15.68530
 Alpha  occ. eigenvalues --  -15.43379 -11.27143 -11.21699 -11.19747 -11.14076
 Alpha  occ. eigenvalues --  -10.34241  -7.51007  -7.50976  -7.50971  -1.56324
 Alpha  occ. eigenvalues --   -1.49779  -1.40239  -1.13349  -1.06491  -0.91534
 Alpha  occ. eigenvalues --   -0.88076  -0.75045  -0.74831  -0.69250  -0.66673
 Alpha  occ. eigenvalues --   -0.65562  -0.63504  -0.60551  -0.57586  -0.52867
 Alpha  occ. eigenvalues --   -0.49999  -0.48072  -0.47368  -0.45561  -0.43885
 Alpha  occ. eigenvalues --   -0.40859  -0.40293  -0.38770  -0.37889  -0.35067
 Alpha  occ. eigenvalues --   -0.22353  -0.22005  -0.21951
 Alpha virt. eigenvalues --    0.12370   0.13647   0.15541   0.15637   0.16134
 Alpha virt. eigenvalues --    0.16800   0.18613   0.21160   0.21320   0.22190
 Alpha virt. eigenvalues --    0.23057   0.23510   0.23973   0.24433   0.25172

 Mulliken charges:
               1
     1  C    2.251115
     2  C   -1.765038
     3  F   -0.840255
     4  H    0.172291
     5  H    0.218767
     6  C   -2.056535
     7  N    0.974998
     8  C    0.124564
     9  H    0.297128
    10  H    0.171104
    11  H    0.289293
    12  N    3.030595
    13  O   -1.472536
    14  O   -1.432901
    15  Cl  -0.962592
 Sum of Mulliken charges =  -1.00000

 Dipole moment (field-independent basis, Debye):
    X=              6.2550    Y=             -3.3480    Z=              2.7880  Tot=              7.6228

 Test job not archived.
 1\1\GINC-SE412\SP\RHF\Aug-CC-pVDZ\C4H5Cl1F1N2O2(1-)\OHZDE\09-Apr-2025\
 0\\#t hf aug-cc-pvdz iop(5/13=1,5/36=2,99/5=2) pseudo=read geom=check
 guess=(read,tcheck) scf=(maxcycle=1)\\title\\-1,1\C,0,-0.139069,0.0162
 48,0.045966\C,0,-0.505919,0.364212,-1.39132\F,0,1.046164,-0.707696,0.1
 02404\H,0,-1.506907,0.795181,-1.364544\H,0,-0.968935,-0.597676,0.41851
 8\C,0,0.022801,1.211973,0.885292\N,0,0.16848,2.156417,1.567031\C,0,-0.
 453345,-0.849697,-2.294731\H,0,-1.198751,-1.555864,-1.927101\H,0,-0.71
 3971,-0.564224,-3.316503\H,0,0.541375,-1.291635,-2.287173\N,0,0.408611

 Normal termination of Gaussian 16 at Wed Apr  9 02:47:50 2025.
