 Gaussian 16, Revision C.01,

 ----------------------------------------------------------------------
 #t hf aug-cc-pvdz symm=none int=(grid=ultrafine) guess=(read,tcheck) s
 table=(opt,rrhf)
 ----------------------------------------------------------------------
 -----
 title
 -----
 Symbolic Z-matrix:
 Charge = -1 Multiplicity = 1

 SCF Done:  E(RHF) =  -852.235983276     A.U. after   17 cycles
 Normal termination of Gaussian 16 at Wed Apr  9 02:42:00 2025.
 Gaussian 16:  ES64L-G16RevC.01  3-Jul-2019

 ----------------------------------------------------------------------
 #t hf aug-cc-pvdz iop(5/13=1,5/36=2,99/5=2) pseudo=read geom=check gue
 ss=(read,tcheck) scf=(maxcycle=1)
 ----------------------------------------------------------------------
 -----
 title
 -----
 Structure from the checkpoint file:  "E2SN2_204_mol1.chk"
 Charge = -1 Multiplicity = 1

                         Standard orientation:
 ---------------------------------------------------------------------
 Center     Atomic      Atomic             Coordinates (Angstroms)
 Number     Number       Type             X           Y           Z
 ---------------------------------------------------------------------
      1          6           0        0.937943   -0.305147    0.697596
      2          1           0       -0.511252   -1.850573    0.601381
      3         17           0        0.920178    1.526256   -0.293200
      4          1           0        1.048346   -1.864903    2.054028
      5          6           0       -0.284109   -0.956957    0.026791
      6          1           0        0.799087    0.070862    1.697449
      7          7           0        2.213992   -0.791380    0.209621
      8          1           0        2.541978   -1.416955    0.932555
      9          1           0        2.839851   -0.003269    0.095227
     10          7           0       -0.132278   -1.283345   -1.365101
     11          1           0        0.782132   -1.726066   -1.412535
     12          1           0       -0.038621   -0.407938   -1.870752
     13          7           0       -1.487111   -0.074923    0.221322
     14          8           0       -2.159236    0.255687   -0.751376
     15          8           0       -1.739486    0.228394    1.386353
 ---------------------------------------------------------------------

 SCF Done:  E(RHF) =  -852.713218496     A.U. after    2 cycles

 The electronic state is 1-A.
 Alpha  occ. eigenvalues -- -105.38288 -20.46251 -20.45749 -15.65328 -15.37394
 Alpha  occ. eigenvalues --  -15.37192 -11.23030 -11.20335 -10.43132  -7.59988
 Alpha  occ. eigenvalues --   -7.59771  -7.59750  -1.53150  -1.37034  -1.11810
 Alpha  occ. eigenvalues --   -1.06423  -0.95008  -0.86730  -0.78957  -0.70388
 Alpha  occ. eigenvalues --   -0.65615  -0.62154  -0.60764  -0.58232  -0.55927
 Alpha  occ. eigenvalues --   -0.54621  -0.51882  -0.47436  -0.36895  -0.36233
 Alpha  occ. eigenvalues --   -0.35292  -0.33156  -0.32440  -0.31749  -0.30026
 Alpha  occ. eigenvalues --   -0.29845  -0.11919
 Alpha virt. eigenvalues --    0.13451   0.14781   0.15462   0.15960   0.16671
 Alpha virt. eigenvalues --    0.17214   0.19158   0.19856   0.21021   0.22715
 Alpha virt. eigenvalues --    0.24645   0.24743   0.25355   0.26524   0.26665

 Mulliken charges:
               1
     1  C   -1.248195
     2  H    0.190750
     3  Cl  -0.494811
     4  H   -0.591941
     5  C   -1.295230
     6  H    0.065475
     7  N    0.431283
     8  H    0.307064
     9  H    0.258576
    10  N    0.679445
    11  H    0.297584
    12  H    0.349526
    13  N    2.984863
    14  O   -1.418252
    15  O   -1.516139
 Sum of Mulliken charges =  -1.00000

 Dipole moment (field-independent basis, Debye):
    X=              0.5226    Y=              2.2433    Z=             -4.0963  Tot=              4.6995

 Test job not archived.
 1\1\GINC-SE123\SP\RHF\Aug-CC-pVDZ\C2H7Cl1N3O2(1-)\OHZDE\09-Apr-2025\0\
 \#t hf aug-cc-pvdz iop(5/13=1,5/36=2,99/5=2) pseudo=read geom=check gu
 ess=(read,tcheck) scf=(maxcycle=1)\\title\\-1,1\C,0,0.56406877,0.00541
 81,0.08219419\H,0,1.77064232,1.71060919,-0.28423142\Cl,0,-1.51476309,-
 0.09991232,0.14046458\H,0,2.58944849,-0.25699263,-0.25531265\C,0,0.727
 43086,1.53074814,-0.03998194\H,0,0.71224032,-0.57148658,-0.81535573\N,
 0,0.83439487,-0.51733264,1.40752404\H,0,1.75198869,-0.93481019,1.33481
 846\H,0,0.13241235,-1.21204045,1.63225849\N,0,0.34663165,2.29417476,1.

 Normal termination of Gaussian 16 at Wed Apr  9 02:42:07 2025.
