 Gaussian 16, Revision C.01,

 ----------------------------------------------------------------------
 #t hf aug-cc-pvdz symm=none int=(grid=ultrafine) guess=(read,tcheck) s
 table=(opt,rrhf)
 ----------------------------------------------------------------------
 -----
 title
 -----
 Symbolic Z-matrix:
 Charge = -1 Multiplicity = 1

 SCF Done:  E(RHF) =  -915.194130098     A.U. after   16 cycles
 Normal termination of Gaussian 16 at Wed Apr  9 03:02:42 2025.
 Gaussian 16:  ES64L-G16RevC.01  3-Jul-2019

 ----------------------------------------------------------------------
 #t hf aug-cc-pvdz iop(5/13=1,5/36=2,99/5=2) pseudo=read geom=check gue
 ss=(read,tcheck) scf=(maxcycle=1)
 ----------------------------------------------------------------------
 -----
 title
 -----
 Structure from the checkpoint file:  "E2SN2_87_mol2.chk"
 Charge = -1 Multiplicity = 1

                         Standard orientation:
 ---------------------------------------------------------------------
 Center     Atomic      Atomic             Coordinates (Angstroms)
 Number     Number       Type             X           Y           Z
 ---------------------------------------------------------------------
      1          6           0       -0.369107   -0.223092   -0.333399
      2          6           0        0.587159    0.574287    0.567657
      3         17           0        0.172640   -1.978301   -0.434324
      4          1           0        0.193243    1.590150    0.423659
      5          6           0       -1.700132   -0.297336    0.310325
      6          7           0       -2.778225   -0.380520    0.772184
      7          7           0       -0.374254    0.368338   -1.621863
      8          1           0       -1.101500   -0.058897   -2.186303
      9          1           0       -0.634974    1.384689   -1.391638
     10          6           0        1.943440    0.503189    0.032337
     11          7           0        3.069930    0.465576   -0.299648
     12          6           0        0.566678    0.160126    2.036734
     13          1           0        1.268011    0.778571    2.601247
     14          1           0       -0.431377    0.312148    2.451983
     15          1           0        0.850039   -0.887670    2.161967
     16          9           0       -0.963190    2.559481   -0.479339
 ---------------------------------------------------------------------

 SCF Done:  E(RHF) =  -915.714803158     A.U. after    2 cycles

 The electronic state is 1-A.
 Alpha  occ. eigenvalues -- -105.45158 -26.12712 -15.40799 -15.39342 -15.36137
 Alpha  occ. eigenvalues --  -11.26547 -11.17816 -11.16806 -11.16007 -11.13664
 Alpha  occ. eigenvalues --  -10.50030  -7.66956  -7.66602  -7.66593  -1.20009
 Alpha  occ. eigenvalues --   -1.13285  -1.10193  -1.08925  -0.98282  -0.94039
 Alpha  occ. eigenvalues --   -0.82005  -0.78539  -0.62291  -0.60941  -0.55921
 Alpha  occ. eigenvalues --   -0.55267  -0.50045  -0.49428  -0.46716  -0.45993
 Alpha  occ. eigenvalues --   -0.43691  -0.43275  -0.39687  -0.38606  -0.36912
 Alpha  occ. eigenvalues --   -0.36580  -0.34872  -0.34400  -0.33995  -0.29190
 Alpha  occ. eigenvalues --   -0.28197  -0.27720
 Alpha virt. eigenvalues --    0.12413   0.13748   0.14131   0.14999   0.16759
 Alpha virt. eigenvalues --    0.18085   0.18586   0.18961   0.19729   0.22000
 Alpha virt. eigenvalues --    0.22795   0.23293   0.24105   0.24538   0.25194

 Mulliken charges:
               1
     1  C   -2.028704
     2  C    0.643824
     3  Cl   0.009570
     4  H    0.273562
     5  C   -1.067264
     6  N    0.927945
     7  N    0.709002
     8  H    0.196626
     9  H    0.443623
    10  C   -1.893271
    11  N    1.049493
    12  C    0.050397
    13  H    0.162738
    14  H    0.234208
    15  H    0.295391
    16  F   -1.007141
 Sum of Mulliken charges =  -1.00000

 Dipole moment (field-independent basis, Debye):
    X=              0.8138    Y=             -5.3938    Z=              2.2376  Tot=              5.8959

 Test job not archived.
 1\1\GINC-SE461\SP\RHF\Aug-CC-pVDZ\C5H6Cl1F1N3(1-)\OHZDE\09-Apr-2025\0\
 \#t hf aug-cc-pvdz iop(5/13=1,5/36=2,99/5=2) pseudo=read geom=check gu
 ess=(read,tcheck) scf=(maxcycle=1)\\title\\-1,1\C,0,-0.016545,-0.04097
 8,-1.482951\C,0,0.023901,0.017425,0.052339\Cl,0,-1.726048,-0.404197,-2
 .057498\H,0,1.105317,0.122869,0.217579\C,0,0.265406,1.304851,-2.031373
 \N,0,0.491349,2.349845,-2.520715\N,0,0.877734,-1.050388,-1.920343\H,0,
 0.966651,-1.007789,-2.930436\H,0,1.795668,-0.741447,-1.455691\C,0,-0.4
 26118,-1.256045,0.606303\N,0,-0.814503,-2.227703,1.140764\C,0,-0.75965

 Normal termination of Gaussian 16 at Wed Apr  9 03:02:50 2025.
