 Gaussian 16, Revision C.01,

 ----------------------------------------------------------------------
 #t hf aug-cc-pvdz symm=none int=(grid=ultrafine) guess=(read,tcheck) s
 table=(opt,rrhf)
 ----------------------------------------------------------------------
 -----
 title
 -----
 Symbolic Z-matrix:
 Charge = -1 Multiplicity = 1

 SCF Done:  E(RHF) =  -1238.60559402     A.U. after   15 cycles
 Normal termination of Gaussian 16 at Wed Apr  9 02:51:53 2025.
 Gaussian 16:  ES64L-G16RevC.01  3-Jul-2019

 ----------------------------------------------------------------------
 #t hf aug-cc-pvdz iop(5/13=1,5/36=2,99/5=2) pseudo=read geom=check gue
 ss=(read,tcheck) scf=(maxcycle=1)
 ----------------------------------------------------------------------
 -----
 title
 -----
 Structure from the checkpoint file:  "E2SN2_290_mol2.chk"
 Charge = -1 Multiplicity = 1

                         Standard orientation:
 ---------------------------------------------------------------------
 Center     Atomic      Atomic             Coordinates (Angstroms)
 Number     Number       Type             X           Y           Z
 ---------------------------------------------------------------------
      1          6           0       -0.929176    0.022000   -0.213008
      2          6           0       -0.130080   -0.174888    1.117593
      3         17           0       -2.289630   -1.173917   -0.252765
      4          1           0       -0.894995   -0.284453    1.896852
      5          6           0       -1.564159    1.342153   -0.189977
      6          7           0       -2.056699    2.408867   -0.153934
      7          6           0       -0.083937   -0.149643   -1.462577
      8          1           0       -0.669767    0.086198   -2.353081
      9          1           0        0.256229   -1.182818   -1.514500
     10          1           0        0.801930    0.485696   -1.411922
     11          7           0        0.724992    0.943209    1.462452
     12          1           0        1.567842    0.933221    0.888115
     13          1           0        0.256312    1.837555    1.386257
     14          7           0        0.608182   -1.413527    1.013917
     15          1           0        1.458331   -1.223086    0.478590
     16          1           0        0.923854   -1.650929    1.947472
     17         17           0        3.325457    0.067507   -0.517059
 ---------------------------------------------------------------------

 SCF Done:  E(RHF) =  -1239.09033746     A.U. after    2 cycles

 The electronic state is 1-A.
 Alpha  occ. eigenvalues -- -105.46452-105.29087 -15.42745 -15.36596 -15.36319
 Alpha  occ. eigenvalues --  -11.24030 -11.19763 -11.19726 -11.12957 -10.51293
 Alpha  occ. eigenvalues --  -10.33693  -7.68233  -7.67861  -7.67856  -7.50461
 Alpha  occ. eigenvalues --   -7.50431  -7.50423  -1.14196  -1.11833  -1.03093
 Alpha  occ. eigenvalues --   -1.01374  -0.89775  -0.82058  -0.74784  -0.74344
 Alpha  occ. eigenvalues --   -0.62646  -0.59414  -0.56817  -0.53831  -0.52119
 Alpha  occ. eigenvalues --   -0.51142  -0.50076  -0.44840  -0.44071  -0.42870
 Alpha  occ. eigenvalues --   -0.39922  -0.39297  -0.36634  -0.35881  -0.34048
 Alpha  occ. eigenvalues --   -0.31032  -0.21900  -0.21586  -0.21420
 Alpha virt. eigenvalues --    0.12778   0.12948   0.14307   0.14881   0.15469
 Alpha virt. eigenvalues --    0.16339   0.17435   0.18080   0.19582   0.20058
 Alpha virt. eigenvalues --    0.21563   0.22757   0.22862   0.23836   0.24220

 Mulliken charges:
               1
     1  C   -0.660582
     2  C   -2.487786
     3  Cl   0.007939
     4  H   -0.022036
     5  C   -1.653325
     6  N    1.031174
     7  C    0.391315
     8  H    0.125400
     9  H    0.255972
    10  H    0.339512
    11  N    0.909355
    12  H    0.149065
    13  H    0.272450
    14  N    0.878781
    15  H    0.186027
    16  H    0.254846
    17  Cl  -0.978108
 Sum of Mulliken charges =  -1.00000

 Dipole moment (field-independent basis, Debye):
    X=             -8.0644    Y=             -2.1936    Z=              1.1607  Tot=              8.4376

 Test job not archived.
 1\1\GINC-SE029\SP\RHF\Aug-CC-pVDZ\C4H8Cl2N3(1-)\OHZDE\09-Apr-2025\0\\#
 t hf aug-cc-pvdz iop(5/13=1,5/36=2,99/5=2) pseudo=read geom=check gues
 s=(read,tcheck) scf=(maxcycle=1)\\title\\-1,1\C,0,0.081385,0.005138,-0
 .034764\C,0,-0.523277,-0.462498,-1.399872\Cl,0,1.735402,-0.713101,0.14
 1285\H,0,0.291749,-0.351836,-2.126392\C,0,0.283366,1.455505,-0.081415\
 N,0,0.428298,2.620666,-0.137714\C,0,-0.757436,-0.385453,1.169034\H,0,-
 0.336044,0.042198,2.080822\H,0,-0.769012,-1.471449,1.248657\H,0,-1.788
 966,-0.054805,1.036371\N,0,-1.651995,0.329156,-1.846523\H,0,-2.490062,

 Normal termination of Gaussian 16 at Wed Apr  9 02:52:03 2025.
