 Gaussian 16, Revision C.01,

 ----------------------------------------------------------------------
 #t hf aug-cc-pvdz symm=none int=(grid=ultrafine) guess=(read,tcheck) s
 table=(opt,rrhf)
 ----------------------------------------------------------------------
 -----
 title
 -----
 Symbolic Z-matrix:
 Charge = -1 Multiplicity = 1

 SCF Done:  E(RHF) =  -611.817195182     A.U. after   16 cycles
 Normal termination of Gaussian 16 at Wed Apr  9 02:47:27 2025.
 Gaussian 16:  ES64L-G16RevC.01  3-Jul-2019

 ----------------------------------------------------------------------
 #t hf aug-cc-pvdz iop(5/13=1,5/36=2,99/5=2) pseudo=read geom=check gue
 ss=(read,tcheck) scf=(maxcycle=1)
 ----------------------------------------------------------------------
 -----
 title
 -----
 Structure from the checkpoint file:  "E2SN2_255_mol1.chk"
 Charge = -1 Multiplicity = 1

                         Standard orientation:
 ---------------------------------------------------------------------
 Center     Atomic      Atomic             Coordinates (Angstroms)
 Number     Number       Type             X           Y           Z
 ---------------------------------------------------------------------
      1          6           0        0.812984    0.497752    0.386124
      2          1           0       -0.229934    0.792473   -1.440797
      3          9           0        0.027526   -0.531703    1.634639
      4          9           0        1.613463    1.628307   -0.675160
      5          6           0       -0.481466    0.635540   -0.392765
      6          1           0        1.019318    1.167851    1.200823
      7          6           0        1.768216   -0.553013    0.098607
      8          7           0        2.590150   -1.365070   -0.110563
      9          6           0       -1.298146    1.775111    0.167598
     10          1           0       -1.531191    1.563349    1.210373
     11          1           0       -0.687910    2.676174    0.089534
     12          1           0       -2.228677    1.915930   -0.384265
     13          7           0       -1.270078   -0.646788   -0.403055
     14          8           0       -2.407333   -0.657318    0.059958
     15          8           0       -0.737735   -1.596999   -0.969088
 ---------------------------------------------------------------------

 SCF Done:  E(RHF) =  -612.401973099     A.U. after    2 cycles

 The electronic state is 1-A.
 Alpha  occ. eigenvalues --  -26.20680 -26.18263 -20.45639 -20.45344 -15.65143
 Alpha  occ. eigenvalues --  -15.37460 -11.25429 -11.19190 -11.15523 -11.12573
 Alpha  occ. eigenvalues --   -1.52804  -1.36655  -1.29408  -1.26630  -1.07725
 Alpha  occ. eigenvalues --   -1.02402  -0.86940  -0.85550  -0.71709  -0.65615
 Alpha  occ. eigenvalues --   -0.62839  -0.61415  -0.59429  -0.50940  -0.48095
 Alpha  occ. eigenvalues --   -0.46781  -0.45778  -0.44396  -0.41880  -0.38990
 Alpha  occ. eigenvalues --   -0.37709  -0.36292  -0.35122  -0.34356  -0.34178
 Alpha  occ. eigenvalues --   -0.33742  -0.32571  -0.31108  -0.29270
 Alpha virt. eigenvalues --    0.12252   0.13558   0.14478   0.15424   0.16371
 Alpha virt. eigenvalues --    0.19080   0.19862   0.21587   0.22178   0.23214
 Alpha virt. eigenvalues --    0.24642   0.24956   0.25242   0.26217   0.26812

 Mulliken charges:
               1
     1  C    2.288044
     2  H    0.178106
     3  F   -0.919984
     4  F   -0.881495
     5  C   -0.921695
     6  H   -0.095314
     7  C   -2.336542
     8  N    1.011563
     9  C   -0.073877
    10  H    0.317160
    11  H    0.235875
    12  H    0.167698
    13  N    3.047996
    14  O   -1.496633
    15  O   -1.520901
 Sum of Mulliken charges =  -1.00000

 Dipole moment (field-independent basis, Debye):
    X=             -4.4296    Y=              4.4384    Z=             -0.8320  Tot=              6.3256

 Test job not archived.
 1\1\GINC-SE249\SP\RHF\Aug-CC-pVDZ\C4H5F2N2O2(1-)\OHZDE\09-Apr-2025\0\\
 #t hf aug-cc-pvdz iop(5/13=1,5/36=2,99/5=2) pseudo=read geom=check gue
 ss=(read,tcheck) scf=(maxcycle=1)\\title\\-1,1\C,0,0.51786762,-0.03604
 692,-0.01772577\H,0,1.6529599,1.71734053,-0.40421652\F,0,-1.24312026,0
 .0172843,-0.38048169\F,0,2.17503329,-0.17242155,0.51184584\C,0,0.63590
 14,1.47411671,-0.09974649\H,0,0.21980478,-0.49851338,0.9056515\C,0,0.7
 4546439,-0.88284731,-1.17114234\N,0,0.9473785,-1.61787621,-2.0642976\C
 ,0,0.2844696,2.08899037,1.23367855\H,0,-0.74224634,1.82547382,1.484570

 Normal termination of Gaussian 16 at Wed Apr  9 02:47:35 2025.
