 Gaussian 16, Revision C.01,

 ----------------------------------------------------------------------
 #t hf aug-cc-pvdz symm=none int=(grid=ultrafine) guess=(read,tcheck) s
 table=(opt,rrhf)
 ----------------------------------------------------------------------
 -----
 title
 -----
 Symbolic Z-matrix:
 Charge = -1 Multiplicity = 1

 SCF Done:  E(RHF) =  -1079.68238888     A.U. after   16 cycles
 Normal termination of Gaussian 16 at Wed Apr  9 02:45:32 2025.
 Gaussian 16:  ES64L-G16RevC.01  3-Jul-2019

 ----------------------------------------------------------------------
 #t hf aug-cc-pvdz iop(5/13=1,5/36=2,99/5=2) pseudo=read geom=check gue
 ss=(read,tcheck) scf=(maxcycle=1)
 ----------------------------------------------------------------------
 -----
 title
 -----
 Structure from the checkpoint file:  "E2SN2_228_mol2.chk"
 Charge = -1 Multiplicity = 1

                         Standard orientation:
 ---------------------------------------------------------------------
 Center     Atomic      Atomic             Coordinates (Angstroms)
 Number     Number       Type             X           Y           Z
 ---------------------------------------------------------------------
      1          6           0       -1.096264    0.160143   -0.112057
      2          6           0        0.417360    0.356311   -0.220622
      3          9           0       -1.718155    0.607289   -1.231990
      4          1           0        0.909457   -0.014313    0.687455
      5          7           0       -1.353480   -1.343812   -0.003135
      6          8           0       -1.959172   -1.877886   -0.915098
      7          8           0       -0.915587   -1.856588    1.016329
      8          6           0       -1.702082    0.792520    1.065314
      9          7           0       -2.197476    1.320373    1.990478
     10          6           0        0.661941    1.805640   -0.327442
     11          7           0        0.818747    2.960205   -0.478919
     12          7           0        0.898071   -0.439878   -1.322429
     13          1           0        1.856542   -0.700903   -1.062938
     14          1           0        0.907988    0.094405   -2.181521
     15         17           0        3.408277   -0.654994    0.535409
 ---------------------------------------------------------------------

 SCF Done:  E(RHF) =  -1080.34753700     A.U. after    2 cycles

 The electronic state is 1-A.
 Alpha  occ. eigenvalues -- -105.29682 -26.43890 -20.53220 -20.52791 -15.72872
 Alpha  occ. eigenvalues --  -15.48451 -15.43751 -15.40323 -11.37725 -11.24453
 Alpha  occ. eigenvalues --  -11.24318 -11.20405 -10.34295  -7.51068  -7.51028
 Alpha  occ. eigenvalues --   -7.51012  -1.60980  -1.57090  -1.44831  -1.18042
 Alpha  occ. eigenvalues --   -1.15441  -1.12236  -1.05775  -0.92558  -0.84586
 Alpha  occ. eigenvalues --   -0.76560  -0.75484  -0.73329  -0.70530  -0.67233
 Alpha  occ. eigenvalues --   -0.65456  -0.64328  -0.59320  -0.58853  -0.57161
 Alpha  occ. eigenvalues --   -0.53729  -0.52478  -0.50301  -0.46413  -0.45658
 Alpha  occ. eigenvalues --   -0.42864  -0.42537  -0.41632  -0.40270  -0.38160
 Alpha  occ. eigenvalues --   -0.37199  -0.22730  -0.22129  -0.21945
 Alpha virt. eigenvalues --    0.12541   0.13163   0.14672   0.16484   0.16886
 Alpha virt. eigenvalues --    0.17718   0.18136   0.18373   0.19577   0.20065
 Alpha virt. eigenvalues --    0.21224   0.21821   0.22766   0.22904   0.23826

 Mulliken charges:
               1
     1  C    1.759640
     2  C   -0.682007
     3  F   -0.952754
     4  H    0.219179
     5  N    2.988592
     6  O   -1.384202
     7  O   -1.503293
     8  C   -1.786900
     9  N    0.989047
    10  C   -1.639953
    11  N    0.922004
    12  N    0.429480
    13  H    0.319903
    14  H    0.274686
    15  Cl  -0.953422
 Sum of Mulliken charges =  -1.00000

 Dipole moment (field-independent basis, Debye):
    X=             -9.5741    Y=             -0.1387    Z=             -3.6471  Tot=             10.2462

 Test job not archived.
 1\1\GINC-SE249\SP\RHF\Aug-CC-pVDZ\C4H3Cl1F1N4O2(1-)\OHZDE\09-Apr-2025\
 0\\#t hf aug-cc-pvdz iop(5/13=1,5/36=2,99/5=2) pseudo=read geom=check
 guess=(read,tcheck) scf=(maxcycle=1)\\title\\-1,1\C,0,0.185499,-0.1363
 06,0.086138\C,0,-0.665481,0.254773,-1.12391\F,0,1.504816,-0.115196,-0.
 229922\H,0,-1.729148,0.240113,-0.85461\N,0,-0.052769,0.917037,1.169468
 \O,0,0.892156,1.614448,1.492745\O,0,-1.194063,0.940129,1.606402\C,0,-0
 .154615,-1.441277,0.664489\N,0,-0.402778,-2.497521,1.114752\C,0,-0.432
 388,-0.760422,-2.166423\N,0,-0.17345,-1.547253,-2.999731\N,0,-0.335739

 Normal termination of Gaussian 16 at Wed Apr  9 02:45:42 2025.
