 Gaussian 16, Revision C.01,

 ----------------------------------------------------------------------
 #t hf aug-cc-pvdz symm=none int=(grid=ultrafine) guess=(read,tcheck) s
 table=(opt,rrhf)
 ----------------------------------------------------------------------
 -----
 title
 -----
 Symbolic Z-matrix:
 Charge = -1 Multiplicity = 1

 SCF Done:  E(RHF) =  -1006.26330631     A.U. after   16 cycles
 Normal termination of Gaussian 16 at Wed Apr  9 02:50:47 2025.
 Gaussian 16:  ES64L-G16RevC.01  3-Jul-2019

 ----------------------------------------------------------------------
 #t hf aug-cc-pvdz iop(5/13=1,5/36=2,99/5=2) pseudo=read geom=check gue
 ss=(read,tcheck) scf=(maxcycle=1)
 ----------------------------------------------------------------------
 -----
 title
 -----
 Structure from the checkpoint file:  "E2SN2_28_mol2.chk"
 Charge = -1 Multiplicity = 1

                         Standard orientation:
 ---------------------------------------------------------------------
 Center     Atomic      Atomic             Coordinates (Angstroms)
 Number     Number       Type             X           Y           Z
 ---------------------------------------------------------------------
      1          6           0        0.120450   -0.153094   -0.306545
      2          6           0       -0.613912    0.278142    0.971821
      3         17           0        0.629862    1.348929   -1.230441
      4          1           0       -0.832632   -0.665431    1.481424
      5          7           0        1.475115   -0.797499    0.182714
      6          8           0        2.552962   -0.447743   -0.281398
      7          8           0        1.323014   -1.705835    0.991423
      8          7           0       -0.572230   -1.076586   -1.047327
      9          1           0       -0.296967   -1.105476   -2.017159
     10          1           0       -1.634186   -1.121165   -0.873052
     11          7           0       -1.804299    1.033643    0.624181
     12          1           0       -2.440739    0.372022    0.136738
     13          1           0       -2.259805    1.255921    1.504843
     14          7           0        0.310475    1.034830    1.804975
     15          1           0       -0.026891    1.021137    2.759797
     16          1           0        0.276022    1.995203    1.478043
     17          9           0       -3.044770   -1.062930   -0.464088
 ---------------------------------------------------------------------

 SCF Done:  E(RHF) =  -1006.88260273     A.U. after    2 cycles

 The electronic state is 1-A.
 Alpha  occ. eigenvalues -- -105.42895 -26.13040 -20.45901 -20.45306 -15.64528
 Alpha  occ. eigenvalues --  -15.37596 -15.34775 -15.33669 -11.26322 -11.17465
 Alpha  occ. eigenvalues --  -10.47801  -7.64728  -7.64371  -7.64348  -1.52834
 Alpha  occ. eigenvalues --   -1.36788  -1.20469  -1.13296  -1.08189  -1.00317
 Alpha  occ. eigenvalues --   -0.94523  -0.88252  -0.79138  -0.69173  -0.63950
 Alpha  occ. eigenvalues --   -0.61919  -0.61261  -0.59942  -0.57230  -0.53905
 Alpha  occ. eigenvalues --   -0.51903  -0.50704  -0.46338  -0.43505  -0.38187
 Alpha  occ. eigenvalues --   -0.36705  -0.34823  -0.33995  -0.31922  -0.31705
 Alpha  occ. eigenvalues --   -0.31296  -0.30491  -0.29289  -0.28252  -0.27797
 Alpha virt. eigenvalues --    0.12160   0.14350   0.14539   0.14995   0.16316
 Alpha virt. eigenvalues --    0.18383   0.19173   0.20181   0.20387   0.22260
 Alpha virt. eigenvalues --    0.23141   0.23681   0.25469   0.26581   0.26757

 Mulliken charges:
               1
     1  C   -2.266422
     2  C   -1.740906
     3  Cl   0.132884
     4  H    0.073964
     5  N    3.147151
     6  O   -1.477680
     7  O   -1.529686
     8  N    0.919966
     9  H    0.177515
    10  H    0.350607
    11  N    0.744447
    12  H    0.151098
    13  H    0.174751
    14  N    0.696592
    15  H    0.222013
    16  H    0.314020
    17  F   -1.090314
 Sum of Mulliken charges =  -1.00000

 Dipole moment (field-independent basis, Debye):
    X=              3.6271    Y=              3.4587    Z=              2.0591  Tot=              5.4184

 Test job not archived.
 1\1\GINC-SE455\SP\RHF\Aug-CC-pVDZ\C2H7Cl1F1N4O2(1-)\OHZDE\09-Apr-2025\
 0\\#t hf aug-cc-pvdz iop(5/13=1,5/36=2,99/5=2) pseudo=read geom=check
 guess=(read,tcheck) scf=(maxcycle=1)\\title\\-1,1\C,0,-0.072216,-0.164
 57,-1.418483\C,0,-0.015973,0.258088,0.057209\Cl,0,-1.692049,-0.96477,-
 1.742487\H,0,0.948632,0.766935,0.149272\N,0,-0.122036,1.181272,-2.2406
 62\O,0,-0.973327,1.373773,-3.099574\O,0,0.799468,1.947705,-1.984477\N,
 0,1.019176,-0.892814,-1.818391\H,0,0.849654,-1.459707,-2.635136\H,0,1.
 576484,-1.377464,-1.034406\N,0,-0.132646,-0.912264,0.908866\H,0,0.719,

 Normal termination of Gaussian 16 at Wed Apr  9 02:50:56 2025.
