 Gaussian 16, Revision C.01,

 ----------------------------------------------------------------------
 #t hf aug-cc-pvdz symm=none int=(grid=ultrafine) guess=(read,tcheck) s
 table=(opt,rrhf)
 ----------------------------------------------------------------------
 -----
 title
 -----
 Symbolic Z-matrix:
 Charge = -1 Multiplicity = 1

 SCF Done:  E(RHF) =  -364.429102389     A.U. after   15 cycles
 Normal termination of Gaussian 16 at Wed Apr  9 02:36:41 2025.
 Gaussian 16:  ES64L-G16RevC.01  3-Jul-2019

 ----------------------------------------------------------------------
 #t hf aug-cc-pvdz iop(5/13=1,5/36=2,99/5=2) pseudo=read geom=check gue
 ss=(read,tcheck) scf=(maxcycle=1)
 ----------------------------------------------------------------------
 -----
 title
 -----
 Structure from the checkpoint file:  "E2SN2_146_mol2.chk"
 Charge = -1 Multiplicity = 1

                         Standard orientation:
 ---------------------------------------------------------------------
 Center     Atomic      Atomic             Coordinates (Angstroms)
 Number     Number       Type             X           Y           Z
 ---------------------------------------------------------------------
      1          6           0        0.301103   -0.635359   -0.094834
      2          6           0       -0.803832    0.359514   -0.465225
      3          9           0        0.160047   -1.005909    1.253812
      4          1           0       -0.626427    0.603825   -1.519369
      5          1           0        0.134607   -1.523762   -0.735382
      6          6           0        1.650951   -0.084156   -0.261402
      7          7           0        2.721438    0.374971   -0.417647
      8          6           0       -0.753358    1.623384    0.380859
      9          1           0       -1.576374    2.279370    0.091041
     10          1           0       -0.871751    1.371845    1.438465
     11          1           0        0.193775    2.157563    0.260967
     12          7           0       -2.111698   -0.275377   -0.391833
     13          1           0       -2.207210   -0.661310    0.544016
     14          1           0       -2.042260   -1.091299   -1.027552
     15          1           0       -1.082149   -2.360506   -2.026518
 ---------------------------------------------------------------------

 SCF Done:  E(RHF) =  -364.798715889     A.U. after    2 cycles

 The electronic state is 1-A.
 Alpha  occ. eigenvalues --  -26.34248 -15.41289 -15.34229 -11.22083 -11.18014
 Alpha  occ. eigenvalues --  -11.15049 -11.11712  -1.46156  -1.11488  -1.06292
 Alpha  occ. eigenvalues --   -0.91924  -0.85649  -0.71032  -0.63078  -0.59909
 Alpha  occ. eigenvalues --   -0.56682  -0.54463  -0.51087  -0.49659  -0.46848
 Alpha  occ. eigenvalues --   -0.44784  -0.41889  -0.41391  -0.39355  -0.38662
 Alpha  occ. eigenvalues --   -0.37138  -0.30526  -0.09688
 Alpha virt. eigenvalues --    0.12342   0.13390   0.13921   0.15453   0.16069
 Alpha virt. eigenvalues --    0.17064   0.19228   0.19945   0.20932   0.23318
 Alpha virt. eigenvalues --    0.23753   0.24127   0.24712   0.25078   0.25557

 Mulliken charges:
               1
     1  C    2.294176
     2  C   -2.528223
     3  F   -0.877911
     4  H    0.067696
     5  H    0.234325
     6  C   -1.851219
     7  N    0.855587
     8  C   -0.082335
     9  H    0.142325
    10  H    0.187524
    11  H    0.208405
    12  N    0.756411
    13  H    0.245499
    14  H    0.178508
    15  H   -0.830768
 Sum of Mulliken charges =  -1.00000

 Dipole moment (field-independent basis, Debye):
    X=              1.1794    Y=              7.2545    Z=              7.1625  Tot=             10.2626

 Test job not archived.
 1\1\GINC-SE462\SP\RHF\Aug-CC-pVDZ\C4H8F1N2(1-)\OHZDE\09-Apr-2025\0\\#t
  hf aug-cc-pvdz iop(5/13=1,5/36=2,99/5=2) pseudo=read geom=check guess
 =(read,tcheck) scf=(maxcycle=1)\\title\\-1,1\C,0,-0.112038,-0.104623,-
 1.379947\C,0,0.085789,-0.24739,0.132774\F,0,-1.40549,0.382855,-1.63567
 4\H,0,1.105111,-0.633513,0.252233\H,0,0.6318,0.64611,-1.712195\C,0,0.0
 30665,-1.374725,-2.101152\N,0,0.164912,-2.401289,-2.657296\C,0,-0.9146
 15,-1.20724,0.760192\H,0,-0.742433,-1.247577,1.837408\H,0,-1.934284,-0
 .851048,0.589248\H,0,-0.830609,-2.215027,0.34295\N,0,0.047791,1.055677

 Normal termination of Gaussian 16 at Wed Apr  9 02:36:46 2025.
