 Gaussian 16, Revision C.01,

 ----------------------------------------------------------------------
 #t hf aug-cc-pvdz symm=none int=(grid=ultrafine) guess=(read,tcheck) s
 table=(opt,rrhf)
 ----------------------------------------------------------------------
 -----
 title
 -----
 Symbolic Z-matrix:
 Charge = -1 Multiplicity = 1

 SCF Done:  E(RHF) =  -627.835554414     A.U. after   17 cycles
 Normal termination of Gaussian 16 at Wed Apr  9 02:48:23 2025.
 Gaussian 16:  ES64L-G16RevC.01  3-Jul-2019

 ----------------------------------------------------------------------
 #t hf aug-cc-pvdz iop(5/13=1,5/36=2,99/5=2) pseudo=read geom=check gue
 ss=(read,tcheck) scf=(maxcycle=1)
 ----------------------------------------------------------------------
 -----
 title
 -----
 Structure from the checkpoint file:  "E2SN2_264_mol2.chk"
 Charge = -1 Multiplicity = 1

                         Standard orientation:
 ---------------------------------------------------------------------
 Center     Atomic      Atomic             Coordinates (Angstroms)
 Number     Number       Type             X           Y           Z
 ---------------------------------------------------------------------
      1          6           0        0.012272    0.094204    0.522513
      2          6           0        0.899218   -1.147248    0.722735
      3          9           0       -0.422626    0.514883    1.799763
      4          1           0        0.262841   -2.005474    0.510588
      5          1           0        1.144870   -1.152184    1.790151
      6          6           0        0.708156    1.227743   -0.082842
      7          7           0        1.339437    2.197442   -0.292361
      8          7           0       -1.318678   -0.143528   -0.164310
      9          8           0       -1.808069   -1.262096   -0.071500
     10          8           0       -1.893459    0.852932   -0.581733
     11          7           0        2.105338   -1.240128   -0.073645
     12          1           0        2.712433   -0.464197    0.169747
     13          1           0        1.746569   -1.049275   -1.020345
     14          9           0        0.327621   -0.381578   -1.742708
 ---------------------------------------------------------------------

 SCF Done:  E(RHF) =  -628.432810353     A.U. after    2 cycles

 The electronic state is 1-A.
 Alpha  occ. eigenvalues --  -26.36686 -26.12490 -20.45921 -20.45829 -15.66475
 Alpha  occ. eigenvalues --  -15.39525 -15.34546 -11.30356 -11.17539 -11.15326
 Alpha  occ. eigenvalues --   -1.53929  -1.48515  -1.37483  -1.20036  -1.09912
 Alpha  occ. eigenvalues --   -1.06035  -0.98788  -0.83384  -0.77520  -0.69059
 Alpha  occ. eigenvalues --   -0.64486  -0.62187  -0.59378  -0.56979  -0.56344
 Alpha  occ. eigenvalues --   -0.52014  -0.49977  -0.48030  -0.45429  -0.42242
 Alpha  occ. eigenvalues --   -0.39273  -0.37890  -0.36520  -0.35010  -0.32590
 Alpha  occ. eigenvalues --   -0.31793  -0.29085  -0.28251  -0.27980
 Alpha virt. eigenvalues --    0.13268   0.15063   0.15405   0.18209   0.18734
 Alpha virt. eigenvalues --    0.18979   0.20002   0.21945   0.23066   0.23995
 Alpha virt. eigenvalues --    0.24654   0.25164   0.26310   0.26673   0.27450

 Mulliken charges:
               1
     1  C    1.609519
     2  C   -0.823476
     3  F   -1.048294
     4  H    0.230240
     5  H    0.148933
     6  C   -2.240024
     7  N    1.089133
     8  N    3.371628
     9  O   -1.637359
    10  O   -1.597674
    11  N    0.299508
    12  H    0.276009
    13  H    0.238237
    14  F   -0.916379
 Sum of Mulliken charges =  -1.00000

 Dipole moment (field-independent basis, Debye):
    X=             -0.5981    Y=             -1.2372    Z=              5.4290  Tot=              5.6002

 Test job not archived.
 1\1\GINC-SE114\SP\RHF\Aug-CC-pVDZ\C3H4F2N3O2(1-)\OHZDE\09-Apr-2025\0\\
 #t hf aug-cc-pvdz iop(5/13=1,5/36=2,99/5=2) pseudo=read geom=check gue
 ss=(read,tcheck) scf=(maxcycle=1)\\title\\-1,1\C,0,-0.004326,-0.015761
 ,-0.015062\C,0,-0.313142,-0.380636,-1.477753\F,0,1.392103,-0.136629,0.
 166188\H,0,-0.659154,-1.413358,-1.460572\H,0,0.654564,-0.346836,-1.989
 757\C,0,-0.360731,1.356041,0.340964\N,0,-0.380117,2.517401,0.524262\N,
 0,-0.509865,-0.987741,1.03344\O,0,-0.666065,-2.15316,0.691811\O,0,-0.5
 26248,-0.574934,2.185338\N,0,-1.283703,0.43535,-2.177576\H,0,-0.92719,

 Normal termination of Gaussian 16 at Wed Apr  9 02:48:29 2025.
