 Gaussian 16, Revision C.01,

 ----------------------------------------------------------------------
 #t hf aug-cc-pvdz symm=none int=(grid=ultrafine) guess=(read,tcheck) s
 table=(opt,rrhf)
 ----------------------------------------------------------------------
 -----
 title
 -----
 Symbolic Z-matrix:
 Charge = -1 Multiplicity = 1

 SCF Done:  E(RHF) =  -1236.26672774     A.U. after   15 cycles
 Normal termination of Gaussian 16 at Wed Apr  9 02:51:26 2025.
 Gaussian 16:  ES64L-G16RevC.01  3-Jul-2019

 ----------------------------------------------------------------------
 #t hf aug-cc-pvdz iop(5/13=1,5/36=2,99/5=2) pseudo=read geom=check gue
 ss=(read,tcheck) scf=(maxcycle=1)
 ----------------------------------------------------------------------
 -----
 title
 -----
 Structure from the checkpoint file:  "E2SN2_296_mol2.chk"
 Charge = -1 Multiplicity = 1

                         Standard orientation:
 ---------------------------------------------------------------------
 Center     Atomic      Atomic             Coordinates (Angstroms)
 Number     Number       Type             X           Y           Z
 ---------------------------------------------------------------------
      1          6           0        0.374529   -0.537180   -0.094672
      2          6           0        0.014670    0.872886   -0.566470
      3         17           0        2.006885   -0.985649   -0.808994
      4          1           0       -0.987515    1.106092   -0.179097
      5          1           0       -0.064136    0.834762   -1.655761
      6          6           0        0.597993   -0.564558    1.364477
      7          7           0        0.740648   -0.637734    2.529216
      8          7           0       -0.613126   -1.434915   -0.567983
      9          1           0       -1.551056   -1.012201   -0.472221
     10          1           0       -0.578934   -2.317832   -0.074928
     11          6           0        0.987816    1.881257   -0.169243
     12          7           0        1.761122    2.710695    0.133690
     13         17           0       -3.294468    0.221439   -0.102006
 ---------------------------------------------------------------------

 SCF Done:  E(RHF) =  -1236.73316650     A.U. after    2 cycles

 The electronic state is 1-A.
 Alpha  occ. eigenvalues -- -105.47287-105.30363 -15.43389 -15.42347 -15.40155
 Alpha  occ. eigenvalues --  -11.29749 -11.19986 -11.19574 -11.19270 -10.52164
 Alpha  occ. eigenvalues --  -10.34994  -7.69091  -7.68721  -7.68712  -7.51772
 Alpha  occ. eigenvalues --   -7.51731  -7.51710  -1.16411  -1.12728  -1.12015
 Alpha  occ. eigenvalues --   -1.00018  -0.94242  -0.82060  -0.76073  -0.69098
 Alpha  occ. eigenvalues --   -0.62525  -0.58446  -0.56465  -0.53636  -0.51349
 Alpha  occ. eigenvalues --   -0.50342  -0.48580  -0.41652  -0.41417  -0.39325
 Alpha  occ. eigenvalues --   -0.38986  -0.37644  -0.36606  -0.35812  -0.23316
 Alpha  occ. eigenvalues --   -0.22843  -0.22661
 Alpha virt. eigenvalues --    0.12969   0.13924   0.15774   0.16324   0.17479
 Alpha virt. eigenvalues --    0.18376   0.18686   0.20917   0.21297   0.22198
 Alpha virt. eigenvalues --    0.22823   0.23690   0.24294   0.24815   0.25437

 Mulliken charges:
               1
     1  C   -2.165903
     2  C    1.240531
     3  Cl   0.037640
     4  H    0.302298
     5  H    0.235499
     6  C   -1.056885
     7  N    0.882157
     8  N    0.884880
     9  H    0.165322
    10  H    0.197839
    11  C   -1.701471
    12  N    0.910446
    13  Cl  -0.932355
 Sum of Mulliken charges =  -1.00000

 Dipole moment (field-independent basis, Debye):
    X=              6.3777    Y=             -3.2173    Z=             -3.1856  Tot=              7.8214

 Test job not archived.
 1\1\GINC-SE059\SP\RHF\Aug-CC-pVDZ\C4H4Cl2N3(1-)\OHZDE\09-Apr-2025\0\\#
 t hf aug-cc-pvdz iop(5/13=1,5/36=2,99/5=2) pseudo=read geom=check gues
 s=(read,tcheck) scf=(maxcycle=1)\\title\\-1,1\C,0,0.015397,0.056104,0.
 022439\C,0,-0.565966,0.100347,-1.391929\Cl,0,1.828478,-0.212105,-0.107
 054\H,0,-1.656531,0.204217,-1.298678\H,0,-0.375062,-0.875005,-1.846311
 \C,0,-0.109905,1.369085,0.685902\N,0,-0.230589,2.385119,1.265068\N,0,-
 0.575847,-1.026878,0.717418\H,0,-1.585284,-1.076714,0.502656\H,0,-0.43
 766,-0.946381,1.716537\C,0,0.001712,1.157686,-2.217393\N,0,0.448732,1.

 Normal termination of Gaussian 16 at Wed Apr  9 02:51:32 2025.
