 Gaussian 16, Revision C.01,

 ----------------------------------------------------------------------
 #t hf aug-cc-pvdz symm=none int=(grid=ultrafine) guess=(read,tcheck) s
 table=(opt,rrhf)
 ----------------------------------------------------------------------
 -----
 title
 -----
 Symbolic Z-matrix:
 Charge = -1 Multiplicity = 1

 SCF Done:  E(RHF) =  -974.266658712     A.U. after   17 cycles
 Normal termination of Gaussian 16 at Wed Apr  9 02:56:22 2025.
 Gaussian 16:  ES64L-G16RevC.01  3-Jul-2019

 ----------------------------------------------------------------------
 #t hf aug-cc-pvdz iop(5/13=1,5/36=2,99/5=2) pseudo=read geom=check gue
 ss=(read,tcheck) scf=(maxcycle=1)
 ----------------------------------------------------------------------
 -----
 title
 -----
 Structure from the checkpoint file:  "E2SN2_345_mol2.chk"
 Charge = -1 Multiplicity = 1

                         Standard orientation:
 ---------------------------------------------------------------------
 Center     Atomic      Atomic             Coordinates (Angstroms)
 Number     Number       Type             X           Y           Z
 ---------------------------------------------------------------------
      1          6           0        0.370858    0.716908    0.003204
      2          6           0       -0.161026   -0.579576   -0.627106
      3         17           0       -1.013265    1.915020   -0.022603
      4          1           0       -0.527509   -0.337260   -1.630482
      5          6           0        0.879352    0.578818    1.425954
      6          1           0        1.178243    1.566981    1.787457
      7          1           0        1.767302   -0.062038    1.375047
      8          1           0        0.123551    0.164817    2.089594
      9          6           0        1.478228    1.250433   -0.892777
     10          1           0        2.330216    0.568050   -0.772500
     11          1           0        1.149115    1.309623   -1.934667
     12          1           0        1.763578    2.252507   -0.561792
     13          7           0       -1.486557   -1.012975    0.046229
     14          8           0       -1.475799   -1.330710    1.230451
     15          8           0       -2.480743   -1.069641   -0.682580
     16          7           0        0.756532   -1.648509   -0.569930
     17          1           0        1.725395   -1.402582   -0.207573
     18          1           0        0.837782   -2.096119   -1.470582
     19          9           0        3.137319   -0.942847    0.170784
 ---------------------------------------------------------------------

 SCF Done:  E(RHF) =  -974.856469957     A.U. after    2 cycles

 The electronic state is 1-A.
 Alpha  occ. eigenvalues -- -105.43114 -26.11380 -20.45863 -20.45806 -15.64220
 Alpha  occ. eigenvalues --  -15.34398 -11.20965 -11.19565 -11.10189 -11.09055
 Alpha  occ. eigenvalues --  -10.48019  -7.64942  -7.64621  -7.64607  -1.52552
 Alpha  occ. eigenvalues --   -1.36514  -1.18279  -1.09525  -1.00337  -0.91406
 Alpha  occ. eigenvalues --   -0.87573  -0.82048  -0.75152  -0.67495  -0.62704
 Alpha  occ. eigenvalues --   -0.61423  -0.58765  -0.57580  -0.53024  -0.49474
 Alpha  occ. eigenvalues --   -0.48066  -0.44951  -0.42551  -0.40478  -0.39232
 Alpha  occ. eigenvalues --   -0.38034  -0.36031  -0.35139  -0.33489  -0.32407
 Alpha  occ. eigenvalues --   -0.31598  -0.30683  -0.27409  -0.27203  -0.26736
 Alpha virt. eigenvalues --    0.12814   0.12980   0.13872   0.14999   0.16008
 Alpha virt. eigenvalues --    0.16755   0.17352   0.18304   0.18894   0.19719
 Alpha virt. eigenvalues --    0.20856   0.22579   0.23592   0.24775   0.25556

 Mulliken charges:
               1
     1  C   -1.230327
     2  C   -1.408711
     3  Cl  -0.240585
     4  H    0.013271
     5  C    0.058176
     6  H    0.186142
     7  H    0.225066
     8  H    0.245771
     9  C    0.247288
    10  H    0.231128
    11  H    0.216566
    12  H    0.151714
    13  N    2.996612
    14  O   -1.467831
    15  O   -1.501579
    16  N    0.893107
    17  H    0.208084
    18  H    0.255713
    19  F   -1.079603
 Sum of Mulliken charges =  -1.00000

 Dipole moment (field-independent basis, Debye):
    X=             -3.9939    Y=              3.5684    Z=             -2.2243  Tot=              5.7994

 Test job not archived.
 1\1\GINC-SE120\SP\RHF\Aug-CC-pVDZ\C4H9Cl1F1N2O2(1-)\OHZDE\09-Apr-2025\
 0\\#t hf aug-cc-pvdz iop(5/13=1,5/36=2,99/5=2) pseudo=read geom=check
 guess=(read,tcheck) scf=(maxcycle=1)\\title\\-1,1\C,0,-0.01932,0.00116
 9,-0.042318\C,0,-0.308843,-0.03023,-1.551043\Cl,0,1.802461,-0.009931,0
 .139143\H,0,0.179128,-0.918595,-1.966354\C,0,-0.582841,1.200925,0.6958
 43\H,0,-0.26976,1.145673,1.742463\H,0,-1.674048,1.1074,0.648257\H,0,-0
 .241735,2.139985,0.265885\C,0,-0.565276,-1.282714,0.563713\H,0,-1.6598
 07,-1.197612,0.536201\H,0,-0.212111,-2.160317,0.013767\H,0,-0.23161,-1

 Normal termination of Gaussian 16 at Wed Apr  9 02:56:34 2025.
