 Gaussian 16, Revision C.01,

 ----------------------------------------------------------------------
 #t hf aug-cc-pvdz symm=none int=(grid=ultrafine) guess=(read,tcheck) s
 table=(opt,rrhf)
 ----------------------------------------------------------------------
 -----
 title
 -----
 Symbolic Z-matrix:
 Charge = -1 Multiplicity = 1

 SCF Done:  E(RHF) =  -502.430247073     A.U. after   15 cycles
 Normal termination of Gaussian 16 at Wed Apr  9 02:50:43 2025.
 Gaussian 16:  ES64L-G16RevC.01  3-Jul-2019

 ----------------------------------------------------------------------
 #t hf aug-cc-pvdz iop(5/13=1,5/36=2,99/5=2) pseudo=read geom=check gue
 ss=(read,tcheck) scf=(maxcycle=1)
 ----------------------------------------------------------------------
 -----
 title
 -----
 Structure from the checkpoint file:  "E2SN2_286_mol2.chk"
 Charge = -1 Multiplicity = 1

                         Standard orientation:
 ---------------------------------------------------------------------
 Center     Atomic      Atomic             Coordinates (Angstroms)
 Number     Number       Type             X           Y           Z
 ---------------------------------------------------------------------
      1          6           0       -0.692211    0.349346    0.244503
      2          6           0        0.294944    0.443211   -0.946669
      3          9           0       -1.426830    1.560407    0.298718
      4          1           0       -0.310110    0.854957   -1.769452
      5          6           0       -1.695563   -0.692684   -0.060750
      6          7           0       -2.506434   -1.503022   -0.317476
      7          6           0       -0.039482    0.099820    1.585416
      8          1           0        0.386906    1.048163    1.920626
      9          1           0        0.805307   -0.606551    1.470921
     10          1           0       -0.776766   -0.231156    2.321563
     11          7           0        0.872436   -0.824508   -1.343138
     12          1           0        1.508444   -1.128555   -0.570103
     13          1           0        0.149019   -1.518251   -1.494848
     14          6           0        1.439807    1.390934   -0.606951
     15          1           0        1.081808    2.323144   -0.161068
     16          1           0        2.107602    0.852065    0.071625
     17          1           0        1.986377    1.622594   -1.524550
     18          9           0        2.388432   -1.167902    0.819758
 ---------------------------------------------------------------------

 SCF Done:  E(RHF) =  -502.928417735     A.U. after    2 cycles

 The electronic state is 1-A.
 Alpha  occ. eigenvalues --  -26.33803 -26.09636 -15.40826 -15.32077 -11.23368
 Alpha  occ. eigenvalues --  -11.17483 -11.13930 -11.09269 -11.08443  -1.45661
 Alpha  occ. eigenvalues --   -1.16229  -1.11201  -1.04734  -0.93505  -0.85252
 Alpha  occ. eigenvalues --   -0.79167  -0.68983  -0.61504  -0.56802  -0.56275
 Alpha  occ. eigenvalues --   -0.53607  -0.50873  -0.47838  -0.46014  -0.43922
 Alpha  occ. eigenvalues --   -0.42397  -0.41239  -0.40289  -0.39501  -0.38311
 Alpha  occ. eigenvalues --   -0.36993  -0.36045  -0.28894  -0.25856  -0.25397
 Alpha  occ. eigenvalues --   -0.24599
 Alpha virt. eigenvalues --    0.12853   0.13167   0.13710   0.14748   0.16136
 Alpha virt. eigenvalues --    0.16438   0.18121   0.18180   0.19547   0.20237
 Alpha virt. eigenvalues --    0.21625   0.22985   0.23944   0.24791   0.25271

 Mulliken charges:
               1
     1  C    1.675648
     2  C   -1.733342
     3  F   -1.025165
     4  H   -0.064997
     5  C   -2.400609
     6  N    1.091263
     7  C    0.103642
     8  H    0.233890
     9  H    0.278178
    10  H    0.071541
    11  N    0.822186
    12  H    0.211694
    13  H    0.238965
    14  C    0.133530
    15  H    0.133860
    16  H    0.234601
    17  H    0.052282
    18  F   -1.057169
 Sum of Mulliken charges =  -1.00000

 Dipole moment (field-independent basis, Debye):
    X=             -4.0093    Y=              5.2083    Z=             -0.4098  Tot=              6.5855

 Test job not archived.
 1\1\GINC-SE128\SP\RHF\Aug-CC-pVDZ\C5H9F2N2(1-)\OHZDE\09-Apr-2025\0\\#t
  hf aug-cc-pvdz iop(5/13=1,5/36=2,99/5=2) pseudo=read geom=check guess
 =(read,tcheck) scf=(maxcycle=1)\\title\\-1,1\C,0,0.080509,-0.001228,-0
 .027049\C,0,-0.464655,-0.079198,-1.475805\F,0,1.402096,-0.513741,-0.03
 011\H,0,0.360972,0.300334,-2.097812\C,0,0.22402,1.423049,0.342494\N,0,
 0.361405,2.555332,0.623791\C,0,-0.743425,-0.748593,0.997131\H,0,-0.509
 666,-1.810382,0.889947\H,0,-1.821677,-0.63553,0.772794\H,0,-0.482425,-
 0.434202,2.011075\N,0,-1.659456,0.706511,-1.705824\H,0,-2.434229,0.253

 Normal termination of Gaussian 16 at Wed Apr  9 02:50:52 2025.
