 Gaussian 16, Revision C.01,

 ----------------------------------------------------------------------
 #t hf aug-cc-pvdz symm=none int=(grid=ultrafine) guess=(read,tcheck) s
 table=(opt,rrhf)
 ----------------------------------------------------------------------
 -----
 title
 -----
 Symbolic Z-matrix:
 Charge = -1 Multiplicity = 1

 SCF Done:  E(RHF) =  -891.277565403     A.U. after   17 cycles
 Normal termination of Gaussian 16 at Wed Apr  9 02:36:34 2025.
 Gaussian 16:  ES64L-G16RevC.01  3-Jul-2019

 ----------------------------------------------------------------------
 #t hf aug-cc-pvdz iop(5/13=1,5/36=2,99/5=2) pseudo=read geom=check gue
 ss=(read,tcheck) scf=(maxcycle=1)
 ----------------------------------------------------------------------
 -----
 title
 -----
 Structure from the checkpoint file:  "E2SN2_131_mol2.chk"
 Charge = -1 Multiplicity = 1

                         Standard orientation:
 ---------------------------------------------------------------------
 Center     Atomic      Atomic             Coordinates (Angstroms)
 Number     Number       Type             X           Y           Z
 ---------------------------------------------------------------------
      1          6           0        0.094645    0.261588    0.306119
      2          6           0       -1.101150   -0.418320   -0.417875
      3         17           0        0.209952    1.955924   -0.229557
      4          1           0       -1.113904   -0.067699   -1.454024
      5          7           0        0.032797    0.245605    1.732421
      6          1           0        0.209265   -0.701647    2.047792
      7          1           0       -0.944407    0.480680    1.912357
      8          7           0        1.364211   -0.447368   -0.137068
      9          8           0        1.737128   -0.276119   -1.291790
     10          8           0        1.865218   -1.246494    0.654898
     11          7           0       -2.306444    0.045246    0.233008
     12          1           0       -2.980329    0.282071   -0.579654
     13          1           0       -2.742089   -0.740914    0.708081
     14          6           0       -0.969381   -1.939921   -0.429211
     15          1           0       -1.855316   -2.325883   -0.937271
     16          1           0       -0.085863   -2.297967   -0.965199
     17          1           0       -0.948901   -2.346164    0.588563
     18          1           0       -3.705056    0.323247   -1.875760
 ---------------------------------------------------------------------

 SCF Done:  E(RHF) =  -891.797285569     A.U. after    2 cycles

 The electronic state is 1-A.
 Alpha  occ. eigenvalues -- -105.45653 -20.49730 -20.49708 -15.68844 -15.40324
 Alpha  occ. eigenvalues --  -15.33561 -11.28209 -11.15633 -11.12442 -10.50564
 Alpha  occ. eigenvalues --   -7.67518  -7.67108  -7.67096  -1.56862  -1.40773
 Alpha  occ. eigenvalues --   -1.15770  -1.04934  -0.99837  -0.93009  -0.87985
 Alpha  occ. eigenvalues --   -0.77217  -0.72636  -0.66620  -0.65183  -0.64290
 Alpha  occ. eigenvalues --   -0.58239  -0.57322  -0.52863  -0.50794  -0.48599
 Alpha  occ. eigenvalues --   -0.44835  -0.44287  -0.41120  -0.39887  -0.38262
 Alpha  occ. eigenvalues --   -0.37244  -0.34771  -0.34741  -0.34205  -0.30544
 Alpha  occ. eigenvalues --   -0.09940
 Alpha virt. eigenvalues --    0.12149   0.12988   0.13904   0.14716   0.15262
 Alpha virt. eigenvalues --    0.16531   0.17160   0.17362   0.18353   0.20918
 Alpha virt. eigenvalues --    0.21233   0.22215   0.23485   0.23888   0.24844

 Mulliken charges:
               1
     1  C   -2.214635
     2  C   -1.333915
     3  Cl   0.081372
     4  H    0.108061
     5  N    0.825012
     6  H    0.360111
     7  H    0.332125
     8  N    3.152031
     9  O   -1.576367
    10  O   -1.493135
    11  N    0.658099
    12  H    0.062298
    13  H    0.244924
    14  C    0.014993
    15  H    0.142065
    16  H    0.173507
    17  H    0.212182
    18  H   -0.748729
 Sum of Mulliken charges =  -1.00000

 Dipole moment (field-independent basis, Debye):
    X=              9.5949    Y=             -3.1255    Z=              6.6787  Tot=             12.1011

 Test job not archived.
 1\1\GINC-SE423\SP\RHF\Aug-CC-pVDZ\C3H9Cl1N3O2(1-)\OHZDE\09-Apr-2025\0\
 \#t hf aug-cc-pvdz iop(5/13=1,5/36=2,99/5=2) pseudo=read geom=check gu
 ess=(read,tcheck) scf=(maxcycle=1)\\title\\-1,1\C,0,-0.707809,0.000831
 ,-1.48973\C,0,0.100652,0.096044,-0.165459\Cl,0,0.138616,-1.095649,-2.6
 088\H,0,1.164235,0.129379,-0.419194\N,0,-2.054474,-0.452589,-1.350719\
 H,0,-2.59621,0.287482,-0.918628\H,0,-1.95877,-1.225367,-0.69025\N,0,-0
 .719214,1.383078,-2.122259\O,0,0.333325,1.803367,-2.588409\O,0,-1.7546
 37,2.040862,-2.012523\N,0,-0.152268,-1.122492,0.57107\H,0,0.820912,-1.

 Normal termination of Gaussian 16 at Wed Apr  9 02:36:43 2025.
