 Gaussian 16, Revision C.01,

 ----------------------------------------------------------------------
 #t hf aug-cc-pvdz symm=none int=(grid=ultrafine) guess=(read,tcheck) s
 table=(opt,rrhf)
 ----------------------------------------------------------------------
 -----
 title
 -----
 Symbolic Z-matrix:
 Charge = -1 Multiplicity = 1

 SCF Done:  E(RHF) =  -896.150929265     A.U. after   16 cycles
 Normal termination of Gaussian 16 at Wed Apr  9 02:39:49 2025.
 Gaussian 16:  ES64L-G16RevC.01  3-Jul-2019

 ----------------------------------------------------------------------
 #t hf aug-cc-pvdz iop(5/13=1,5/36=2,99/5=2) pseudo=read geom=check gue
 ss=(read,tcheck) scf=(maxcycle=1)
 ----------------------------------------------------------------------
 -----
 title
 -----
 Structure from the checkpoint file:  "E2SN2_173_mol1.chk"
 Charge = -1 Multiplicity = 1

                         Standard orientation:
 ---------------------------------------------------------------------
 Center     Atomic      Atomic             Coordinates (Angstroms)
 Number     Number       Type             X           Y           Z
 ---------------------------------------------------------------------
      1          6           0        0.078967    0.065586   -0.603863
      2          1           0        0.295870    2.118041   -0.308005
      3         17           0       -1.552993   -1.212452   -0.325004
      4          9           0        1.787421    0.954449   -1.102561
      5          6           0       -0.547536    1.440437   -0.389035
      6          1           0        0.314001   -0.331687   -1.569910
      7          1           0       -1.077471    1.665680   -1.319235
      8          7           0        0.947926   -0.479300    0.458327
      9          8           0        0.971886    0.122209    1.532803
     10          8           0        1.558623   -1.512328    0.220468
     11          7           0       -1.451731    1.656079    0.730772
     12          1           0       -0.930717    1.447502    1.573394
     13          1           0       -2.193620    0.969471    0.679407
 ---------------------------------------------------------------------

 SCF Done:  E(RHF) =  -896.656377026     A.U. after    2 cycles

 The electronic state is 1-A.
 Alpha  occ. eigenvalues -- -105.38677 -26.13345 -20.44833 -20.44678 -15.65305
 Alpha  occ. eigenvalues --  -15.35585 -11.25056 -11.13938 -10.43488  -7.60346
 Alpha  occ. eigenvalues --   -7.60117  -7.60108  -1.52316  -1.36082  -1.20926
 Alpha  occ. eigenvalues --   -1.06479  -0.98725  -0.85122  -0.81318  -0.70492
 Alpha  occ. eigenvalues --   -0.63290  -0.60677  -0.59511  -0.56901  -0.52192
 Alpha  occ. eigenvalues --   -0.47666  -0.42582  -0.37147  -0.35631  -0.34578
 Alpha  occ. eigenvalues --   -0.32472  -0.31189  -0.30312  -0.29881  -0.29405
 Alpha  occ. eigenvalues --   -0.28767  -0.26022
 Alpha virt. eigenvalues --    0.14129   0.14829   0.15592   0.16100   0.17331
 Alpha virt. eigenvalues --    0.18756   0.20500   0.22579   0.23435   0.24343
 Alpha virt. eigenvalues --    0.26799   0.27525   0.28155   0.28618   0.28938

 Mulliken charges:
               1
     1  C    0.079515
     2  H    0.280232
     3  Cl  -0.531260
     4  F   -0.898507
     5  C   -0.723492
     6  H    0.010293
     7  H    0.152167
     8  N    3.115421
     9  O   -1.508422
    10  O   -1.546096
    11  N    0.154895
    12  H    0.199928
    13  H    0.215325
 Sum of Mulliken charges =  -1.00000

 Dipole moment (field-independent basis, Debye):
    X=             -3.3712    Y=             -0.2924    Z=              0.6610  Tot=              3.4478

 Test job not archived.
 1\1\GINC-SE120\SP\RHF\Aug-CC-pVDZ\C2H5Cl1F1N2O2(1-)\OHZDE\09-Apr-2025\
 0\\#t hf aug-cc-pvdz iop(5/13=1,5/36=2,99/5=2) pseudo=read geom=check
 guess=(read,tcheck) scf=(maxcycle=1)\\title\\-1,1\C,0,0.58636156,0.028
 22385,0.08694952\H,0,1.81059156,1.71218154,0.19964326\Cl,0,-1.48873718
 ,-0.19159385,0.22866087\F,0,2.5433876,-0.15832157,-0.2177535\C,0,0.748
 56702,1.54527927,0.05371253\H,0,0.66281464,-0.59288071,-0.78178478\H,0
 ,0.4943721,1.84132025,-0.96833528\N,0,0.95173086,-0.68593497,1.3265946
 2\O,0,1.19225762,-0.00244782,2.32252537\O,0,0.95543618,-1.90900952,1.2

 Normal termination of Gaussian 16 at Wed Apr  9 02:39:55 2025.
