 Gaussian 16, Revision C.01,

 ----------------------------------------------------------------------
 #t hf aug-cc-pvdz symm=none int=(grid=ultrafine) guess=(read,tcheck) s
 table=(opt,rrhf)
 ----------------------------------------------------------------------
 -----
 title
 -----
 Symbolic Z-matrix:
 Charge = -1 Multiplicity = 1

 SCF Done:  E(RHF) =  -515.196207786     A.U. after   17 cycles
 Normal termination of Gaussian 16 at Wed Apr  9 02:33:35 2025.
 Gaussian 16:  ES64L-G16RevC.01  3-Jul-2019

 ----------------------------------------------------------------------
 #t hf aug-cc-pvdz iop(5/13=1,5/36=2,99/5=2) pseudo=read geom=check gue
 ss=(read,tcheck) scf=(maxcycle=1)
 ----------------------------------------------------------------------
 -----
 title
 -----
 Structure from the checkpoint file:  "E2SN2_100_mol1.chk"
 Charge = -1 Multiplicity = 1

                         Standard orientation:
 ---------------------------------------------------------------------
 Center     Atomic      Atomic             Coordinates (Angstroms)
 Number     Number       Type             X           Y           Z
 ---------------------------------------------------------------------
      1          6           0        0.015037   -0.422359    0.265652
      2          6           0       -1.063410    0.349968   -0.357573
      3          9           0        0.095739   -0.325953    1.699938
      4          1           0       -1.367781   -0.537240   -2.586408
      5          1           0       -1.054878   -0.042273   -1.708045
      6          6           0       -0.008702   -1.896191   -0.060094
      7          1           0       -0.838542   -2.356598    0.476053
      8          1           0       -0.162489   -2.026572   -1.133898
      9          1           0        0.921174   -2.375390    0.254346
     10          7           0        1.352214    0.150324   -0.188271
     11          8           0        1.861013    1.047232    0.481941
     12          8           0        1.823879   -0.292086   -1.236279
     13          6           0       -1.021126    1.851791   -0.191079
     14          1           0       -0.086973    2.292489   -0.554120
     15          1           0       -1.841111    2.269054   -0.783859
     16          1           0       -1.162064    2.181980    0.849587
     17          7           0       -2.383818   -0.191577   -0.090067
     18          1           0       -2.622985   -0.827542   -0.858806
     19          1           0       -2.434704   -0.695983    0.787350
 ---------------------------------------------------------------------

 SCF Done:  E(RHF) =  -515.716775029     A.U. after    2 cycles

 The electronic state is 1-A.
 Alpha  occ. eigenvalues --  -26.31523 -20.45761 -20.45725 -15.64742 -15.33581
 Alpha  occ. eigenvalues --  -11.24276 -11.11228 -11.07478 -11.07076  -1.52744
 Alpha  occ. eigenvalues --   -1.42968  -1.36402  -1.04512  -0.97789  -0.85656
 Alpha  occ. eigenvalues --   -0.83708  -0.73121  -0.68061  -0.62490  -0.61097
 Alpha  occ. eigenvalues --   -0.60113  -0.55210  -0.52429  -0.51661  -0.47489
 Alpha  occ. eigenvalues --   -0.45560  -0.45165  -0.42722  -0.41192  -0.39766
 Alpha  occ. eigenvalues --   -0.37137  -0.35290  -0.34864  -0.33426  -0.31200
 Alpha  occ. eigenvalues --   -0.28230  -0.09953
 Alpha virt. eigenvalues --    0.12790   0.13576   0.14223   0.15188   0.15684
 Alpha virt. eigenvalues --    0.15854   0.16981   0.18194   0.18973   0.19791
 Alpha virt. eigenvalues --    0.21069   0.22485   0.22949   0.24284   0.25191

 Mulliken charges:
               1
     1  C    0.774807
     2  C   -2.319393
     3  F   -1.122219
     4  H   -0.550982
     5  H    0.461653
     6  C   -0.091236
     7  H    0.210042
     8  H    0.295707
     9  H    0.178994
    10  N    2.871384
    11  O   -1.449288
    12  O   -1.495891
    13  C   -0.347741
    14  H    0.210493
    15  H    0.130660
    16  H    0.163368
    17  N    0.706547
    18  H    0.204409
    19  H    0.168685
 Sum of Mulliken charges =  -1.00000

 Dipole moment (field-independent basis, Debye):
    X=              2.1186    Y=             -1.5463    Z=              5.5388  Tot=              6.1284

 Test job not archived.
 1\1\GINC-SE131\SP\RHF\Aug-CC-pVDZ\C4H10F1N2O2(1-)\OHZDE\09-Apr-2025\0\
 \#t hf aug-cc-pvdz iop(5/13=1,5/36=2,99/5=2) pseudo=read geom=check gu
 ess=(read,tcheck) scf=(maxcycle=1)\\title\\-1,1\C,0,-0.01087079,-0.055
 31585,-0.34423722\C,0,-0.09487443,0.03429296,1.1161942\F,0,1.32159464,
 -0.03714928,-0.88938737\H,0,-2.3110465,-0.70460799,1.74076578\H,0,-1.4
 5145669,-0.18603604,1.41425218\C,0,-0.69356,-1.26661843,-0.9320578\H,0
 ,-0.09428863,-2.1477951,-0.70300561\H,0,-1.68128062,-1.38019535,-0.479
 05364\H,0,-0.77860514,-1.17246624,-2.01698931\N,0,-0.64110536,1.193816

 Normal termination of Gaussian 16 at Wed Apr  9 02:33:45 2025.
