 Gaussian 16, Revision C.01,

 ----------------------------------------------------------------------
 #t hf aug-cc-pvdz symm=none int=(grid=ultrafine) guess=(read,tcheck) s
 table=(opt,rrhf)
 ----------------------------------------------------------------------
 -----
 title
 -----
 Symbolic Z-matrix:
 Charge = -1 Multiplicity = 1

 SCF Done:  E(RHF) =  -777.175820238     A.U. after   16 cycles
 Normal termination of Gaussian 16 at Wed Apr  9 02:34:42 2025.
 Gaussian 16:  ES64L-G16RevC.01  3-Jul-2019

 ----------------------------------------------------------------------
 #t hf aug-cc-pvdz iop(5/13=1,5/36=2,99/5=2) pseudo=read geom=check gue
 ss=(read,tcheck) scf=(maxcycle=1)
 ----------------------------------------------------------------------
 -----
 title
 -----
 Structure from the checkpoint file:  "E2SN2_122_mol2.chk"
 Charge = -1 Multiplicity = 1

                         Standard orientation:
 ---------------------------------------------------------------------
 Center     Atomic      Atomic             Coordinates (Angstroms)
 Number     Number       Type             X           Y           Z
 ---------------------------------------------------------------------
      1          6           0        0.369455   -0.166406    0.210034
      2          6           0       -0.644888   -0.927573   -0.632025
      3         17           0        0.248694    1.619121   -0.232649
      4          1           0       -0.435860   -0.769776   -1.691454
      5          1           0       -0.492151   -1.996576   -0.451811
      6          7           0        0.175958   -0.379241    1.611066
      7          1           0        0.815624    0.194219    2.149434
      8          1           0       -0.776152   -0.132758    1.858674
      9          6           0        1.744597   -0.567769   -0.122617
     10          7           0        2.869127   -0.882858   -0.247326
     11          6           0       -1.995254   -0.564968   -0.245380
     12          7           0       -3.090840   -0.269660    0.066160
     13          1           0        0.137566   -0.737562   -3.179197
 ---------------------------------------------------------------------

 SCF Done:  E(RHF) =  -777.568123000     A.U. after    2 cycles

 The electronic state is 1-A.
 Alpha  occ. eigenvalues -- -105.46074 -15.43447 -15.42523 -15.41133 -11.29235
 Alpha  occ. eigenvalues --  -11.19414 -11.18579 -11.15726 -10.50936  -7.67861
 Alpha  occ. eigenvalues --   -7.67490  -7.67478  -1.17302  -1.11908  -1.11256
 Alpha  occ. eigenvalues --   -0.99719  -0.92717  -0.83035  -0.67173  -0.62883
 Alpha  occ. eigenvalues --   -0.58636  -0.57242  -0.51281  -0.50869  -0.49340
 Alpha  occ. eigenvalues --   -0.48579  -0.41664  -0.40534  -0.39510  -0.37876
 Alpha  occ. eigenvalues --   -0.36632  -0.35614  -0.34965  -0.08887
 Alpha virt. eigenvalues --    0.11335   0.13825   0.14344   0.16967   0.17742
 Alpha virt. eigenvalues --    0.18104   0.20885   0.21162   0.21417   0.22041
 Alpha virt. eigenvalues --    0.22322   0.23786   0.24585   0.25185   0.25356

 Mulliken charges:
               1
     1  C   -2.067610
     2  C    1.523649
     3  Cl   0.083047
     4  H   -0.169614
     5  H    0.340346
     6  N    0.725035
     7  H    0.146015
     8  H    0.219278
     9  C   -1.114436
    10  N    0.942561
    11  C   -1.926067
    12  N    0.957560
    13  H   -0.659764
 Sum of Mulliken charges =  -1.00000

 Dipole moment (field-independent basis, Debye):
    X=             -0.1263    Y=              2.6332    Z=             12.1939  Tot=             12.4757

 Test job not archived.
 1\1\GINC-SE365\SP\RHF\Aug-CC-pVDZ\C4H5Cl1N3(1-)\OHZDE\09-Apr-2025\0\\#
 t hf aug-cc-pvdz iop(5/13=1,5/36=2,99/5=2) pseudo=read geom=check gues
 s=(read,tcheck) scf=(maxcycle=1)\\title\\-1,1\C,0,-0.526319,0.024175,-
 1.403081\C,0,0.003383,-0.054152,0.021914\Cl,0,0.115902,-1.435383,-2.32
 8231\H,0,1.094591,-0.062749,0.008776\H,0,-0.283456,0.869393,0.535101\N
 ,0,-1.954364,0.091689,-1.445011\H,0,-2.283314,0.069321,-2.40374\H,0,-2
 .341723,-0.701,-0.944836\C,0,0.002895,1.204455,-2.102822\N,0,0.293973,
 2.162403,-2.716833\C,0,-0.578823,-1.187741,0.71508\N,0,-1.048937,-2.10

 Normal termination of Gaussian 16 at Wed Apr  9 02:34:46 2025.
