 Gaussian 16, Revision C.01,

 ----------------------------------------------------------------------
 #t hf aug-cc-pvdz symm=none int=(grid=ultrafine) guess=(read,tcheck) s
 table=(opt,rrhf)
 ----------------------------------------------------------------------
 -----
 title
 -----
 Symbolic Z-matrix:
 Charge = -1 Multiplicity = 1

 SCF Done:  E(RHF) =  -1055.72899727     A.U. after   18 cycles
 Normal termination of Gaussian 16 at Wed Apr  9 02:52:19 2025.
 Gaussian 16:  ES64L-G16RevC.01  3-Jul-2019

 ----------------------------------------------------------------------
 #t hf aug-cc-pvdz iop(5/13=1,5/36=2,99/5=2) pseudo=read geom=check gue
 ss=(read,tcheck) scf=(maxcycle=1)
 ----------------------------------------------------------------------
 -----
 title
 -----
 Structure from the checkpoint file:  "E2SN2_29_mol2.chk"
 Charge = -1 Multiplicity = 1

                         Standard orientation:
 ---------------------------------------------------------------------
 Center     Atomic      Atomic             Coordinates (Angstroms)
 Number     Number       Type             X           Y           Z
 ---------------------------------------------------------------------
      1          6           0        0.072934    0.018268    0.121712
      2          6           0       -1.330602    0.112974   -0.481321
      3         17           0        0.073698   -0.159716    1.853487
      4          1           0       -1.176994    0.306346   -1.548939
      5          7           0        0.787673   -1.154307   -0.550493
      6          8           0        1.040786   -2.156571    0.091027
      7          8           0        1.028378   -0.952152   -1.735549
      8          7           0        0.973514    1.204483   -0.218545
      9          8           0        2.154038    1.092581    0.091974
     10          8           0        0.462112    2.166505   -0.779475
     11          7           0       -2.137063    1.121824    0.177464
     12          1           0       -1.828392    2.038149   -0.134898
     13          1           0       -3.056935    0.960983   -0.269177
     14          7           0       -1.917378   -1.201534   -0.377322
     15          1           0       -2.234496   -1.298803    0.585008
     16          1           0       -2.788929   -1.088954   -0.936190
     17          1           0       -4.050848    0.013841   -1.608982
 ---------------------------------------------------------------------

 SCF Done:  E(RHF) =  -1056.38798138     A.U. after    2 cycles

 The electronic state is 1-A.
 Alpha  occ. eigenvalues -- -105.50872 -20.52942 -20.52377 -20.51803 -20.51068
 Alpha  occ. eigenvalues --  -15.72473 -15.71537 -15.36181 -15.35938 -11.33941
 Alpha  occ. eigenvalues --  -11.20113 -10.55761  -7.72737  -7.72286  -7.72263
 Alpha  occ. eigenvalues --   -1.60216  -1.58715  -1.43984  -1.43234  -1.16366
 Alpha  occ. eigenvalues --   -1.09375  -1.01239  -0.97828  -0.92645  -0.82181
 Alpha  occ. eigenvalues --   -0.75767  -0.73765  -0.68574  -0.67781  -0.66618
 Alpha  occ. eigenvalues --   -0.64353  -0.63765  -0.57928  -0.56098  -0.53101
 Alpha  occ. eigenvalues --   -0.49144  -0.47516  -0.44677  -0.42978  -0.41888
 Alpha  occ. eigenvalues --   -0.40757  -0.39731  -0.38566  -0.37522  -0.36616
 Alpha  occ. eigenvalues --   -0.34711  -0.32978  -0.10956
 Alpha virt. eigenvalues --    0.11903   0.13931   0.14385   0.15153   0.15562
 Alpha virt. eigenvalues --    0.17015   0.18237   0.19194   0.20169   0.20789
 Alpha virt. eigenvalues --    0.21162   0.23275   0.23524   0.24764   0.25388

 Mulliken charges:
               1
     1  C   -1.647804
     2  C   -1.993014
     3  Cl   0.233865
     4  H    0.159192
     5  N    3.345578
     6  O   -1.458477
     7  O   -1.605988
     8  N    3.392410
     9  O   -1.599479
    10  O   -1.496410
    11  N    0.771436
    12  H    0.184544
    13  H    0.180738
    14  N    0.760978
    15  H    0.283928
    16  H    0.270413
    17  H   -0.781912
 Sum of Mulliken charges =  -1.00000

 Dipole moment (field-independent basis, Debye):
    X=             10.8086    Y=              1.0835    Z=              6.1631  Tot=             12.4894

 Test job not archived.
 1\1\GINC-SE331\SP\RHF\Aug-CC-pVDZ\C2H6Cl1N4O4(1-)\OHZDE\09-Apr-2025\0\
 \#t hf aug-cc-pvdz iop(5/13=1,5/36=2,99/5=2) pseudo=read geom=check gu
 ess=(read,tcheck) scf=(maxcycle=1)\\title\\-1,1\C,0,-0.669428,-0.06160
 4,-1.47034\C,0,0.181961,-0.031355,-0.198824\Cl,0,-2.370728,-0.264296,-
 1.161769\H,0,1.220921,0.012877,-0.544371\N,0,-0.401666,1.233297,-2.237
 919\O,0,-1.276538,2.07365,-2.330404\O,0,0.736315,1.295003,-2.689975\N,
 0,-0.251948,-1.140096,-2.468584\O,0,-0.786,-1.091312,-3.57085\O,0,0.58
 3342,-1.960231,-2.106189\N,0,-0.091278,-1.16408,0.663979\H,0,0.348279,

 Normal termination of Gaussian 16 at Wed Apr  9 02:52:29 2025.
