 Gaussian 16, Revision C.01,

 ----------------------------------------------------------------------
 #t hf aug-cc-pvdz symm=none int=(grid=ultrafine) guess=(read,tcheck) s
 table=(opt,rrhf)
 ----------------------------------------------------------------------
 -----
 title
 -----
 Symbolic Z-matrix:
 Charge = -1 Multiplicity = 1

 SCF Done:  E(RHF) =  -836.217353794     A.U. after   17 cycles
 Normal termination of Gaussian 16 at Wed Apr  9 02:36:09 2025.
 Gaussian 16:  ES64L-G16RevC.01  3-Jul-2019

 ----------------------------------------------------------------------
 #t hf aug-cc-pvdz iop(5/13=1,5/36=2,99/5=2) pseudo=read geom=check gue
 ss=(read,tcheck) scf=(maxcycle=1)
 ----------------------------------------------------------------------
 -----
 title
 -----
 Structure from the checkpoint file:  "E2SN2_129_mol1.chk"
 Charge = -1 Multiplicity = 1

                         Standard orientation:
 ---------------------------------------------------------------------
 Center     Atomic      Atomic             Coordinates (Angstroms)
 Number     Number       Type             X           Y           Z
 ---------------------------------------------------------------------
      1          6           0        0.130753   -0.133774    0.478780
      2          6           0       -0.240650    1.211691    0.876480
      3         17           0        1.897641   -0.266188   -0.420881
      4          1           0       -2.000863    0.447621    2.482325
      5          1           0       -1.249078    0.926446    1.609247
      6          1           0        0.443034    1.531135    1.669552
      7          7           0        0.166536   -1.088744    1.524382
      8          1           0       -0.695910   -0.906523    2.073754
      9          1           0        0.952111   -0.846485    2.117053
     10          7           0       -0.842984   -0.630986   -0.584697
     11          8           0       -0.805270   -0.102239   -1.693579
     12          8           0       -1.665812   -1.471713   -0.230705
     13          6           0       -0.482498    2.296714   -0.148558
     14          1           0       -1.365622    2.090442   -0.756438
     15          1           0       -0.650860    3.247744    0.367311
     16          1           0        0.365459    2.416747   -0.831550
 ---------------------------------------------------------------------

 SCF Done:  E(RHF) =  -836.682198305     A.U. after    2 cycles

 The electronic state is 1-A.
 Alpha  occ. eigenvalues -- -105.41420 -20.46495 -20.45853 -15.65409 -15.37392
 Alpha  occ. eigenvalues --  -11.27061 -11.10181 -11.08732 -10.46178  -7.63068
 Alpha  occ. eigenvalues --   -7.62767  -7.62759  -1.53216  -1.37148  -1.12184
 Alpha  occ. eigenvalues --   -0.96167  -0.89236  -0.87597  -0.76383  -0.70019
 Alpha  occ. eigenvalues --   -0.62680  -0.61910  -0.59590  -0.56756  -0.51419
 Alpha  occ. eigenvalues --   -0.47067  -0.44711  -0.41924  -0.39259  -0.36864
 Alpha  occ. eigenvalues --   -0.36536  -0.34226  -0.32956  -0.32369  -0.31700
 Alpha  occ. eigenvalues --   -0.30739  -0.10718
 Alpha virt. eigenvalues --    0.12776   0.13649   0.14336   0.14988   0.17057
 Alpha virt. eigenvalues --    0.17590   0.18639   0.19381   0.20414   0.22126
 Alpha virt. eigenvalues --    0.23418   0.23889   0.24478   0.25569   0.25999

 Mulliken charges:
               1
     1  C   -2.115559
     2  C    0.033923
     3  Cl  -0.226080
     4  H   -0.609446
     5  H    0.221848
     6  H    0.039222
     7  N    0.821976
     8  H    0.322671
     9  H    0.276264
    10  N    3.105298
    11  O   -1.543797
    12  O   -1.437969
    13  C   -0.393585
    14  H    0.223187
    15  H    0.099354
    16  H    0.182692
 Sum of Mulliken charges =  -1.00000

 Dipole moment (field-independent basis, Debye):
    X=              5.0516    Y=              1.1993    Z=             -3.3356  Tot=              6.1712

 Test job not archived.
 1\1\GINC-SE023\SP\RHF\Aug-CC-pVDZ\C3H8Cl1N2O2(1-)\OHZDE\09-Apr-2025\0\
 \#t hf aug-cc-pvdz iop(5/13=1,5/36=2,99/5=2) pseudo=read geom=check gu
 ess=(read,tcheck) scf=(maxcycle=1)\\title\\-1,1\C,0,-0.18359916,-0.062
 711,-0.29740963\C,0,-0.17191309,0.05278342,1.14927803\Cl,0,1.61700281,
 -0.21737211,-1.12368398\H,0,-2.58305966,-0.56682997,1.40095767\H,0,-1.
 42071553,-0.11453189,1.36776678\H,0,0.18700858,-0.89565028,1.56168761\
 N,0,-0.93130218,-1.14900839,-0.81454534\H,0,-1.81326436,-1.14329223,-0
 .26596911\H,0,-0.43228505,-1.9948986,-0.56448753\N,0,-0.73737917,1.224

 Normal termination of Gaussian 16 at Wed Apr  9 02:36:16 2025.
