 Gaussian 16, Revision C.01,

 ----------------------------------------------------------------------
 #t hf aug-cc-pvdz symm=none int=(grid=ultrafine) guess=(read,tcheck) s
 table=(opt,rrhf)
 ----------------------------------------------------------------------
 -----
 title
 -----
 Symbolic Z-matrix:
 Charge = -1 Multiplicity = 1

 SCF Done:  E(RHF) =  -1350.30704921     A.U. after   17 cycles
 Normal termination of Gaussian 16 at Wed Apr  9 03:01:27 2025.
 Gaussian 16:  ES64L-G16RevC.01  3-Jul-2019

 ----------------------------------------------------------------------
 #t hf aug-cc-pvdz iop(5/13=1,5/36=2,99/5=2) pseudo=read geom=check gue
 ss=(read,tcheck) scf=(maxcycle=1)
 ----------------------------------------------------------------------
 -----
 title
 -----
 Structure from the checkpoint file:  "E2SN2_44_mol1.chk"
 Charge = -1 Multiplicity = 1

                         Standard orientation:
 ---------------------------------------------------------------------
 Center     Atomic      Atomic             Coordinates (Angstroms)
 Number     Number       Type             X           Y           Z
 ---------------------------------------------------------------------
      1          6           0       -0.277388    0.193604   -0.370024
      2          6           0        0.488246   -0.748594    0.323014
      3         17           0       -2.673800   -0.969723   -0.025593
      4         17           0        3.204317    0.126993   -0.297802
      5          1           0        1.703117   -0.201226    0.071521
      6          7           0       -0.627561    1.505886    0.223621
      7          8           0       -1.208600    2.310280   -0.507166
      8          8           0       -0.316198    1.723552    1.391721
      9          7           0       -0.394512    0.217727   -1.713535
     10          1           0       -0.564901   -0.700691   -2.094205
     11          1           0       -1.067907    0.905332   -2.022615
     12          6           0        0.440037   -0.899967    1.825668
     13          1           0       -0.600529   -1.028887    2.140684
     14          1           0        1.005229   -1.801742    2.062130
     15          1           0        0.871249   -0.052304    2.352195
     16          7           0        0.608411   -2.017994   -0.363520
     17          1           0       -0.332235   -2.349759   -0.574668
     18          1           0        1.155842   -1.924575   -1.211654
 ---------------------------------------------------------------------

 SCF Done:  E(RHF) =  -1350.89955447     A.U. after    2 cycles

 The electronic state is 1-A.
 Alpha  occ. eigenvalues -- -105.36862-105.31889 -20.50850 -20.50522 -15.70646
 Alpha  occ. eigenvalues --  -15.44786 -15.38628 -11.29699 -11.16022 -11.11031
 Alpha  occ. eigenvalues --  -10.41629 -10.36548  -7.58489  -7.58299  -7.58298
 Alpha  occ. eigenvalues --   -7.53328  -7.53269  -7.53261  -1.57762  -1.41617
 Alpha  occ. eigenvalues --   -1.19547  -1.08836  -1.00369  -0.90095  -0.84317
 Alpha  occ. eigenvalues --   -0.80894  -0.77678  -0.74831  -0.69385  -0.66024
 Alpha  occ. eigenvalues --   -0.65325  -0.63433  -0.60479  -0.57536  -0.49978
 Alpha  occ. eigenvalues --   -0.46654  -0.45512  -0.44459  -0.41593  -0.40446
 Alpha  occ. eigenvalues --   -0.38969  -0.35752  -0.34725  -0.28944  -0.28862
 Alpha  occ. eigenvalues --   -0.26650  -0.24540  -0.24329  -0.21230
 Alpha virt. eigenvalues --    0.10432   0.12480   0.13610   0.13750   0.14945
 Alpha virt. eigenvalues --    0.16216   0.16566   0.16818   0.18106   0.21500
 Alpha virt. eigenvalues --    0.22072   0.23002   0.23725   0.24048   0.25268

 Mulliken charges:
               1
     1  C   -1.938381
     2  C   -1.833174
     3  Cl  -0.868737
     4  Cl  -0.659515
     5  H    1.027507
     6  N    3.223576
     7  O   -1.502203
     8  O   -1.539667
     9  N    1.012662
    10  H    0.248129
    11  H    0.172249
    12  C   -0.177594
    13  H    0.243627
    14  H    0.122113
    15  H    0.267297
    16  N    0.721559
    17  H    0.215851
    18  H    0.264703
 Sum of Mulliken charges =  -1.00000

 Dipole moment (field-independent basis, Debye):
    X=              0.6289    Y=              0.8795    Z=             -1.9188  Tot=              2.2024

 Test job not archived.
 1\1\GINC-SE114\SP\RHF\Aug-CC-pVDZ\C3H8Cl2N3O2(1-)\OHZDE\09-Apr-2025\0\
 \#t hf aug-cc-pvdz iop(5/13=1,5/36=2,99/5=2) pseudo=read geom=check gu
 ess=(read,tcheck) scf=(maxcycle=1)\\title\\-1,1\C,0,-0.52469706,0.0734
 8768,-0.1296475\C,0,-0.16917119,-0.03710757,1.21779531\Cl,0,1.95598756
 ,0.28374758,-1.1379875\Cl,0,-2.77137383,0.14458274,2.53104996\H,0,-1.4
 2616235,-0.05595657,1.72611537\N,0,-0.94370636,-1.10372805,-0.92696537
 \O,0,-1.34484852,-0.88656589,-2.07179355\O,0,-0.87981466,-2.21594737,-
 0.40959891\N,0,-0.93886899,1.22326555,-0.700431\H,0,-0.35691568,2.0049

 Normal termination of Gaussian 16 at Wed Apr  9 03:01:38 2025.
