 Gaussian 16, Revision C.01,

 ----------------------------------------------------------------------
 #t hf aug-cc-pvdz symm=none int=(grid=ultrafine) guess=(read,tcheck) s
 table=(opt,rrhf)
 ----------------------------------------------------------------------
 -----
 title
 -----
 Symbolic Z-matrix:
 Charge = -1 Multiplicity = 1

 SCF Done:  E(RHF) =  -682.922810303     A.U. after   16 cycles
 Normal termination of Gaussian 16 at Wed Apr  9 02:59:56 2025.
 Gaussian 16:  ES64L-G16RevC.01  3-Jul-2019

 ----------------------------------------------------------------------
 #t hf aug-cc-pvdz iop(5/13=1,5/36=2,99/5=2) pseudo=read geom=check gue
 ss=(read,tcheck) scf=(maxcycle=1)
 ----------------------------------------------------------------------
 -----
 title
 -----
 Structure from the checkpoint file:  "E2SN2_409_mol2.chk"
 Charge = -1 Multiplicity = 1

                         Standard orientation:
 ---------------------------------------------------------------------
 Center     Atomic      Atomic             Coordinates (Angstroms)
 Number     Number       Type             X           Y           Z
 ---------------------------------------------------------------------
      1          6           0       -0.772942    0.192985    0.692292
      2          6           0        0.263311    0.080603   -0.459295
      3          9           0       -0.139745    0.725437    1.806068
      4          1           0       -0.349719   -0.344415   -1.282715
      5          7           0       -1.849795    1.063972    0.332333
      6          1           0       -1.498712    1.987166    0.098539
      7          1           0       -2.236023    0.605511   -0.510221
      8          7           0       -1.210957   -1.135184    0.968501
      9          1           0       -1.638809   -1.415313    0.070848
     10          1           0       -1.964335   -1.040309    1.643370
     11          7           0        1.367378   -0.867155   -0.109323
     12          8           0        2.261293   -0.451845    0.627562
     13          8           0        1.294435   -2.002583   -0.569400
     14          6           0        0.839069    1.376541   -0.779316
     15          7           0        1.257781    2.437737   -1.059114
     16          9           0       -2.047556   -0.786946   -1.598733
 ---------------------------------------------------------------------

 SCF Done:  E(RHF) =  -683.579142617     A.U. after    2 cycles

 The electronic state is 1-A.
 Alpha  occ. eigenvalues --  -26.33570 -26.13705 -20.48066 -20.47771 -15.67666
 Alpha  occ. eigenvalues --  -15.42440 -15.36561 -15.36169 -11.27569 -11.21263
 Alpha  occ. eigenvalues --  -11.19512  -1.54979  -1.46920  -1.38909  -1.20721
 Alpha  occ. eigenvalues --   -1.13554  -1.11865  -1.02917  -1.02280  -0.82463
 Alpha  occ. eigenvalues --   -0.74662  -0.69232  -0.66571  -0.64510  -0.61942
 Alpha  occ. eigenvalues --   -0.59413  -0.58646  -0.55969  -0.53489  -0.50627
 Alpha  occ. eigenvalues --   -0.50358  -0.45925  -0.45023  -0.41386  -0.39676
 Alpha  occ. eigenvalues --   -0.38702  -0.37395  -0.35421  -0.33754  -0.33163
 Alpha  occ. eigenvalues --   -0.29917  -0.29814  -0.29338
 Alpha virt. eigenvalues --    0.13801   0.14731   0.15701   0.17116   0.17513
 Alpha virt. eigenvalues --    0.17836   0.18618   0.19656   0.21666   0.22334
 Alpha virt. eigenvalues --    0.23478   0.24051   0.24550   0.25637   0.26119

 Mulliken charges:
               1
     1  C   -1.054062
     2  C    0.208385
     3  F   -1.015142
     4  H    0.201168
     5  N    0.495165
     6  H    0.271678
     7  H    0.343169
     8  N    0.599646
     9  H    0.324362
    10  H    0.320782
    11  N    2.906404
    12  O   -1.453837
    13  O   -1.447588
    14  C   -1.724877
    15  N    1.029260
    16  F   -1.004514
 Sum of Mulliken charges =  -1.00000

 Dipole moment (field-independent basis, Debye):
    X=              1.1537    Y=              0.6151    Z=              2.5591  Tot=              2.8737

 Test job not archived.
 1\1\GINC-SE423\SP\RHF\Aug-CC-pVDZ\C3H5F2N4O2(1-)\OHZDE\09-Apr-2025\0\\
 #t hf aug-cc-pvdz iop(5/13=1,5/36=2,99/5=2) pseudo=read geom=check gue
 ss=(read,tcheck) scf=(maxcycle=1)\\title\\-1,1\C,0,-0.00953,-0.007867,
 0.000397\C,0,-0.508374,-0.048952,-1.470001\F,0,1.377762,0.010656,-0.00
 4029\H,0,-1.611885,-0.055054,-1.340798\N,0,-0.469361,1.171966,0.666992
 \H,0,-0.155154,2.003577,0.177192\H,0,-1.497084,1.082981,0.595422\N,0,-
 0.47952,-1.204267,0.616771\H,0,-1.504604,-1.102143,0.538777\H,0,-0.243
 188,-1.116406,1.600873\N,0,-0.072675,-1.303898,-2.15918\O,0,1.085677,-

 Normal termination of Gaussian 16 at Wed Apr  9 03:00:06 2025.
