 Gaussian 16, Revision C.01,

 ----------------------------------------------------------------------
 #t hf aug-cc-pvdz symm=none int=(grid=ultrafine) guess=(read,tcheck) s
 table=(opt,rrhf)
 ----------------------------------------------------------------------
 -----
 title
 -----
 Symbolic Z-matrix:
 Charge = -1 Multiplicity = 1

 SCF Done:  E(RHF) =  -833.907442238     A.U. after   16 cycles
 Normal termination of Gaussian 16 at Wed Apr  9 02:57:43 2025.
 Gaussian 16:  ES64L-G16RevC.01  3-Jul-2019

 ----------------------------------------------------------------------
 #t hf aug-cc-pvdz iop(5/13=1,5/36=2,99/5=2) pseudo=read geom=check gue
 ss=(read,tcheck) scf=(maxcycle=1)
 ----------------------------------------------------------------------
 -----
 title
 -----
 Structure from the checkpoint file:  "E2SN2_3_mol1.chk"
 Charge = -1 Multiplicity = 1

                         Standard orientation:
 ---------------------------------------------------------------------
 Center     Atomic      Atomic             Coordinates (Angstroms)
 Number     Number       Type             X           Y           Z
 ---------------------------------------------------------------------
      1          6           0        0.289848    0.179445    0.659288
      2          6           0       -0.870307   -0.757503    0.850623
      3         17           0       -0.197336    1.750384    0.038744
      4          1           0       -0.687112    0.144079    3.231304
      5          1           0       -1.224091   -0.378176    1.900600
      6          1           0        0.688432    0.323368    1.682918
      7          1           0       -0.478327   -1.754697    1.065002
      8          7           0        1.379077   -0.426656   -0.188381
      9          8           0        1.875510   -1.447057    0.290394
     10          8           0        1.713442    0.086782   -1.251606
     11          6           0       -1.842832   -0.798182   -0.216859
     12          7           0       -2.681370   -0.852123   -1.041202
 ---------------------------------------------------------------------

 SCF Done:  E(RHF) =  -834.349740729     A.U. after    2 cycles

 The electronic state is 1-A.
 Alpha  occ. eigenvalues -- -105.46505 -20.49469 -20.48714 -15.68515 -15.39949
 Alpha  occ. eigenvalues --  -11.25425 -11.17603 -11.15409 -10.51396  -7.68360
 Alpha  occ. eigenvalues --   -7.67946  -7.67931  -1.56176  -1.40070  -1.10733
 Alpha  occ. eigenvalues --   -1.07394  -0.93124  -0.90766  -0.74888  -0.68090
 Alpha  occ. eigenvalues --   -0.64631  -0.64305  -0.58365  -0.51962  -0.48820
 Alpha  occ. eigenvalues --   -0.48401  -0.45947  -0.39764  -0.39518  -0.37335
 Alpha  occ. eigenvalues --   -0.36132  -0.35569  -0.35209  -0.34172  -0.11852
 Alpha virt. eigenvalues --    0.14348   0.15462   0.16474   0.16587   0.18369
 Alpha virt. eigenvalues --    0.19146   0.20720   0.22087   0.23417   0.23755
 Alpha virt. eigenvalues --    0.24911   0.25055   0.26725   0.27031   0.27133

 Mulliken charges:
               1
     1  C   -0.789692
     2  C    0.205925
     3  Cl   0.077997
     4  H   -0.600681
     5  H    0.272121
     6  H    0.323962
     7  H    0.331016
     8  N    2.624980
     9  O   -1.436969
    10  O   -1.343104
    11  C   -1.408881
    12  N    0.743326
 Sum of Mulliken charges =  -1.00000

 Dipole moment (field-independent basis, Debye):
    X=              3.7586    Y=              0.2744    Z=             -5.7668  Tot=              6.8891

 Test job not archived.
 1\1\GINC-SE069\SP\RHF\Aug-CC-pVDZ\C3H4Cl1N2O2(1-)\OHZDE\09-Apr-2025\0\
 \#t hf aug-cc-pvdz iop(5/13=1,5/36=2,99/5=2) pseudo=read geom=check gu
 ess=(read,tcheck) scf=(maxcycle=1)\\title\\-1,1\C,0,-0.76146881,-0.005
 3317,-0.18295646\C,0,-0.31856115,-0.0428381,1.25331173\Cl,0,-0.3289702
 ,-1.46115049,-1.06828534\H,0,-2.72478559,-0.83830643,1.55557945\H,0,-1
 .2148042,-0.65595968,1.69187103\H,0,-1.86653836,0.04273828,-0.12040852
 \H,0,-0.46096952,0.95055584,1.68562161\N,0,-0.27689417,1.23037004,-0.8
 9748411\O,0,-0.69332457,2.28340001,-0.41312754\O,0,0.46166195,1.148313

 Normal termination of Gaussian 16 at Wed Apr  9 02:57:48 2025.
