 Gaussian 16, Revision C.01,

 ----------------------------------------------------------------------
 #t hf aug-cc-pvdz symm=none int=(grid=ultrafine) guess=(read,tcheck) s
 table=(opt,rrhf)
 ----------------------------------------------------------------------
 -----
 title
 -----
 Symbolic Z-matrix:
 Charge = -1 Multiplicity = 1

 SCF Done:  E(RHF) =  -932.933407669     A.U. after   16 cycles
 Normal termination of Gaussian 16 at Wed Apr  9 02:38:46 2025.
 Gaussian 16:  ES64L-G16RevC.01  3-Jul-2019

 ----------------------------------------------------------------------
 #t hf aug-cc-pvdz iop(5/13=1,5/36=2,99/5=2) pseudo=read geom=check gue
 ss=(read,tcheck) scf=(maxcycle=1)
 ----------------------------------------------------------------------
 -----
 title
 -----
 Structure from the checkpoint file:  "E2SN2_163_mol2.chk"
 Charge = -1 Multiplicity = 1

                         Standard orientation:
 ---------------------------------------------------------------------
 Center     Atomic      Atomic             Coordinates (Angstroms)
 Number     Number       Type             X           Y           Z
 ---------------------------------------------------------------------
      1          6           0       -0.147033   -0.571892   -0.367389
      2          6           0       -0.995713    0.025262    0.726495
      3          9           0       -0.723517   -1.720998   -0.867463
      4          1           0       -1.009419   -0.640152    1.590965
      5          1           0        0.069721    0.127534   -1.169371
      6          1           0       -0.528319    0.980889    0.990170
      7          7           0        1.191102   -1.023193    0.167179
      8          8           0        2.026640   -1.297286   -0.686845
      9          8           0        1.325981   -1.166326    1.379515
     10          6           0       -2.357908    0.241060    0.250419
     11          7           0       -3.462768    0.404483   -0.108953
     12         17           0        1.062605    2.405529   -0.188864
 ---------------------------------------------------------------------

 SCF Done:  E(RHF) =  -933.462496253     A.U. after    2 cycles

 The electronic state is 1-A.
 Alpha  occ. eigenvalues -- -105.29028 -26.39053 -20.49605 -20.49475 -15.68708
 Alpha  occ. eigenvalues --  -15.42103 -11.29783 -11.19561 -11.18530 -10.33627
 Alpha  occ. eigenvalues --   -7.50391  -7.50361  -7.50352  -1.56815  -1.51531
 Alpha  occ. eigenvalues --   -1.40608  -1.12689  -1.03806  -0.93391  -0.77237
 Alpha  occ. eigenvalues --   -0.74470  -0.70210  -0.67180  -0.66221  -0.61990
 Alpha  occ. eigenvalues --   -0.59840  -0.57696  -0.54740  -0.50599  -0.50293
 Alpha  occ. eigenvalues --   -0.46722  -0.40259  -0.39453  -0.38781  -0.38195
 Alpha  occ. eigenvalues --   -0.34761  -0.21885  -0.21415  -0.21354
 Alpha virt. eigenvalues --    0.12750   0.15273   0.15821   0.16594   0.18173
 Alpha virt. eigenvalues --    0.20113   0.21397   0.22103   0.22842   0.23380
 Alpha virt. eigenvalues --    0.24184   0.25201   0.25596   0.26545   0.26644

 Mulliken charges:
               1
     1  C    0.659492
     2  C   -0.036151
     3  F   -0.858331
     4  H    0.319498
     5  H    0.126595
     6  H    0.371002
     7  N    2.863197
     8  O   -1.462647
     9  O   -1.432704
    10  C   -1.406897
    11  N    0.830890
    12  Cl  -0.973944
 Sum of Mulliken charges =  -1.00000

 Dipole moment (field-independent basis, Debye):
    X=             -1.7835    Y=             -7.4742    Z=              1.6676  Tot=              7.8629

 Test job not archived.
 1\1\GINC-SE051\SP\RHF\Aug-CC-pVDZ\C3H3Cl1F1N2O2(1-)\OHZDE\09-Apr-2025\
 0\\#t hf aug-cc-pvdz iop(5/13=1,5/36=2,99/5=2) pseudo=read geom=check
 guess=(read,tcheck) scf=(maxcycle=1)\\title\\-1,1\C,0,-0.11571,-0.0103
 24,0.006311\C,0,-0.502526,0.041853,-1.450082\F,0,1.237996,0.202011,0.1
 65203\H,0,-0.056702,-0.799238,-1.983074\H,0,-0.685818,0.677052,0.62424
 7\H,0,-1.595996,-0.026393,-1.479613\N,0,-0.351915,-1.385676,0.583075\O
 ,0,-0.292318,-1.454201,1.805515\O,0,-0.496962,-2.332523,-0.185612\C,0,
 -0.056145,1.295458,-2.048422\N,0,0.311484,2.289677,-2.551362\Cl,0,-3.3

 Normal termination of Gaussian 16 at Wed Apr  9 02:38:53 2025.
