 Gaussian 16, Revision C.01,

 ----------------------------------------------------------------------
 #t hf aug-cc-pvdz symm=none int=(grid=ultrafine) guess=(read,tcheck) s
 table=(opt,rrhf)
 ----------------------------------------------------------------------
 -----
 title
 -----
 Symbolic Z-matrix:
 Charge = -1 Multiplicity = 1

 SCF Done:  E(RHF) =  -536.138459738     A.U. after   15 cycles
 Normal termination of Gaussian 16 at Wed Apr  9 02:40:41 2025.
 Gaussian 16:  ES64L-G16RevC.01  3-Jul-2019

 ----------------------------------------------------------------------
 #t hf aug-cc-pvdz iop(5/13=1,5/36=2,99/5=2) pseudo=read geom=check gue
 ss=(read,tcheck) scf=(maxcycle=1)
 ----------------------------------------------------------------------
 -----
 title
 -----
 Structure from the checkpoint file:  "E2SN2_195_mol2.chk"
 Charge = -1 Multiplicity = 1

                         Standard orientation:
 ---------------------------------------------------------------------
 Center     Atomic      Atomic             Coordinates (Angstroms)
 Number     Number       Type             X           Y           Z
 ---------------------------------------------------------------------
      1          6           0        0.687400    0.792555    0.242704
      2          6           0       -0.082506   -0.323144   -0.418300
      3          9           0        0.135969    2.034480   -0.170059
      4          1           0       -0.091001   -0.184000   -1.496985
      5          1           0        0.510437    0.778442    1.323789
      6          1           0        0.454670   -1.265203   -0.155553
      7          7           0        2.041797    0.688635   -0.164028
      8          1           0        2.628796    1.170060    0.505772
      9          1           0        2.263112   -0.341577   -0.136681
     10          7           0       -1.491375   -0.357840    0.020320
     11          8           0       -1.728235   -0.277090    1.227078
     12          8           0       -2.363527   -0.509947   -0.838811
     13          9           0        2.029116   -1.922641    0.049288
 ---------------------------------------------------------------------

 SCF Done:  E(RHF) =  -536.657765032     A.U. after    2 cycles

 The electronic state is 1-A.
 Alpha  occ. eigenvalues --  -26.30652 -26.11212 -20.46199 -20.46041 -15.65434
 Alpha  occ. eigenvalues --  -15.33536 -11.21428 -11.14321  -1.53027  -1.42656
 Alpha  occ. eigenvalues --   -1.36728  -1.17930  -1.05832  -0.98539  -0.79650
 Alpha  occ. eigenvalues --   -0.71061  -0.64981  -0.62357  -0.61539  -0.57615
 Alpha  occ. eigenvalues --   -0.54086  -0.53193  -0.48631  -0.45022  -0.41830
 Alpha  occ. eigenvalues --   -0.39682  -0.36574  -0.35229  -0.32368  -0.31094
 Alpha  occ. eigenvalues --   -0.27557  -0.26895  -0.26478
 Alpha virt. eigenvalues --    0.13885   0.15500   0.15878   0.17752   0.19161
 Alpha virt. eigenvalues --    0.19612   0.21410   0.22599   0.23517   0.24780
 Alpha virt. eigenvalues --    0.25422   0.27180   0.28886   0.30011   0.30542

 Mulliken charges:
               1
     1  C    0.441312
     2  C   -0.556471
     3  F   -0.889573
     4  H    0.117905
     5  H    0.033437
     6  H    0.283228
     7  N    0.296361
     8  H    0.181205
     9  H    0.226794
    10  N    2.694338
    11  O   -1.427760
    12  O   -1.363773
    13  F   -1.037004
 Sum of Mulliken charges =  -1.00000

 Dipole moment (field-independent basis, Debye):
    X=             -2.6987    Y=              4.0335    Z=              0.7704  Tot=              4.9138

 Test job not archived.
 1\1\GINC-SE332\SP\RHF\Aug-CC-pVDZ\C2H5F2N2O2(1-)\OHZDE\09-Apr-2025\0\\
 #t hf aug-cc-pvdz iop(5/13=1,5/36=2,99/5=2) pseudo=read geom=check gue
 ss=(read,tcheck) scf=(maxcycle=1)\\title\\-1,1\C,0,0.068558,-0.003793,
 -0.011473\C,0,-0.586227,-0.002284,-1.370046\F,0,1.453072,-0.275867,-0.
 172483\H,0,-0.380194,-0.937478,-1.885757\H,0,0.05185,1.006555,0.41182\
 H,0,-1.681424,0.101653,-1.183473\N,0,-0.550165,-1.012374,0.769915\H,0,
 -0.398674,-0.813755,1.751022\H,0,-1.580123,-0.93619,0.559089\N,0,-0.07
 3686,1.082787,-2.229363\O,0,0.011552,2.214952,-1.749962\O,0,0.204273,0

 Normal termination of Gaussian 16 at Wed Apr  9 02:40:45 2025.
