 Gaussian 16, Revision C.01,

 ----------------------------------------------------------------------
 #t hf aug-cc-pvdz symm=none int=(grid=ultrafine) guess=(read,tcheck) s
 table=(opt,rrhf)
 ----------------------------------------------------------------------
 -----
 title
 -----
 Symbolic Z-matrix:
 Charge = -1 Multiplicity = 1

 SCF Done:  E(RHF) =  -453.819632967     A.U. after   16 cycles
 Normal termination of Gaussian 16 at Wed Apr  9 03:00:50 2025.
 Gaussian 16:  ES64L-G16RevC.01  3-Jul-2019

 ----------------------------------------------------------------------
 #t hf aug-cc-pvdz iop(5/13=1,5/36=2,99/5=2) pseudo=read geom=check gue
 ss=(read,tcheck) scf=(maxcycle=1)
 ----------------------------------------------------------------------
 -----
 title
 -----
 Structure from the checkpoint file:  "E2SN2_62_mol2.chk"
 Charge = -1 Multiplicity = 1

                         Standard orientation:
 ---------------------------------------------------------------------
 Center     Atomic      Atomic             Coordinates (Angstroms)
 Number     Number       Type             X           Y           Z
 ---------------------------------------------------------------------
      1          6           0        0.470904   -0.885502    0.156036
      2          6           0       -0.529208    0.206839    0.508516
      3          9           0        0.275673   -1.412759   -1.113687
      4          1           0       -0.393423    0.198533    1.600924
      5          1           0        0.328921   -1.670837    0.907254
      6          6           0        1.852756   -0.392000    0.240845
      7          7           0        2.973094   -0.042479    0.254378
      8          6           0       -1.884286   -0.235993    0.225875
      9          7           0       -2.988550   -0.603604    0.060849
     10          6           0       -0.255412    1.493963   -0.100340
     11          7           0       -0.027260    2.563257   -0.536122
     12          1           0       -0.046072   -0.356918    2.875674
 ---------------------------------------------------------------------

 SCF Done:  E(RHF) =  -454.249495062     A.U. after    2 cycles

 The electronic state is 1-A.
 Alpha  occ. eigenvalues --  -26.38436 -15.43527 -15.42437 -15.42337 -11.28862
 Alpha  occ. eigenvalues --  -11.20331 -11.19961 -11.19740 -11.19715  -1.50856
 Alpha  occ. eigenvalues --   -1.13804  -1.13033  -1.12002  -1.03094  -0.88463
 Alpha  occ. eigenvalues --   -0.71806  -0.65201  -0.64293  -0.62445  -0.56381
 Alpha  occ. eigenvalues --   -0.52868  -0.51487  -0.50963  -0.49200  -0.47724
 Alpha  occ. eigenvalues --   -0.41415  -0.40881  -0.40578  -0.40051  -0.39164
 Alpha  occ. eigenvalues --   -0.37672  -0.13027
 Alpha virt. eigenvalues --    0.14088   0.15252   0.16458   0.18284   0.18897
 Alpha virt. eigenvalues --    0.19259   0.20693   0.21578   0.22254   0.22322
 Alpha virt. eigenvalues --    0.23055   0.23472   0.24070   0.24506   0.25410

 Mulliken charges:
               1
     1  C    1.686436
     2  C    0.077912
     3  F   -0.832747
     4  H    0.280596
     5  H    0.241661
     6  C   -1.753069
     7  N    0.931712
     8  C   -1.289799
     9  N    0.911910
    10  C   -1.677243
    11  N    0.917495
    12  H   -0.494865
 Sum of Mulliken charges =  -1.00000

 Dipole moment (field-independent basis, Debye):
    X=              0.1786    Y=             -2.1992    Z=             -6.2296  Tot=              6.6088

 Test job not archived.
 1\1\GINC-SE362\SP\RHF\Aug-CC-pVDZ\C5H3F1N3(1-)\OHZDE\09-Apr-2025\0\\#t
  hf aug-cc-pvdz iop(5/13=1,5/36=2,99/5=2) pseudo=read geom=check guess
 =(read,tcheck) scf=(maxcycle=1)\\title\\-1,1\C,0,-0.185197,-0.077749,-
 1.461846\C,0,-0.006898,0.032879,0.046016\F,0,-1.459584,-0.488204,-1.83
 0323\H,0,1.093495,0.022739,0.075926\H,0,0.551171,-0.818606,-1.793706\C
 ,0,0.09569,1.201861,-2.128143\N,0,0.269786,2.206656,-2.709162\C,0,-0.4
 80325,-1.174251,0.702466\N,0,-0.80144,-2.168594,1.240923\C,0,-0.592373
 ,1.22064,0.636609\N,0,-1.009427,2.201786,1.135375\H,0,2.416154,-0.2669

 Normal termination of Gaussian 16 at Wed Apr  9 03:00:56 2025.
