 Gaussian 16, Revision C.01,

 ----------------------------------------------------------------------
 #t hf aug-cc-pvdz symm=none int=(grid=ultrafine) guess=(read,tcheck) s
 table=(opt,rrhf)
 ----------------------------------------------------------------------
 -----
 title
 -----
 Symbolic Z-matrix:
 Charge = -1 Multiplicity = 1

 SCF Done:  E(RHF) =  -943.980968704     A.U. after   17 cycles
 Normal termination of Gaussian 16 at Wed Apr  9 02:37:41 2025.
 Gaussian 16:  ES64L-G16RevC.01  3-Jul-2019

 ----------------------------------------------------------------------
 #t hf aug-cc-pvdz iop(5/13=1,5/36=2,99/5=2) pseudo=read geom=check gue
 ss=(read,tcheck) scf=(maxcycle=1)
 ----------------------------------------------------------------------
 -----
 title
 -----
 Structure from the checkpoint file:  "E2SN2_141_mol1.chk"
 Charge = -1 Multiplicity = 1

                         Standard orientation:
 ---------------------------------------------------------------------
 Center     Atomic      Atomic             Coordinates (Angstroms)
 Number     Number       Type             X           Y           Z
 ---------------------------------------------------------------------
      1          6           0        0.779209   -0.194303   -0.261002
      2          6           0       -0.699027   -0.448662   -0.504876
      3         17           0        1.219761   -0.496258    1.498262
      4          1           0       -0.581335   -1.012833   -2.901832
      5          1           0       -0.776101   -0.376472   -1.707263
      6          7           0        1.586490   -1.091350   -1.066759
      7          1           0        1.132050   -1.083773   -1.995302
      8          1           0        1.433257   -2.028554   -0.708168
      9          6           0        1.207876    1.171971   -0.587283
     10          7           0        1.608468    2.225410   -0.918253
     11          7           0       -1.140235   -1.774652   -0.294140
     12          1           0       -0.630919   -2.264475    0.428739
     13          1           0       -1.099964   -2.256872   -1.193228
     14          7           0       -1.595040    0.534614    0.136348
     15          8           0       -1.087061    1.541988    0.649897
     16          8           0       -2.807819    0.336410    0.065753
 ---------------------------------------------------------------------

 SCF Done:  E(RHF) =  -944.537272883     A.U. after    2 cycles

 The electronic state is 1-A.
 Alpha  occ. eigenvalues -- -105.46347 -20.45773 -20.45761 -15.65296 -15.40843
 Alpha  occ. eigenvalues --  -15.39839 -15.38648 -11.27686 -11.19372 -11.18078
 Alpha  occ. eigenvalues --  -10.51198  -7.68127  -7.67770  -7.67752  -1.52644
 Alpha  occ. eigenvalues --   -1.36437  -1.15952  -1.10787  -1.08466  -0.97940
 Alpha  occ. eigenvalues --   -0.94700  -0.84228  -0.73412  -0.66919  -0.65618
 Alpha  occ. eigenvalues --   -0.62738  -0.60598  -0.59264  -0.57261  -0.55112
 Alpha  occ. eigenvalues --   -0.50291  -0.48090  -0.42633  -0.40260  -0.39136
 Alpha  occ. eigenvalues --   -0.38305  -0.37509  -0.36535  -0.35811  -0.34484
 Alpha  occ. eigenvalues --   -0.33393  -0.31569  -0.14491
 Alpha virt. eigenvalues --    0.12493   0.14161   0.15355   0.16686   0.17320
 Alpha virt. eigenvalues --    0.17508   0.19023   0.19500   0.20644   0.21730
 Alpha virt. eigenvalues --    0.22483   0.23578   0.23981   0.24862   0.25072

 Mulliken charges:
               1
     1  C   -1.066532
     2  C   -2.141662
     3  Cl  -0.000189
     4  H   -0.470853
     5  H    0.225317
     6  N    0.757581
     7  H    0.250386
     8  H    0.248676
     9  C   -1.501126
    10  N    1.036729
    11  N    0.946959
    12  H    0.222501
    13  H    0.361387
    14  N    3.073762
    15  O   -1.413747
    16  O   -1.529187
 Sum of Mulliken charges =  -1.00000

 Dipole moment (field-independent basis, Debye):
    X=              1.9032    Y=             -3.5766    Z=              6.2774  Tot=              7.4713

 Test job not archived.
 1\1\GINC-SE273\SP\RHF\Aug-CC-pVDZ\C3H6Cl1N4O2(1-)\OHZDE\09-Apr-2025\0\
 \#t hf aug-cc-pvdz iop(5/13=1,5/36=2,99/5=2) pseudo=read geom=check gu
 ess=(read,tcheck) scf=(maxcycle=1)\\title\\-1,1\C,0,-0.09646848,0.0402
 6531,-0.36389243\C,0,-0.14723814,0.11116227,1.15325981\Cl,0,1.62052697
 ,-0.24880479,-0.95434606\H,0,-2.48420607,-0.60535906,1.4737503\H,0,-1.
 33469705,0.12781369,1.36901605\N,0,-0.90851116,-1.06135309,-0.84624488
 \H,0,-1.77631731,-1.00647237,-0.28707848\H,0,-0.45515656,-1.9172154,-0
 .54229076\C,0,-0.58633652,1.25334792,-1.03125979\N,0,-1.05061304,2.168

 Normal termination of Gaussian 16 at Wed Apr  9 02:37:51 2025.
