 Gaussian 16, Revision C.01,

 ----------------------------------------------------------------------
 #t hf aug-cc-pvdz symm=none int=(grid=ultrafine) guess=(read,tcheck) s
 table=(opt,rrhf)
 ----------------------------------------------------------------------
 -----
 title
 -----
 Symbolic Z-matrix:
 Charge = -1 Multiplicity = 1

 SCF Done:  E(RHF) =  -463.341248479     A.U. after   15 cycles
 Normal termination of Gaussian 16 at Wed Apr  9 02:39:54 2025.
 Gaussian 16:  ES64L-G16RevC.01  3-Jul-2019

 ----------------------------------------------------------------------
 #t hf aug-cc-pvdz iop(5/13=1,5/36=2,99/5=2) pseudo=read geom=check gue
 ss=(read,tcheck) scf=(maxcycle=1)
 ----------------------------------------------------------------------
 -----
 title
 -----
 Structure from the checkpoint file:  "E2SN2_179_mol1.chk"
 Charge = -1 Multiplicity = 1

                         Standard orientation:
 ---------------------------------------------------------------------
 Center     Atomic      Atomic             Coordinates (Angstroms)
 Number     Number       Type             X           Y           Z
 ---------------------------------------------------------------------
      1          6           0        0.265167    0.170985   -0.581591
      2          1           0       -0.898369    1.559002    0.480320
      3          9           0       -0.246906   -1.468328   -0.959214
      4          9           0        1.024606    1.840473   -0.316440
      5          6           0       -0.952910    0.491932    0.276779
      6          1           0        0.247837    0.429521   -1.624827
      7          6           0        1.489856   -0.328338    0.009672
      8          7           0        2.456341   -0.778290    0.503163
      9          6           0       -0.916474   -0.282206    1.592639
     10          1           0       -0.890906   -1.351984    1.380735
     11          1           0       -0.036062   -0.017281    2.184397
     12          1           0       -1.809078   -0.051545    2.185885
     13          7           0       -2.156248    0.234967   -0.525550
     14          1           0       -2.965106    0.297820    0.083830
     15          1           0       -2.062095   -0.725806   -0.837739
 ---------------------------------------------------------------------

 SCF Done:  E(RHF) =  -463.797332569     A.U. after    2 cycles

 The electronic state is 1-A.
 Alpha  occ. eigenvalues --  -26.19298 -26.14968 -15.35623 -15.34883 -11.22115
 Alpha  occ. eigenvalues --  -11.14198 -11.13207 -11.09490  -1.27899  -1.22889
 Alpha  occ. eigenvalues --   -1.06267  -1.05314  -0.89743  -0.82527  -0.70498
 Alpha  occ. eigenvalues --   -0.59349  -0.56512  -0.50303  -0.48188  -0.45504
 Alpha  occ. eigenvalues --   -0.44526  -0.42913  -0.40619  -0.39055  -0.35766
 Alpha  occ. eigenvalues --   -0.35063  -0.33828  -0.32497  -0.31602  -0.29618
 Alpha  occ. eigenvalues --   -0.28618  -0.27302
 Alpha virt. eigenvalues --    0.12217   0.13620   0.14730   0.15317   0.16440
 Alpha virt. eigenvalues --    0.17151   0.17415   0.19978   0.22891   0.23765
 Alpha virt. eigenvalues --    0.24519   0.25899   0.26429   0.26923   0.27438

 Mulliken charges:
               1
     1  C    2.275587
     2  H    0.145802
     3  F   -0.904490
     4  F   -0.895154
     5  C   -1.746026
     6  H   -0.018399
     7  C   -2.282788
     8  N    0.910713
     9  C   -0.033204
    10  H    0.326699
    11  H    0.260960
    12  H    0.036039
    13  N    0.521419
    14  H    0.146129
    15  H    0.256714
 Sum of Mulliken charges =  -1.00000

 Dipole moment (field-independent basis, Debye):
    X=             -5.7729    Y=             -0.4908    Z=              1.6406  Tot=              6.0216

 Test job not archived.
 1\1\GINC-SE112\SP\RHF\Aug-CC-pVDZ\C4H7F2N2(1-)\OHZDE\09-Apr-2025\0\\#t
  hf aug-cc-pvdz iop(5/13=1,5/36=2,99/5=2) pseudo=read geom=check guess
 =(read,tcheck) scf=(maxcycle=1)\\title\\-1,1\C,0,0.6372319,0.00180671,
 -0.01229849\H,0,1.71178501,1.80324322,-0.10299218\F,0,-1.11085566,-0.1
 1789146,-0.16072271\F,0,2.47696182,-0.13458476,0.16385921\C,0,0.663235
 55,1.52586661,-0.02144568\H,0,0.76414378,-0.52519854,-0.94054454\C,0,0
 .60076541,-0.74106243,1.2309208\N,0,0.5219753,-1.32286972,2.24845416\C
 ,0,0.08350856,2.09249166,1.27275558\H,0,-0.94414733,1.74566355,1.38943

 Normal termination of Gaussian 16 at Wed Apr  9 02:39:59 2025.
