 Gaussian 16, Revision C.01,

 ----------------------------------------------------------------------
 #t hf aug-cc-pvdz symm=none int=(grid=ultrafine) guess=(read,tcheck) s
 table=(opt,rrhf)
 ----------------------------------------------------------------------
 -----
 title
 -----
 Symbolic Z-matrix:
 Charge = -1 Multiplicity = 1

 SCF Done:  E(RHF) =  -896.175835757     A.U. after   15 cycles
 Normal termination of Gaussian 16 at Wed Apr  9 02:39:49 2025.
 Gaussian 16:  ES64L-G16RevC.01  3-Jul-2019

 ----------------------------------------------------------------------
 #t hf aug-cc-pvdz iop(5/13=1,5/36=2,99/5=2) pseudo=read geom=check gue
 ss=(read,tcheck) scf=(maxcycle=1)
 ----------------------------------------------------------------------
 -----
 title
 -----
 Structure from the checkpoint file:  "E2SN2_173_mol2.chk"
 Charge = -1 Multiplicity = 1

                         Standard orientation:
 ---------------------------------------------------------------------
 Center     Atomic      Atomic             Coordinates (Angstroms)
 Number     Number       Type             X           Y           Z
 ---------------------------------------------------------------------
      1          6           0       -0.012889    0.000338   -0.065964
      2          6           0        0.839319   -0.224341    1.172655
      3         17           0       -0.196411    1.747326   -0.422983
      4          1           0        0.752383   -1.290040    1.400124
      5          1           0        0.517738   -0.508877   -0.908299
      6          1           0        0.449564    0.342479    2.023405
      7          7           0       -1.404192   -0.541672    0.077002
      8          8           0       -2.042222   -0.733961   -0.956092
      9          8           0       -1.829462   -0.770729    1.212104
     10          7           0        2.244371    0.062247    0.928432
     11          1           0        2.327621    1.045769    0.692887
     12          1           0        2.434729   -0.473918    0.058617
     13          9           0        1.887845   -1.342493   -1.311367
 ---------------------------------------------------------------------

 SCF Done:  E(RHF) =  -896.679964829     A.U. after    2 cycles

 The electronic state is 1-A.
 Alpha  occ. eigenvalues -- -105.45235 -26.10613 -20.47256 -20.47183 -15.66414
 Alpha  occ. eigenvalues --  -15.33026 -11.20761 -11.13610 -10.50086  -7.67032
 Alpha  occ. eigenvalues --   -7.66664  -7.66637  -1.54033  -1.37867  -1.17284
 Alpha  occ. eigenvalues --   -1.06594  -1.00690  -0.90676  -0.80101  -0.70758
 Alpha  occ. eigenvalues --   -0.64087  -0.62468  -0.61258  -0.56185  -0.49668
 Alpha  occ. eigenvalues --   -0.46599  -0.43948  -0.40245  -0.38150  -0.36718
 Alpha  occ. eigenvalues --   -0.35022  -0.34523  -0.32589  -0.30330  -0.27034
 Alpha  occ. eigenvalues --   -0.26402  -0.25243
 Alpha virt. eigenvalues --    0.14154   0.15199   0.15747   0.17099   0.17728
 Alpha virt. eigenvalues --    0.18985   0.19672   0.22089   0.22803   0.24124
 Alpha virt. eigenvalues --    0.26633   0.26860   0.27553   0.28237   0.28897

 Mulliken charges:
               1
     1  C   -0.652786
     2  C   -0.554632
     3  Cl  -0.102951
     4  H    0.222232
     5  H    0.356792
     6  H    0.133398
     7  N    2.776921
     8  O   -1.447559
     9  O   -1.381017
    10  N    0.232822
    11  H    0.226155
    12  H    0.196083
    13  F   -1.005459
 Sum of Mulliken charges =  -1.00000

 Dipole moment (field-independent basis, Debye):
    X=             -3.9487    Y=              4.3110    Z=              2.9589  Tot=              6.5522

 Test job not archived.
 1\1\GINC-SE143\SP\RHF\Aug-CC-pVDZ\C2H5Cl1F1N2O2(1-)\OHZDE\09-Apr-2025\
 0\\#t hf aug-cc-pvdz iop(5/13=1,5/36=2,99/5=2) pseudo=read geom=check
 guess=(read,tcheck) scf=(maxcycle=1)\\title\\-1,1\C,0,-0.273957,-0.099
 471,0.071178\C,0,-0.622424,-0.373196,-1.382975\Cl,0,1.260259,0.81665,0
 .212657\H,0,-1.465708,-1.06835,-1.357504\H,0,-1.119084,0.502368,0.4882
 45\H,0,0.210075,-0.860183,-1.89946\N,0,-0.082812,-1.35373,0.871325\O,0
 ,-0.155389,-1.25739,2.094759\O,0,0.128281,-2.407747,0.266125\N,0,-1.06
 1123,0.828603,-2.075197\H,0,-0.28912,1.487171,-2.080358\H,0,-1.779598,

 Normal termination of Gaussian 16 at Wed Apr  9 02:39:54 2025.
