 Gaussian 16, Revision C.01,

 ----------------------------------------------------------------------
 #t hf aug-cc-pvdz symm=none int=(grid=ultrafine) guess=(read,tcheck) s
 table=(opt,rrhf)
 ----------------------------------------------------------------------
 -----
 title
 -----
 Symbolic Z-matrix:
 Charge = -1 Multiplicity = 1

 SCF Done:  E(RHF) =  -839.414088152     A.U. after   16 cycles
 Normal termination of Gaussian 16 at Wed Apr  9 02:39:59 2025.
 Gaussian 16:  ES64L-G16RevC.01  3-Jul-2019

 ----------------------------------------------------------------------
 #t hf aug-cc-pvdz iop(5/13=1,5/36=2,99/5=2) pseudo=read geom=check gue
 ss=(read,tcheck) scf=(maxcycle=1)
 ----------------------------------------------------------------------
 -----
 title
 -----
 Structure from the checkpoint file:  "E2SN2_183_mol1.chk"
 Charge = -1 Multiplicity = 1

                         Standard orientation:
 ---------------------------------------------------------------------
 Center     Atomic      Atomic             Coordinates (Angstroms)
 Number     Number       Type             X           Y           Z
 ---------------------------------------------------------------------
      1          6           0       -0.079136   -0.253949    0.566865
      2          1           0       -1.048087    1.529169    1.000839
      3         17           0        2.075571   -0.408832    0.117893
      4          9           0       -1.935462   -0.455260    1.119209
      5          6           0       -0.472367    1.170727    0.143273
      6          1           0        0.131634   -0.440815    1.603643
      7          6           0       -0.381588   -1.392126   -0.269886
      8          7           0       -0.607829   -2.326034   -0.947041
      9          7           0       -1.312234    1.042886   -1.052347
     10          1           0       -1.710372    1.956123   -1.248454
     11          1           0       -2.076589    0.438144   -0.758478
     12          7           0        0.630841    2.093289   -0.032693
     13          1           0        0.237164    2.987254   -0.309065
     14          1           0        1.223791    1.758700   -0.782503
 ---------------------------------------------------------------------

 SCF Done:  E(RHF) =  -839.871315932     A.U. after    2 cycles

 The electronic state is 1-A.
 Alpha  occ. eigenvalues -- -105.35141 -26.15857 -15.36574 -15.36442 -15.35822
 Alpha  occ. eigenvalues --  -11.23747 -11.17953 -11.15124 -10.39941  -7.56780
 Alpha  occ. eigenvalues --   -7.56591  -7.56570  -1.23612  -1.10807  -1.06874
 Alpha  occ. eigenvalues --   -1.01048  -0.91462  -0.80269  -0.73750  -0.61097
 Alpha  occ. eigenvalues --   -0.59426  -0.57084  -0.52021  -0.48189  -0.46608
 Alpha  occ. eigenvalues --   -0.45049  -0.41070  -0.34728  -0.34555  -0.33742
 Alpha  occ. eigenvalues --   -0.31771  -0.31151  -0.30252  -0.27212  -0.26165
 Alpha  occ. eigenvalues --   -0.25480
 Alpha virt. eigenvalues --    0.11963   0.13898   0.14669   0.15335   0.16736
 Alpha virt. eigenvalues --    0.17846   0.20246   0.20655   0.23106   0.23439
 Alpha virt. eigenvalues --    0.24990   0.25770   0.25956   0.26775   0.27395

 Mulliken charges:
               1
     1  C    0.965743
     2  H    0.160103
     3  Cl  -0.558991
     4  F   -0.883475
     5  C   -2.046635
     6  H    0.056839
     7  C   -1.574999
     8  N    0.895589
     9  N    0.504751
    10  H    0.094324
    11  H    0.305731
    12  N    0.653255
    13  H    0.145691
    14  H    0.282073
 Sum of Mulliken charges =  -1.00000

 Dipole moment (field-independent basis, Debye):
    X=             -0.4744    Y=              6.3305    Z=              0.1252  Tot=              6.3495

 Test job not archived.
 1\1\GINC-SE080\SP\RHF\Aug-CC-pVDZ\C3H6Cl1F1N3(1-)\OHZDE\09-Apr-2025\0\
 \#t hf aug-cc-pvdz iop(5/13=1,5/36=2,99/5=2) pseudo=read geom=check gu
 ess=(read,tcheck) scf=(maxcycle=1)\\title\\-1,1\C,0,0.61782108,-0.0180
 0775,-0.00054598\H,0,1.61979144,1.71315123,-0.55358654\Cl,0,-1.3206410
 2,-0.64481086,-0.84778249\F,0,2.39777735,0.16708455,0.76695056\C,0,0.6
 3180425,1.51393399,-0.12985728\H,0,1.12384002,-0.60030337,-0.74829503\
 C,0,0.32497672,-0.65833422,1.26092057\N,0,0.07392621,-1.19347738,2.277
 04245\N,0,0.50955843,2.0568861,1.22715635\H,0,0.6789266,3.05669774,1.1

 Normal termination of Gaussian 16 at Wed Apr  9 02:40:04 2025.
