 Gaussian 16, Revision C.01,

 ----------------------------------------------------------------------
 #t hf aug-cc-pvdz symm=none int=(grid=ultrafine) guess=(read,tcheck) s
 table=(opt,rrhf)
 ----------------------------------------------------------------------
 -----
 title
 -----
 Symbolic Z-matrix:
 Charge = -1 Multiplicity = 1

 SCF Done:  E(RHF) =  -630.224270949     A.U. after   16 cycles
 Normal termination of Gaussian 16 at Wed Apr  9 02:57:09 2025.
 Gaussian 16:  ES64L-G16RevC.01  3-Jul-2019

 ----------------------------------------------------------------------
 #t hf aug-cc-pvdz iop(5/13=1,5/36=2,99/5=2) pseudo=read geom=check gue
 ss=(read,tcheck) scf=(maxcycle=1)
 ----------------------------------------------------------------------
 -----
 title
 -----
 Structure from the checkpoint file:  "E2SN2_361_mol2.chk"
 Charge = -1 Multiplicity = 1

                         Standard orientation:
 ---------------------------------------------------------------------
 Center     Atomic      Atomic             Coordinates (Angstroms)
 Number     Number       Type             X           Y           Z
 ---------------------------------------------------------------------
      1          6           0        0.439482    0.798307   -0.027124
      2          6           0       -0.326844   -0.401689   -0.599884
      3          9           0       -0.431513    1.901233   -0.149266
      4          1           0       -0.552898   -0.148871   -1.639529
      5          6           0        0.823273    0.675009    1.434395
      6          1           0       -0.026111    0.418287    2.066041
      7          1           0        1.232141    1.641300    1.747938
      8          1           0        1.608497   -0.080051    1.492745
      9          7           0        1.555819    1.025629   -0.908411
     10          1           0        1.991968    1.889045   -0.595029
     11          1           0        2.227828    0.260215   -0.679821
     12          7           0       -1.742736   -0.410176    0.013880
     13          8           0       -1.889660   -0.775099    1.176204
     14          8           0       -2.665516   -0.065033   -0.728914
     15          7           0        0.318069   -1.637608   -0.373580
     16          1           0        1.338381   -1.529826   -0.156103
     17          1           0        0.210952   -2.240776   -1.176406
     18          9           0        2.862304   -1.097116    0.081966
 ---------------------------------------------------------------------

 SCF Done:  E(RHF) =  -630.844040836     A.U. after    2 cycles

 The electronic state is 1-A.
 Alpha  occ. eigenvalues --  -26.31780 -26.12516 -20.45753 -20.45743 -15.64144
 Alpha  occ. eigenvalues --  -15.34777 -15.34230 -11.22476 -11.19740 -11.08823
 Alpha  occ. eigenvalues --   -1.52458  -1.44270  -1.36372  -1.19566  -1.09695
 Alpha  occ. eigenvalues --   -1.04357  -0.92746  -0.86570  -0.76757  -0.69359
 Alpha  occ. eigenvalues --   -0.62999  -0.62525  -0.61637  -0.57818  -0.55768
 Alpha  occ. eigenvalues --   -0.54626  -0.53211  -0.49775  -0.47920  -0.45105
 Alpha  occ. eigenvalues --   -0.43800  -0.40709  -0.38824  -0.35792  -0.35110
 Alpha  occ. eigenvalues --   -0.32466  -0.31491  -0.31202  -0.28737  -0.28122
 Alpha  occ. eigenvalues --   -0.28016
 Alpha virt. eigenvalues --    0.13224   0.13865   0.14359   0.15243   0.16639
 Alpha virt. eigenvalues --    0.17446   0.18509   0.19033   0.19925   0.21096
 Alpha virt. eigenvalues --    0.22726   0.23882   0.24541   0.25243   0.25933

 Mulliken charges:
               1
     1  C   -0.142020
     2  C   -1.591830
     3  F   -1.072073
     4  H    0.059757
     5  C   -0.140426
     6  H    0.226735
     7  H    0.105987
     8  H    0.206408
     9  N    0.611620
    10  H    0.273387
    11  H    0.238435
    12  N    3.067384
    13  O   -1.487912
    14  O   -1.474837
    15  N    0.786887
    16  H    0.177510
    17  H    0.234978
    18  F   -1.079992
 Sum of Mulliken charges =  -1.00000

 Dipole moment (field-independent basis, Debye):
    X=             -3.1176    Y=              2.3343    Z=             -0.4618  Tot=              3.9220

 Test job not archived.
 1\1\GINC-SE165\SP\RHF\Aug-CC-pVDZ\C3H8F2N3O2(1-)\OHZDE\09-Apr-2025\0\\
 #t hf aug-cc-pvdz iop(5/13=1,5/36=2,99/5=2) pseudo=read geom=check gue
 ss=(read,tcheck) scf=(maxcycle=1)\\title\\-1,1\C,0,-0.046428,-0.0844,-
 0.035553\C,0,-0.318956,-0.403542,-1.511756\F,0,1.301322,-0.435587,0.18
 8577\H,0,-0.131079,-1.474318,-1.630162\C,0,-0.21128,1.373676,0.345726\
 H,0,0.352256,2.039284,-0.306753\H,0,0.144566,1.484849,1.375393\H,0,-1.
 279911,1.590537,0.312608\N,0,-0.864882,-0.986652,0.732969\H,0,-0.59567
 5,-0.854364,1.70454\H,0,-1.831086,-0.601751,0.643477\N,0,0.828556,0.19

 Normal termination of Gaussian 16 at Wed Apr  9 02:57:19 2025.
