 Gaussian 16, Revision C.01,

 ----------------------------------------------------------------------
 #t hf aug-cc-pvdz symm=none int=(grid=ultrafine) guess=(read,tcheck) s
 table=(opt,rrhf)
 ----------------------------------------------------------------------
 -----
 title
 -----
 Symbolic Z-matrix:
 Charge = -1 Multiplicity = 1

 SCF Done:  E(RHF) =  -567.891691655     A.U. after   17 cycles
 Normal termination of Gaussian 16 at Wed Apr  9 02:59:00 2025.
 Gaussian 16:  ES64L-G16RevC.01  3-Jul-2019

 ----------------------------------------------------------------------
 #t hf aug-cc-pvdz iop(5/13=1,5/36=2,99/5=2) pseudo=read geom=check gue
 ss=(read,tcheck) scf=(maxcycle=1)
 ----------------------------------------------------------------------
 -----
 title
 -----
 Structure from the checkpoint file:  "E2SN2_390_mol1.chk"
 Charge = -1 Multiplicity = 1

                         Standard orientation:
 ---------------------------------------------------------------------
 Center     Atomic      Atomic             Coordinates (Angstroms)
 Number     Number       Type             X           Y           Z
 ---------------------------------------------------------------------
      1          6           0        0.737695   -0.430277   -0.013345
      2          1           0       -0.318439    0.462767   -1.664372
      3          9           0        0.815152    0.211859    1.491734
      4          1           0        0.923016   -1.165632   -1.679116
      5          6           0       -0.343422    0.520733   -0.582339
      6          7           0        0.349635   -1.740496    0.455245
      7          1           0        0.783182   -1.870458    1.360972
      8          1           0        0.652550   -2.425606   -0.217741
      9          6           0        2.074115   -0.130413   -0.469278
     10          7           0        3.185890    0.240915   -0.635254
     11          6           0       -0.251999    1.955286   -0.098091
     12          1           0       -0.444281    2.011687    0.967858
     13          1           0        0.755507    2.328775   -0.294666
     14          1           0       -0.969293    2.575472   -0.646348
     15          7           0       -1.678552   -0.054886   -0.222105
     16          8           0       -2.250239   -0.724166   -1.082017
     17          8           0       -2.126731    0.169860    0.899632
 ---------------------------------------------------------------------

 SCF Done:  E(RHF) =  -568.446607416     A.U. after    2 cycles

 The electronic state is 1-A.
 Alpha  occ. eigenvalues --  -26.23808 -20.45894 -20.45840 -15.65243 -15.36886
 Alpha  occ. eigenvalues --  -15.35713 -11.26931 -11.18315 -11.15181 -11.11968
 Alpha  occ. eigenvalues --   -1.52887  -1.36706  -1.33484  -1.08449  -1.05486
 Alpha  occ. eigenvalues --   -1.01236  -0.85706  -0.83601  -0.71573  -0.64456
 Alpha  occ. eigenvalues --   -0.63161  -0.60991  -0.59653  -0.57445  -0.53842
 Alpha  occ. eigenvalues --   -0.46850  -0.46133  -0.45217  -0.43803  -0.41267
 Alpha  occ. eigenvalues --   -0.39306  -0.38580  -0.36394  -0.35259  -0.34969
 Alpha  occ. eigenvalues --   -0.33693  -0.33028  -0.31523  -0.14353
 Alpha virt. eigenvalues --    0.12538   0.13941   0.14287   0.15087   0.15863
 Alpha virt. eigenvalues --    0.16500   0.18758   0.19068   0.20307   0.22763
 Alpha virt. eigenvalues --    0.23067   0.23902   0.24571   0.24675   0.25651

 Mulliken charges:
               1
     1  C    0.097841
     2  H    0.089688
     3  F   -0.967492
     4  H   -0.256658
     5  C   -1.107607
     6  N    0.475956
     7  H    0.280026
     8  H    0.302300
     9  C   -1.948464
    10  N    1.059977
    11  C   -0.140103
    12  H    0.364264
    13  H    0.299623
    14  H    0.153665
    15  N    3.391163
    16  O   -1.526768
    17  O   -1.567413
 Sum of Mulliken charges =  -1.00000

 Dipole moment (field-independent basis, Debye):
    X=             -3.9056    Y=              1.8923    Z=              1.5418  Tot=              4.6056

 Test job not archived.
 1\1\GINC-SE116\SP\RHF\Aug-CC-pVDZ\C4H7F1N3O2(1-)\OHZDE\09-Apr-2025\0\\
 #t hf aug-cc-pvdz iop(5/13=1,5/36=2,99/5=2) pseudo=read geom=check gue
 ss=(read,tcheck) scf=(maxcycle=1)\\title\\-1,1\C,0,0.53062612,-0.08492
 494,0.03529274\H,0,1.60530749,1.76869576,0.25434809\F,0,-1.06633857,-0
 .27147745,0.34914318\H,0,2.35099434,-0.09405038,-0.15460054\C,0,0.5742
 7443,1.46001826,0.12601868\N,0,0.4530366,-0.71404895,-1.26279213\H,0,-
 0.27699291,-1.41356339,-1.20865577\H,0,1.35165728,-1.11244222,-1.48144
 161\C,0,1.08009071,-0.75107424,1.19207565\N,0,1.29906096,-1.30561275,2

 Normal termination of Gaussian 16 at Wed Apr  9 02:59:09 2025.
