 Gaussian 16, Revision C.01,

 ----------------------------------------------------------------------
 #t hf aug-cc-pvdz symm=none int=(grid=ultrafine) guess=(read,tcheck) s
 table=(opt,rrhf)
 ----------------------------------------------------------------------
 -----
 title
 -----
 Symbolic Z-matrix:
 Charge = -1 Multiplicity = 1

 SCF Done:  E(RHF) =  -1384.71072489     A.U. after   16 cycles
 Normal termination of Gaussian 16 at Wed Apr  9 02:43:43 2025.
 Gaussian 16:  ES64L-G16RevC.01  3-Jul-2019

 ----------------------------------------------------------------------
 #t hf aug-cc-pvdz iop(5/13=1,5/36=2,99/5=2) pseudo=read geom=check gue
 ss=(read,tcheck) scf=(maxcycle=1)
 ----------------------------------------------------------------------
 -----
 title
 -----
 Structure from the checkpoint file:  "E2SN2_216_mol2.chk"
 Charge = -1 Multiplicity = 1

                         Standard orientation:
 ---------------------------------------------------------------------
 Center     Atomic      Atomic             Coordinates (Angstroms)
 Number     Number       Type             X           Y           Z
 ---------------------------------------------------------------------
      1          6           0        0.018896   -0.357764   -0.506713
      2          6           0        0.342395    0.776286    0.461628
      3         17           0        1.430413   -0.838958   -1.462817
      4          1           0       -0.606590    0.961181    0.994039
      5          1           0       -0.795047   -0.047324   -1.159170
      6          7           0       -0.490101   -1.570350    0.235684
      7          8           0       -0.936637   -2.468165   -0.464669
      8          8           0       -0.417711   -1.566276    1.459622
      9          6           0        0.665070    1.982148   -0.305394
     10          7           0        0.954677    2.947421   -0.907159
     11          6           0        1.447776    0.472381    1.372649
     12          7           0        2.350137    0.280064    2.098783
     13         17           0       -2.742847    0.987395    0.055837
 ---------------------------------------------------------------------

 SCF Done:  E(RHF) =  -1385.30521626     A.U. after    2 cycles

 The electronic state is 1-A.
 Alpha  occ. eigenvalues -- -105.50526-105.30683 -20.51020 -20.50617 -15.70626
 Alpha  occ. eigenvalues --  -15.44221 -15.44169 -11.29776 -11.25016 -11.21539
 Alpha  occ. eigenvalues --  -11.21382 -10.55390 -10.35326  -7.72352  -7.71936
 Alpha  occ. eigenvalues --   -7.71921  -7.52102  -7.52064  -7.52047  -1.58133
 Alpha  occ. eigenvalues --   -1.42290  -1.15834  -1.13794  -1.11118  -0.99317
 Alpha  occ. eigenvalues --   -0.95332  -0.78622  -0.76245  -0.72989  -0.67620
 Alpha  occ. eigenvalues --   -0.66222  -0.66014  -0.61817  -0.57810  -0.53058
 Alpha  occ. eigenvalues --   -0.52409  -0.50272  -0.44513  -0.42755  -0.41815
 Alpha  occ. eigenvalues --   -0.41265  -0.40657  -0.39854  -0.39093  -0.38384
 Alpha  occ. eigenvalues --   -0.35822  -0.23727  -0.23249  -0.23133
 Alpha virt. eigenvalues --    0.13637   0.14301   0.15478   0.16655   0.17265
 Alpha virt. eigenvalues --    0.17838   0.20230   0.20724   0.21788   0.22008
 Alpha virt. eigenvalues --    0.22531   0.23259   0.23624   0.24613   0.24628

 Mulliken charges:
               1
     1  C   -0.499071
     2  C    0.859747
     3  Cl   0.046339
     4  H    0.470665
     5  H    0.139480
     6  N    2.919114
     7  O   -1.493101
     8  O   -1.367921
     9  C   -1.557864
    10  N    1.018529
    11  C   -1.589298
    12  N    0.990856
    13  Cl  -0.937474
 Sum of Mulliken charges =  -1.00000

 Dipole moment (field-independent basis, Debye):
    X=              5.5530    Y=             -3.7914    Z=             -1.6208  Tot=              6.9165

 Test job not archived.
 1\1\GINC-SE113\SP\RHF\Aug-CC-pVDZ\C4H2Cl2N3O2(1-)\OHZDE\09-Apr-2025\0\
 \#t hf aug-cc-pvdz iop(5/13=1,5/36=2,99/5=2) pseudo=read geom=check gu
 ess=(read,tcheck) scf=(maxcycle=1)\\title\\-1,1\C,0,-0.09029,0.033808,
 0.007215\C,0,-0.569878,0.022504,-1.441326\Cl,0,1.649015,-0.277159,0.13
 4428\H,0,-1.649641,0.241219,-1.374272\H,0,-0.651876,-0.706564,0.573824
 \N,0,-0.386337,1.362254,0.661573\O,0,-0.195195,1.409457,1.868717\O,0,-
 0.785936,2.276643,-0.050813\C,0,-0.422325,-1.330779,-1.982989\N,0,-0.2
 81906,-2.403106,-2.439216\C,0,0.142588,0.968484,-2.302544\N,0,0.711464

 Normal termination of Gaussian 16 at Wed Apr  9 02:43:51 2025.
