 Gaussian 16, Revision C.01,

 ----------------------------------------------------------------------
 #t hf aug-cc-pvdz symm=none int=(grid=ultrafine) guess=(read,tcheck) s
 table=(opt,rrhf)
 ----------------------------------------------------------------------
 -----
 title
 -----
 Symbolic Z-matrix:
 Charge = -1 Multiplicity = 1

 SCF Done:  E(RHF) =  -935.205329056     A.U. after   16 cycles
 Normal termination of Gaussian 16 at Wed Apr  9 02:54:36 2025.
 Gaussian 16:  ES64L-G16RevC.01  3-Jul-2019

 ----------------------------------------------------------------------
 #t hf aug-cc-pvdz iop(5/13=1,5/36=2,99/5=2) pseudo=read geom=check gue
 ss=(read,tcheck) scf=(maxcycle=1)
 ----------------------------------------------------------------------
 -----
 title
 -----
 Structure from the checkpoint file:  "E2SN2_330_mol2.chk"
 Charge = -1 Multiplicity = 1

                         Standard orientation:
 ---------------------------------------------------------------------
 Center     Atomic      Atomic             Coordinates (Angstroms)
 Number     Number       Type             X           Y           Z
 ---------------------------------------------------------------------
      1          6           0       -0.351797   -0.301329    0.191585
      2          6           0        0.231010   -1.421093   -0.683536
      3         17           0       -2.166173   -0.375205   -0.002690
      4          1           0        0.025890   -1.155061   -1.722794
      5          1           0       -0.366201   -2.311265   -0.455573
      6          6           0        0.028299   -0.374340    1.642444
      7          1           0       -0.548888    0.338881    2.228755
      8          1           0       -0.153876   -1.387698    2.011656
      9          1           0        1.095303   -0.102391    1.649485
     10          7           0       -0.014936    1.088004   -0.355244
     11          8           0        0.291449    1.174342   -1.536873
     12          8           0       -0.193262    2.031314    0.402557
     13          7           0        1.639907   -1.702632   -0.499480
     14          1           0        1.736540   -2.236450    0.357904
     15          1           0        2.110615   -0.789998   -0.282034
     16          9           0        2.368911    0.584466    0.490329
 ---------------------------------------------------------------------

 SCF Done:  E(RHF) =  -935.751458403     A.U. after    2 cycles

 The electronic state is 1-A.
 Alpha  occ. eigenvalues -- -105.45014 -26.09530 -20.44499 -20.44318 -15.64406
 Alpha  occ. eigenvalues --  -15.32187 -11.23760 -11.13849 -11.09940 -10.49872
 Alpha  occ. eigenvalues --   -7.66806  -7.66451  -7.66439  -1.51987  -1.35958
 Alpha  occ. eigenvalues --   -1.16535  -1.06675  -1.00620  -0.89639  -0.84233
 Alpha  occ. eigenvalues --   -0.79523  -0.68254  -0.60503  -0.59698  -0.59353
 Alpha  occ. eigenvalues --   -0.54277  -0.50079  -0.49273  -0.44964  -0.42357
 Alpha  occ. eigenvalues --   -0.40870  -0.39522  -0.36425  -0.35088  -0.33791
 Alpha  occ. eigenvalues --   -0.33205  -0.30252  -0.29422  -0.26319  -0.25370
 Alpha  occ. eigenvalues --   -0.24613
 Alpha virt. eigenvalues --    0.12766   0.13645   0.14537   0.15057   0.16404
 Alpha virt. eigenvalues --    0.17471   0.18454   0.19704   0.20450   0.22624
 Alpha virt. eigenvalues --    0.23712   0.24389   0.25685   0.26365   0.26522

 Mulliken charges:
               1
     1  C   -1.733703
     2  C   -0.417829
     3  Cl  -0.133199
     4  H    0.184061
     5  H    0.101173
     6  C    0.052315
     7  H    0.159957
     8  H    0.253090
     9  H    0.385584
    10  N    3.536537
    11  O   -1.621353
    12  O   -1.642687
    13  N    0.462205
    14  H    0.268953
    15  H    0.158869
    16  F   -1.013975
 Sum of Mulliken charges =  -1.00000

 Dipole moment (field-independent basis, Debye):
    X=             -6.8478    Y=             -3.5803    Z=              1.2416  Tot=              7.8264

 Test job not archived.
 1\1\GINC-SE040\SP\RHF\Aug-CC-pVDZ\C3H7Cl1F1N2O2(1-)\OHZDE\09-Apr-2025\
 0\\#t hf aug-cc-pvdz iop(5/13=1,5/36=2,99/5=2) pseudo=read geom=check
 guess=(read,tcheck) scf=(maxcycle=1)\\title\\-1,1\C,0,-0.045543,0.0225
 53,-0.043164\C,0,-0.300708,0.105305,-1.555584\Cl,0,1.762676,-0.108548,
 0.17665\H,0,-0.012051,-0.857756,-1.98231\H,0,0.410123,0.84976,-1.93180
 3\C,0,-0.592955,1.173305,0.751131\H,0,-0.233307,1.138726,1.778286\H,0,
 -0.283523,2.112632,0.283887\H,0,-1.682914,1.019755,0.720872\N,0,-0.549
 42,-1.294408,0.552206\O,0,-0.709145,-2.238116,-0.210341\O,0,-0.642099,

 Normal termination of Gaussian 16 at Wed Apr  9 02:54:44 2025.
