 Gaussian 16, Revision C.01,

 ----------------------------------------------------------------------
 #t hf aug-cc-pvdz symm=none int=(grid=ultrafine) guess=(read,tcheck) s
 table=(opt,rrhf)
 ----------------------------------------------------------------------
 -----
 title
 -----
 Symbolic Z-matrix:
 Charge = -1 Multiplicity = 1

 SCF Done:  E(RHF) =  -472.181388806     A.U. after   16 cycles
 Normal termination of Gaussian 16 at Wed Apr  9 02:52:06 2025.
 Gaussian 16:  ES64L-G16RevC.01  3-Jul-2019

 ----------------------------------------------------------------------
 #t hf aug-cc-pvdz iop(5/13=1,5/36=2,99/5=2) pseudo=read geom=check gue
 ss=(read,tcheck) scf=(maxcycle=1)
 ----------------------------------------------------------------------
 -----
 title
 -----
 Structure from the checkpoint file:  "E2SN2_311_mol2.chk"
 Charge = -1 Multiplicity = 1

                         Standard orientation:
 ---------------------------------------------------------------------
 Center     Atomic      Atomic             Coordinates (Angstroms)
 Number     Number       Type             X           Y           Z
 ---------------------------------------------------------------------
      1          6           0       -0.662333   -0.040472   -0.430623
      2          6           0        0.584271    0.814177   -0.086090
      3          9           0       -0.313944   -0.814876   -1.575307
      4          1           0        0.639772    1.544755   -0.902699
      5          6           0       -0.893217   -1.049462    0.634456
      6          7           0       -1.115329   -1.803179    1.508650
      7          7           0       -1.757665    0.777654   -0.673925
      8          1           0       -1.641500    1.799008   -0.390242
      9          1           0       -2.640070    0.397479   -0.364989
     10          6           0        1.794240   -0.023216   -0.134348
     11          7           0        2.766107   -0.682103   -0.141893
     12          7           0        0.516422    1.551792    1.152265
     13          1           0        0.195667    0.948029    1.901738
     14          1           0       -0.176141    2.309259    0.993372
     15          1           0       -1.356740    3.220040    0.124531
 ---------------------------------------------------------------------

 SCF Done:  E(RHF) =  -472.644787935     A.U. after    2 cycles

 The electronic state is 1-A.
 Alpha  occ. eigenvalues --  -26.34823 -15.43302 -15.41008 -15.37577 -15.37294
 Alpha  occ. eigenvalues --  -11.29496 -11.20951 -11.19621 -11.18004  -1.46999
 Alpha  occ. eigenvalues --   -1.14424  -1.12323  -1.10649  -1.06874  -0.90710
 Alpha  occ. eigenvalues --   -0.82031  -0.69533  -0.63315  -0.62121  -0.59986
 Alpha  occ. eigenvalues --   -0.54650  -0.54468  -0.52901  -0.50290  -0.48554
 Alpha  occ. eigenvalues --   -0.48025  -0.46431  -0.41666  -0.41016  -0.38836
 Alpha  occ. eigenvalues --   -0.38312  -0.34315  -0.33588  -0.13783
 Alpha virt. eigenvalues --    0.13746   0.14684   0.15181   0.17058   0.17883
 Alpha virt. eigenvalues --    0.18096   0.18808   0.20346   0.20557   0.22008
 Alpha virt. eigenvalues --    0.22715   0.23081   0.23888   0.24253   0.24533

 Mulliken charges:
               1
     1  C    0.957565
     2  C   -0.870903
     3  F   -0.966701
     4  H    0.163521
     5  C   -1.970920
     6  N    0.986000
     7  N    0.599720
     8  H    0.074682
     9  H    0.257416
    10  C   -1.592158
    11  N    0.917111
    12  N    0.743256
    13  H    0.286770
    14  H    0.139884
    15  H   -0.725243
 Sum of Mulliken charges =  -1.00000

 Dipole moment (field-independent basis, Debye):
    X=             -0.1102    Y=             -5.0045    Z=             -1.1538  Tot=              5.1370

 Test job not archived.
 1\1\GINC-SE340\SP\RHF\Aug-CC-pVDZ\C4H6F1N4(1-)\OHZDE\09-Apr-2025\0\\#t
  hf aug-cc-pvdz iop(5/13=1,5/36=2,99/5=2) pseudo=read geom=check guess
 =(read,tcheck) scf=(maxcycle=1)\\title\\-1,1\C,0,0.027673,0.05833,0.02
 5698\C,0,-0.456454,0.452287,-1.393305\F,0,1.348235,-0.455026,-0.129086
 \H,0,-0.595882,-0.509112,-1.903153\C,0,0.20631,1.277313,0.855113\N,0,0
 .283705,2.235478,1.531551\N,0,-0.829146,-0.879763,0.586162\H,0,-1.7565
 28,-1.017756,0.07817\H,0,-0.954318,-0.788238,1.583442\C,0,0.602639,1.1
 96304,-2.094976\N,0,1.426081,1.814405,-2.65943\N,0,-1.711688,1.16149,-

 Normal termination of Gaussian 16 at Wed Apr  9 02:52:12 2025.
