 Gaussian 16, Revision C.01,

 ----------------------------------------------------------------------
 #t hf aug-cc-pvdz symm=none int=(grid=ultrafine) guess=(read,tcheck) s
 table=(opt,rrhf)
 ----------------------------------------------------------------------
 -----
 title
 -----
 Symbolic Z-matrix:
 Charge = -1 Multiplicity = 1

 SCF Done:  E(RHF) =  -836.225031220     A.U. after   16 cycles
 Normal termination of Gaussian 16 at Wed Apr  9 03:01:26 2025.
 Gaussian 16:  ES64L-G16RevC.01  3-Jul-2019

 ----------------------------------------------------------------------
 #t hf aug-cc-pvdz iop(5/13=1,5/36=2,99/5=2) pseudo=read geom=check gue
 ss=(read,tcheck) scf=(maxcycle=1)
 ----------------------------------------------------------------------
 -----
 title
 -----
 Structure from the checkpoint file:  "E2SN2_5_mol1.chk"
 Charge = -1 Multiplicity = 1

                         Standard orientation:
 ---------------------------------------------------------------------
 Center     Atomic      Atomic             Coordinates (Angstroms)
 Number     Number       Type             X           Y           Z
 ---------------------------------------------------------------------
      1          6           0       -0.093465    0.101431   -0.532302
      2          6           0        1.121536   -0.571586   -0.059796
      3         17           0       -0.293364    1.896991   -0.066064
      4          1           0        1.716190   -2.881836   -0.559205
      5          1           0        1.095458   -1.793105   -0.313431
      6          1           0       -0.144674    0.095365   -1.615954
      7          7           0       -1.340439   -0.591007   -0.058075
      8          8           0       -1.664687   -0.507396    1.123260
      9          8           0       -1.932208   -1.259267   -0.907659
     10          6           0        1.427859   -0.500570    1.418207
     11          1           0        0.553027   -0.707838    2.037736
     12          1           0        2.188870   -1.262359    1.624830
     13          1           0        1.822070    0.483740    1.705145
     14          7           0        2.227985   -0.202329   -0.926808
     15          1           0        2.717018   -1.088752   -1.105310
     16          1           0        2.865982    0.416947   -0.438009
 ---------------------------------------------------------------------

 SCF Done:  E(RHF) =  -836.687016192     A.U. after    2 cycles

 The electronic state is 1-A.
 Alpha  occ. eigenvalues -- -105.44607 -20.47613 -20.47435 -15.66849 -15.34780
 Alpha  occ. eigenvalues --  -11.23810 -11.10825 -11.09225 -10.49397  -7.66322
 Alpha  occ. eigenvalues --   -7.65979  -7.65962  -1.54439  -1.38348  -1.07492
 Alpha  occ. eigenvalues --   -1.01394  -0.90461  -0.85991  -0.77166  -0.69825
 Alpha  occ. eigenvalues --   -0.64190  -0.62418  -0.60104  -0.56673  -0.50611
 Alpha  occ. eigenvalues --   -0.47585  -0.46135  -0.42376  -0.40475  -0.38283
 Alpha  occ. eigenvalues --   -0.36548  -0.34996  -0.34063  -0.33445  -0.32561
 Alpha  occ. eigenvalues --   -0.30262  -0.10098
 Alpha virt. eigenvalues --    0.13185   0.14131   0.14383   0.15031   0.16609
 Alpha virt. eigenvalues --    0.17283   0.17892   0.18425   0.20064   0.21776
 Alpha virt. eigenvalues --    0.23082   0.24081   0.25399   0.25849   0.26305

 Mulliken charges:
               1
     1  C   -0.156214
     2  C   -2.190344
     3  Cl  -0.161006
     4  H   -0.577028
     5  H    0.329488
     6  H    0.123482
     7  N    2.782463
     8  O   -1.443087
     9  O   -1.422067
    10  C    0.055964
    11  H    0.183705
    12  H    0.188090
    13  H    0.142354
    14  N    0.723818
    15  H    0.254716
    16  H    0.165665
 Sum of Mulliken charges =  -1.00000

 Dipole moment (field-independent basis, Debye):
    X=             -2.4486    Y=              8.0524    Z=              1.8345  Tot=              8.6141

 Test job not archived.
 1\1\GINC-SE132\SP\RHF\Aug-CC-pVDZ\C3H8Cl1N2O2(1-)\OHZDE\09-Apr-2025\0\
 \#t hf aug-cc-pvdz iop(5/13=1,5/36=2,99/5=2) pseudo=read geom=check gu
 ess=(read,tcheck) scf=(maxcycle=1)\\title\\-1,1\C,0,-0.04818618,0.0375
 5063,-0.45618822\C,0,-0.1923277,0.00311965,1.00342816\Cl,0,1.6836281,0
 .2276274,-1.12406774\H,0,-2.30011666,-0.30983447,2.18645921\H,0,-1.392
 70658,0.00395288,1.3443237\H,0,-0.41238195,-0.88080962,-0.90444666\N,0
 ,-0.85464949,1.14484765,-1.07491016\O,0,-0.48708476,2.30829681,-0.9372
 0562\O,0,-1.88915135,0.7933868,-1.64485424\C,0,0.42352718,1.1357173,1.

 Normal termination of Gaussian 16 at Wed Apr  9 03:01:33 2025.
