 Gaussian 16, Revision C.01,

 ----------------------------------------------------------------------
 #t hf aug-cc-pvdz symm=none int=(grid=ultrafine) guess=(read,tcheck) s
 table=(opt,rrhf)
 ----------------------------------------------------------------------
 -----
 title
 -----
 Symbolic Z-matrix:
 Charge = -1 Multiplicity = 1

 SCF Done:  E(RHF) =  -528.874075474     A.U. after   17 cycles
 Normal termination of Gaussian 16 at Wed Apr  9 03:01:16 2025.
 Gaussian 16:  ES64L-G16RevC.01  3-Jul-2019

 ----------------------------------------------------------------------
 #t hf aug-cc-pvdz iop(5/13=1,5/36=2,99/5=2) pseudo=read geom=check gue
 ss=(read,tcheck) scf=(maxcycle=1)
 ----------------------------------------------------------------------
 -----
 title
 -----
 Structure from the checkpoint file:  "E2SN2_61_mol2.chk"
 Charge = -1 Multiplicity = 1

                         Standard orientation:
 ---------------------------------------------------------------------
 Center     Atomic      Atomic             Coordinates (Angstroms)
 Number     Number       Type             X           Y           Z
 ---------------------------------------------------------------------
      1          6           0        0.155813   -0.337010    0.236598
      2          6           0       -0.931581   -1.005576   -0.590164
      3          9           0       -0.058016   -0.467662    1.564469
      4          1           0       -0.998787   -2.050448   -0.251493
      5          1           0       -0.592012   -0.993187   -1.631748
      6          6           0        1.512905   -0.818928   -0.079716
      7          7           0        2.576682   -1.243032   -0.340446
      8          7           0        0.154468    1.160817   -0.078354
      9          8           0       -0.075353    1.941849    0.828924
     10          8           0        0.387488    1.438721   -1.250179
     11          7           0       -2.187410   -0.351809   -0.334139
     12          1           0       -2.569658   -0.010342   -1.207927
     13          1           0       -2.812870   -1.156461   -0.011392
     14          1           0       -3.230616   -2.617914    0.262643
 ---------------------------------------------------------------------

 SCF Done:  E(RHF) =  -529.385290785     A.U. after    2 cycles

 The electronic state is 1-A.
 Alpha  occ. eigenvalues --  -26.40183 -20.51470 -20.50618 -15.70517 -15.46236
 Alpha  occ. eigenvalues --  -15.34435 -11.33948 -11.22437 -11.16688  -1.58717
 Alpha  occ. eigenvalues --   -1.53656  -1.42543  -1.15981  -1.08287  -1.01869
 Alpha  occ. eigenvalues --   -0.86970  -0.79264  -0.73772  -0.69659  -0.66214
 Alpha  occ. eigenvalues --   -0.64141  -0.59698  -0.56863  -0.56170  -0.53990
 Alpha  occ. eigenvalues --   -0.52120  -0.47538  -0.44594  -0.43518  -0.42189
 Alpha  occ. eigenvalues --   -0.40244  -0.39766  -0.36465  -0.31756  -0.10387
 Alpha virt. eigenvalues --    0.13535   0.14001   0.15373   0.15684   0.17879
 Alpha virt. eigenvalues --    0.18436   0.19937   0.20917   0.21228   0.21463
 Alpha virt. eigenvalues --    0.22096   0.22450   0.23150   0.24174   0.24974

 Mulliken charges:
               1
     1  C    1.129164
     2  C   -0.747593
     3  F   -0.921998
     4  H    0.147264
     5  H    0.128464
     6  C   -1.570189
     7  N    0.898409
     8  N    2.850859
     9  O   -1.328898
    10  O   -1.534542
    11  N    0.281225
    12  H    0.281524
    13  H    0.180468
    14  H   -0.794159
 Sum of Mulliken charges =  -1.00000

 Dipole moment (field-independent basis, Debye):
    X=              8.4774    Y=              7.4025    Z=             -1.6959  Tot=             11.3815

 Test job not archived.
 1\1\GINC-SE042\SP\RHF\Aug-CC-pVDZ\C3H5F1N3O2(1-)\OHZDE\09-Apr-2025\0\\
 #t hf aug-cc-pvdz iop(5/13=1,5/36=2,99/5=2) pseudo=read geom=check gue
 ss=(read,tcheck) scf=(maxcycle=1)\\title\\-1,1\C,0,-0.534094,-0.484784
 ,-1.451855\C,0,0.049351,-0.190312,-0.078603\F,0,0.064918,0.233817,-2.4
 26961\H,0,1.135537,-0.353009,-0.147182\H,0,-0.375144,-0.927382,0.61196
 9\C,0,-0.489946,-1.913435,-1.813802\N,0,-0.416861,-3.055298,-2.078893\
 N,0,-2.014321,-0.095471,-1.444976\O,0,-2.387454,0.771181,-2.216771\O,0
 ,-2.702216,-0.708864,-0.635499\N,0,-0.194629,1.188702,0.251338\H,0,-0.

 Normal termination of Gaussian 16 at Wed Apr  9 03:01:22 2025.
