 Gaussian 16, Revision C.01,

 ----------------------------------------------------------------------
 #t hf aug-cc-pvdz symm=none int=(grid=ultrafine) guess=(read,tcheck) s
 table=(opt,rrhf)
 ----------------------------------------------------------------------
 -----
 title
 -----
 Symbolic Z-matrix:
 Charge = -1 Multiplicity = 1

 SCF Done:  E(RHF) =  -1099.74366570     A.U. after   15 cycles
 Normal termination of Gaussian 16 at Wed Apr  9 02:43:59 2025.
 Gaussian 16:  ES64L-G16RevC.01  3-Jul-2019

 ----------------------------------------------------------------------
 #t hf aug-cc-pvdz iop(5/13=1,5/36=2,99/5=2) pseudo=read geom=check gue
 ss=(read,tcheck) scf=(maxcycle=1)
 ----------------------------------------------------------------------
 -----
 title
 -----
 Structure from the checkpoint file:  "E2SN2_214_mol2.chk"
 Charge = -1 Multiplicity = 1

                         Standard orientation:
 ---------------------------------------------------------------------
 Center     Atomic      Atomic             Coordinates (Angstroms)
 Number     Number       Type             X           Y           Z
 ---------------------------------------------------------------------
      1          6           0        0.041045   -0.584102    0.559584
      2          6           0        0.158781    0.765662   -0.148763
      3          9           0       -0.403873   -0.390754    1.831293
      4          1           0        0.831022    1.353927    0.473597
      5          1           0        1.029351   -1.049038    0.555475
      6          7           0       -0.918435   -1.526936   -0.118317
      7          8           0       -0.576040   -1.905257   -1.237052
      8          8           0       -1.934814   -1.862150    0.474161
      9          7           0       -1.187751    1.441966   -0.084401
     10          8           0       -1.291279    2.474972    0.571276
     11          8           0       -2.092538    0.908169   -0.725332
     12          7           0        0.618744    0.783671   -1.495898
     13          1           0        1.630520    0.665674   -1.436005
     14          1           0        0.232857    0.000156   -2.007526
     15         17           0        3.310683   -0.021180    0.158458
 ---------------------------------------------------------------------

 SCF Done:  E(RHF) =  -1100.43633234     A.U. after    2 cycles

 The electronic state is 1-A.
 Alpha  occ. eigenvalues -- -105.30590 -26.39629 -20.50887 -20.50219 -20.49922
 Alpha  occ. eigenvalues --  -20.49471 -15.70065 -15.68552 -15.39666 -11.30208
 Alpha  occ. eigenvalues --  -11.24757 -10.35202  -7.51967  -7.51942  -7.51926
 Alpha  occ. eigenvalues --   -1.58160  -1.56561  -1.52651  -1.41820  -1.40670
 Alpha  occ. eigenvalues --   -1.14074  -1.02412  -0.96901  -0.82960  -0.76137
 Alpha  occ. eigenvalues --   -0.76127  -0.72308  -0.69523  -0.67787  -0.66534
 Alpha  occ. eigenvalues --   -0.65144  -0.63644  -0.61837  -0.59927  -0.57464
 Alpha  occ. eigenvalues --   -0.53610  -0.51348  -0.47540  -0.41996  -0.40474
 Alpha  occ. eigenvalues --   -0.39829  -0.39151  -0.36572  -0.35615  -0.34807
 Alpha  occ. eigenvalues --   -0.23497  -0.23147  -0.22950
 Alpha virt. eigenvalues --    0.14378   0.14840   0.15553   0.15772   0.16246
 Alpha virt. eigenvalues --    0.17644   0.20290   0.20623   0.22041   0.22555
 Alpha virt. eigenvalues --    0.23079   0.24515   0.25682   0.26629   0.27244

 Mulliken charges:
               1
     1  C    1.153475
     2  C   -1.947884
     3  F   -0.878907
     4  H    0.124642
     5  H    0.186300
     6  N    2.953437
     7  O   -1.564617
     8  O   -1.419688
     9  N    3.124083
    10  O   -1.462940
    11  O   -1.521295
    12  N    0.615249
    13  H    0.305852
    14  H    0.279374
    15  Cl  -0.947081
 Sum of Mulliken charges =  -1.00000

 Dipole moment (field-independent basis, Debye):
    X=             -6.4196    Y=             -0.8039    Z=             -0.0959  Tot=              6.4705

 Test job not archived.
 1\1\GINC-SE129\SP\RHF\Aug-CC-pVDZ\C2H4Cl1F1N3O4(1-)\OHZDE\09-Apr-2025\
 0\\#t hf aug-cc-pvdz iop(5/13=1,5/36=2,99/5=2) pseudo=read geom=check
 guess=(read,tcheck) scf=(maxcycle=1)\\title\\-1,1\C,0,-0.259556,0.0073
 98,0.09459\C,0,-0.644323,0.064984,-1.383963\F,0,0.590456,-1.035423,0.3
 00948\H,0,-1.075271,-0.910694,-1.602211\H,0,-1.178226,-0.114146,0.6726
 94\N,0,0.430146,1.25701,0.576118\O,0,-0.26683,2.269998,0.579084\O,0,1.
 595583,1.185133,0.940829\N,0,0.626529,0.162946,-2.190201\O,0,0.925191,
 -0.774325,-2.925086\O,0,1.268189,1.205438,-2.064288\N,0,-1.539212,1.08

 Normal termination of Gaussian 16 at Wed Apr  9 02:44:08 2025.
