 Gaussian 16, Revision C.01,

 ----------------------------------------------------------------------
 #t hf aug-cc-pvdz symm=none int=(grid=ultrafine) guess=(read,tcheck) s
 table=(opt,rrhf)
 ----------------------------------------------------------------------
 -----
 title
 -----
 Symbolic Z-matrix:
 Charge = -1 Multiplicity = 1

 SCF Done:  E(RHF) =  -1191.35733206     A.U. after   18 cycles
 Normal termination of Gaussian 16 at Wed Apr  9 02:54:09 2025.
 Gaussian 16:  ES64L-G16RevC.01  3-Jul-2019

 ----------------------------------------------------------------------
 #t hf aug-cc-pvdz iop(5/13=1,5/36=2,99/5=2) pseudo=read geom=check gue
 ss=(read,tcheck) scf=(maxcycle=1)
 ----------------------------------------------------------------------
 -----
 title
 -----
 Structure from the checkpoint file:  "E2SN2_306_mol1.chk"
 Charge = -1 Multiplicity = 1

                         Standard orientation:
 ---------------------------------------------------------------------
 Center     Atomic      Atomic             Coordinates (Angstroms)
 Number     Number       Type             X           Y           Z
 ---------------------------------------------------------------------
      1          6           0        0.771746    0.579534    0.148099
      2          1           0       -0.505115    0.613164   -1.563912
      3         17           0        0.844126   -1.130584    1.567568
      4          9           0        0.818512    2.013157   -1.090938
      5          6           0       -0.512780    0.157422   -0.580354
      6          6           0        2.042150    0.196169   -0.438777
      7          7           0        3.113771   -0.058648   -0.852406
      8          7           0        0.670067    1.560406    1.179888
      9          1           0        1.074469    2.406895    0.806036
     10          1           0        1.121666    1.240659    2.022260
     11          7           0       -1.716202    0.695493    0.117926
     12          8           0       -2.373918    1.511800   -0.530680
     13          8           0       -1.974630    0.293848    1.242293
     14          7           0       -0.688687   -1.313014   -0.832889
     15          8           0       -1.740628   -1.854275   -0.518216
     16          8           0        0.230788   -1.819826   -1.462904
 ---------------------------------------------------------------------

 SCF Done:  E(RHF) =  -1192.12827952     A.U. after    2 cycles

 The electronic state is 1-A.
 Alpha  occ. eigenvalues -- -105.38030 -26.20835 -20.50315 -20.49873 -20.49501
 Alpha  occ. eigenvalues --  -20.49320 -15.70446 -15.69525 -15.40622 -15.40549
 Alpha  occ. eigenvalues --  -11.33868 -11.28271 -11.18695 -10.42894  -7.59738
 Alpha  occ. eigenvalues --   -7.59539  -7.59507  -1.57941  -1.56337  -1.41770
 Alpha  occ. eigenvalues --   -1.40508  -1.29689  -1.13937  -1.10084  -1.08239
 Alpha  occ. eigenvalues --   -0.92019  -0.90357  -0.83573  -0.76482  -0.72643
 Alpha  occ. eigenvalues --   -0.69334  -0.68645  -0.64845  -0.64236  -0.62808
 Alpha  occ. eigenvalues --   -0.62217  -0.61132  -0.53957  -0.49826  -0.45274
 Alpha  occ. eigenvalues --   -0.43669  -0.40939  -0.39491  -0.39136  -0.38751
 Alpha  occ. eigenvalues --   -0.37195  -0.37133  -0.36539  -0.35658  -0.34847
 Alpha  occ. eigenvalues --   -0.33713  -0.30363  -0.29771  -0.29096
 Alpha virt. eigenvalues --    0.13138   0.14101   0.15151   0.15702   0.15868
 Alpha virt. eigenvalues --    0.18043   0.18771   0.20597   0.21299   0.21699
 Alpha virt. eigenvalues --    0.22498   0.23108   0.23716   0.24707   0.25223

 Mulliken charges:
               1
     1  C   -0.515875
     2  H    0.369944
     3  Cl  -0.534597
     4  F   -0.865198
     5  C   -0.463982
     6  C   -1.704374
     7  N    1.078261
     8  N    0.580085
     9  H    0.355016
    10  H    0.293226
    11  N    3.291315
    12  O   -1.458566
    13  O   -1.471477
    14  N    3.025822
    15  O   -1.477859
    16  O   -1.501741
 Sum of Mulliken charges =  -1.00000

 Dipole moment (field-independent basis, Debye):
    X=             -2.7373    Y=              0.8595    Z=              0.8969  Tot=              3.0059

 Test job not archived.
 1\1\GINC-SE143\SP\RHF\Aug-CC-pVDZ\C3H3Cl1F1N4O4(1-)\OHZDE\09-Apr-2025\
 0\\#t hf aug-cc-pvdz iop(5/13=1,5/36=2,99/5=2) pseudo=read geom=check
 guess=(read,tcheck) scf=(maxcycle=1)\\title\\-1,1\C,0,0.5837416,-0.101
 7823,-0.01272754\H,0,1.61735049,1.7216217,-0.4242317\Cl,0,-1.60774024,
 -0.34035008,-0.30449555\F,0,2.46774816,0.02453751,0.15231203\C,0,0.616
 96198,1.42953611,-0.12581348\C,0,0.86605659,-0.87686544,-1.20640333\N,
 0,1.09803052,-1.58126462,-2.11985995\N,0,0.57362637,-0.6811522,1.29159
 763\H,0,1.48880394,-1.08562963,1.42834077\H,0,-0.17533409,-1.34981279,

 Normal termination of Gaussian 16 at Wed Apr  9 02:54:21 2025.
