 Gaussian 16, Revision C.01,

 ----------------------------------------------------------------------
 #t hf aug-cc-pvdz symm=none int=(grid=ultrafine) guess=(read,tcheck) s
 table=(opt,rrhf)
 ----------------------------------------------------------------------
 -----
 title
 -----
 Symbolic Z-matrix:
 Charge = -1 Multiplicity = 1

 SCF Done:  E(RHF) =  -1275.21753751     A.U. after   16 cycles
 Normal termination of Gaussian 16 at Wed Apr  9 02:49:51 2025.
 Gaussian 16:  ES64L-G16RevC.01  3-Jul-2019

 ----------------------------------------------------------------------
 #t hf aug-cc-pvdz iop(5/13=1,5/36=2,99/5=2) pseudo=read geom=check gue
 ss=(read,tcheck) scf=(maxcycle=1)
 ----------------------------------------------------------------------
 -----
 title
 -----
 Structure from the checkpoint file:  "E2SN2_275_mol1.chk"
 Charge = -1 Multiplicity = 1

                         Standard orientation:
 ---------------------------------------------------------------------
 Center     Atomic      Atomic             Coordinates (Angstroms)
 Number     Number       Type             X           Y           Z
 ---------------------------------------------------------------------
      1          6           0        0.085071   -0.182189   -0.022508
      2          1           0        0.771232    1.208210   -1.415094
      3         17           0       -2.293182   -0.526818    0.427797
      4         17           0        2.402569   -0.355460   -0.232369
      5          6           0        0.091156    1.264132   -0.555801
      6          6           0       -0.086568   -1.241361   -0.978685
      7          7           0       -0.185849   -2.039602   -1.839375
      8          6           0        0.204243   -0.470362    1.381700
      9          7           0        0.379015   -0.683421    2.526929
     10          7           0        0.589975    2.126769    0.504298
     11          1           0        0.557993    3.086355    0.180832
     12          1           0        1.558192    1.885145    0.686701
     13          6           0       -1.227876    1.814544   -1.073444
     14          1           0       -1.699189    1.128778   -1.776050
     15          1           0       -1.916751    2.000299   -0.253760
     16          1           0       -1.009207    2.755132   -1.595442
 ---------------------------------------------------------------------

 SCF Done:  E(RHF) =  -1275.72531153     A.U. after    2 cycles

 The electronic state is 1-A.
 Alpha  occ. eigenvalues -- -105.37815-105.35043 -15.41298 -15.40144 -15.39013
 Alpha  occ. eigenvalues --  -11.31156 -11.19517 -11.19365 -11.18679 -11.12684
 Alpha  occ. eigenvalues --  -10.42567 -10.39804  -7.59402  -7.59205  -7.59193
 Alpha  occ. eigenvalues --   -7.56627  -7.56457  -7.56449  -1.12910  -1.10658
 Alpha  occ. eigenvalues --   -1.09607  -0.99260  -0.89789  -0.83747  -0.80295
 Alpha  occ. eigenvalues --   -0.75036  -0.72472  -0.61011  -0.57209  -0.54511
 Alpha  occ. eigenvalues --   -0.50204  -0.49118  -0.47653  -0.44670  -0.43786
 Alpha  occ. eigenvalues --   -0.42891  -0.40571  -0.38639  -0.37471  -0.34546
 Alpha  occ. eigenvalues --   -0.30482  -0.29426  -0.29021  -0.26796  -0.26399
 Alpha  occ. eigenvalues --   -0.25294
 Alpha virt. eigenvalues --    0.10974   0.12456   0.13091   0.13564   0.14965
 Alpha virt. eigenvalues --    0.16064   0.16855   0.18303   0.20268   0.20742
 Alpha virt. eigenvalues --    0.21873   0.22136   0.22958   0.23507   0.24221

 Mulliken charges:
               1
     1  C   -0.147538
     2  H    0.169288
     3  Cl  -0.557635
     4  Cl  -0.408381
     5  C   -0.422611
     6  C   -1.772943
     7  N    0.940628
     8  C   -1.187407
     9  N    0.913393
    10  N    0.592119
    11  H    0.134157
    12  H    0.215010
    13  C   -0.070818
    14  H    0.268978
    15  H    0.298629
    16  H    0.035129
 Sum of Mulliken charges =  -1.00000

 Dipole moment (field-independent basis, Debye):
    X=              0.8748    Y=              6.6358    Z=             -3.0456  Tot=              7.3536

 Test job not archived.
 1\1\GINC-SE114\SP\RHF\Aug-CC-pVDZ\C5H6Cl2N3(1-)\OHZDE\09-Apr-2025\0\\#
 t hf aug-cc-pvdz iop(5/13=1,5/36=2,99/5=2) pseudo=read geom=check gues
 s=(read,tcheck) scf=(maxcycle=1)\\title\\-1,1\C,0,0.62063048,-0.061226
 79,-0.01451384\H,0,1.65743463,1.63419576,-0.64212906\Cl,0,-1.68252164,
 -0.51966356,-0.69492458\Cl,0,2.82738044,-0.16439895,0.73680011\C,0,0.6
 8530478,1.47207281,-0.15974388\C,0,0.96857247,-0.85190225,-1.16314292\
 N,0,1.31497506,-1.41297993,-2.13937617\C,0,0.18978775,-0.6871188,1.206
 82907\N,0,-0.09360038,-1.17586496,2.24041917\N,0,0.6133971,2.04842638,

 Normal termination of Gaussian 16 at Wed Apr  9 02:50:00 2025.
