 Gaussian 16, Revision C.01,

 ----------------------------------------------------------------------
 #t hf aug-cc-pvdz symm=none int=(grid=ultrafine) guess=(read,tcheck) s
 table=(opt,rrhf)
 ----------------------------------------------------------------------
 -----
 title
 -----
 Symbolic Z-matrix:
 Charge = -1 Multiplicity = 1

 SCF Done:  E(RHF) =  -627.865132738     A.U. after   16 cycles
 Normal termination of Gaussian 16 at Wed Apr  9 02:37:12 2025.
 Gaussian 16:  ES64L-G16RevC.01  3-Jul-2019

 ----------------------------------------------------------------------
 #t hf aug-cc-pvdz iop(5/13=1,5/36=2,99/5=2) pseudo=read geom=check gue
 ss=(read,tcheck) scf=(maxcycle=1)
 ----------------------------------------------------------------------
 -----
 title
 -----
 Structure from the checkpoint file:  "E2SN2_137_mol1.chk"
 Charge = -1 Multiplicity = 1

                         Standard orientation:
 ---------------------------------------------------------------------
 Center     Atomic      Atomic             Coordinates (Angstroms)
 Number     Number       Type             X           Y           Z
 ---------------------------------------------------------------------
      1          6           0       -0.162023   -0.389562    0.326767
      2          6           0        0.765006   -0.011122   -0.789497
      3          9           0       -0.136993   -1.739876    0.636532
      4          9           0        0.549391    2.441065   -0.255500
      5          1           0        0.670964    1.358940   -0.695605
      6          1           0        0.462059   -0.462824   -1.735805
      7          7           0       -0.024176    0.331429    1.546253
      8          1           0        0.098329    1.308082    1.272207
      9          1           0        0.844443    0.016195    1.965292
     10          6           0        2.120140   -0.347265   -0.456348
     11          7           0        3.239224   -0.594212   -0.179375
     12          7           0       -1.585426   -0.153455   -0.210089
     13          8           0       -1.991347   -0.971775   -1.032747
     14          8           0       -2.200336    0.830558    0.180442
 ---------------------------------------------------------------------

 SCF Done:  E(RHF) =  -628.467024419     A.U. after    2 cycles

 The electronic state is 1-A.
 Alpha  occ. eigenvalues --  -26.35337 -26.19431 -20.47572 -20.46941 -15.66039
 Alpha  occ. eigenvalues --  -15.37989 -15.37384 -11.30050 -11.15704 -11.10481
 Alpha  occ. eigenvalues --   -1.54489  -1.48307  -1.38279  -1.28155  -1.11168
 Alpha  occ. eigenvalues --   -1.07987  -0.95964  -0.88327  -0.73041  -0.67963
 Alpha  occ. eigenvalues --   -0.64227  -0.63678  -0.59061  -0.58348  -0.54356
 Alpha  occ. eigenvalues --   -0.53680  -0.51029  -0.49230  -0.46672  -0.46281
 Alpha  occ. eigenvalues --   -0.38440  -0.38340  -0.36946  -0.36684  -0.35966
 Alpha  occ. eigenvalues --   -0.35510  -0.33294  -0.32526  -0.23883
 Alpha virt. eigenvalues --    0.14183   0.14807   0.17309   0.17664   0.17807
 Alpha virt. eigenvalues --    0.18434   0.18985   0.22128   0.22768   0.24392
 Alpha virt. eigenvalues --    0.25018   0.25650   0.26216   0.26650   0.27947

 Mulliken charges:
               1
     1  C   -0.235207
     2  C   -0.299739
     3  F   -1.053099
     4  F   -1.065545
     5  H    1.101198
     6  H    0.102803
     7  N    0.508325
     8  H    0.274912
     9  H    0.303699
    10  C   -1.255667
    11  N    0.716905
    12  N    2.709778
    13  O   -1.464674
    14  O   -1.343688
 Sum of Mulliken charges =  -1.00000

 Dipole moment (field-independent basis, Debye):
    X=             -2.8138    Y=             -2.5762    Z=              0.5490  Tot=              3.8543

 Test job not archived.
 1\1\GINC-SE051\SP\RHF\Aug-CC-pVDZ\C3H4F2N3O2(1-)\OHZDE\09-Apr-2025\0\\
 #t hf aug-cc-pvdz iop(5/13=1,5/36=2,99/5=2) pseudo=read geom=check gue
 ss=(read,tcheck) scf=(maxcycle=1)\\title\\-1,1\C,0,-0.12330698,-0.0526
 1096,-0.33619204\C,0,-0.09364358,0.06397214,1.15852369\F,0,1.13253941,
 -0.17098515,-0.90957294\F,0,-2.5664016,-0.38393967,1.3308733\H,0,-1.44
 075399,-0.05898988,1.41328403\H,0,0.38715051,0.98916345,1.48127635\N,0
 ,-0.94134322,-1.0814229,-0.88239626\H,0,-1.80637851,-1.05804429,-0.339
 14025\H,0,-0.4706727,-1.95661091,-0.67750772\C,0,0.53506033,-1.0867839

 Normal termination of Gaussian 16 at Wed Apr  9 02:37:19 2025.
