 Gaussian 16, Revision C.01,

 ----------------------------------------------------------------------
 #t hf aug-cc-pvdz symm=none int=(grid=ultrafine) guess=(read,tcheck) s
 table=(opt,rrhf)
 ----------------------------------------------------------------------
 -----
 title
 -----
 Symbolic Z-matrix:
 Charge = -1 Multiplicity = 1

 SCF Done:  E(RHF) =  -987.936785970     A.U. after   17 cycles
 Normal termination of Gaussian 16 at Wed Apr  9 02:48:30 2025.
 Gaussian 16:  ES64L-G16RevC.01  3-Jul-2019

 ----------------------------------------------------------------------
 #t hf aug-cc-pvdz iop(5/13=1,5/36=2,99/5=2) pseudo=read geom=check gue
 ss=(read,tcheck) scf=(maxcycle=1)
 ----------------------------------------------------------------------
 -----
 title
 -----
 Structure from the checkpoint file:  "E2SN2_265_mol2.chk"
 Charge = -1 Multiplicity = 1

                         Standard orientation:
 ---------------------------------------------------------------------
 Center     Atomic      Atomic             Coordinates (Angstroms)
 Number     Number       Type             X           Y           Z
 ---------------------------------------------------------------------
      1          6           0        0.582569    0.503409   -0.009049
      2          6           0       -0.168139    0.917897   -1.276256
      3          9           0        1.681100    1.355129    0.149342
      4          1           0        0.588616    1.368140   -1.925965
      5          1           0       -0.557530    0.022009   -1.746538
      6          6           0       -0.172434    0.599429    1.242906
      7          7           0       -0.583203    0.941857    2.290245
      8          7           0        1.244146   -0.858613   -0.132215
      9          8           0        1.506970   -1.450817    0.906556
     10          8           0        1.581117   -1.188100   -1.264200
     11          7           0       -1.270127    1.831762   -1.059210
     12          1           0       -1.003440    2.579709   -0.430163
     13          1           0       -2.009987    1.290086   -0.620051
     14         17           0       -2.002350   -1.286719   -0.070444
 ---------------------------------------------------------------------

 SCF Done:  E(RHF) =  -988.521225766     A.U. after    2 cycles

 The electronic state is 1-A.
 Alpha  occ. eigenvalues -- -105.29082 -26.39587 -20.49617 -20.49403 -15.69174
 Alpha  occ. eigenvalues --  -15.41863 -15.38106 -11.32864 -11.19082 -11.16828
 Alpha  occ. eigenvalues --  -10.33744  -7.50517  -7.50475  -7.50467  -1.57000
 Alpha  occ. eigenvalues --   -1.51743  -1.40819  -1.12133  -1.09066  -1.01910
 Alpha  occ. eigenvalues --   -0.85584  -0.80225  -0.75007  -0.71817  -0.67820
 Alpha  occ. eigenvalues --   -0.65269  -0.62919  -0.59344  -0.58847  -0.54813
 Alpha  occ. eigenvalues --   -0.52659  -0.50964  -0.48108  -0.43615  -0.41104
 Alpha  occ. eigenvalues --   -0.39930  -0.39471  -0.37987  -0.34626  -0.33862
 Alpha  occ. eigenvalues --   -0.22144  -0.21854  -0.21462
 Alpha virt. eigenvalues --    0.12640   0.13898   0.15636   0.16503   0.17630
 Alpha virt. eigenvalues --    0.17902   0.19251   0.21475   0.22009   0.22660
 Alpha virt. eigenvalues --    0.23441   0.24220   0.24567   0.25716   0.26061

 Mulliken charges:
               1
     1  C    1.217374
     2  C   -0.685042
     3  F   -0.996187
     4  H    0.130127
     5  H    0.321523
     6  C   -2.063094
     7  N    1.158828
     8  N    3.083370
     9  O   -1.481484
    10  O   -1.542812
    11  N    0.244404
    12  H    0.243645
    13  H    0.311670
    14  Cl  -0.942324
 Sum of Mulliken charges =  -1.00000

 Dipole moment (field-independent basis, Debye):
    X=              6.1036    Y=              4.7255    Z=             -2.1866  Tot=              8.0228

 Test job not archived.
 1\1\GINC-SE340\SP\RHF\Aug-CC-pVDZ\C3H4Cl1F1N3O2(1-)\OHZDE\09-Apr-2025\
 0\\#t hf aug-cc-pvdz iop(5/13=1,5/36=2,99/5=2) pseudo=read geom=check
 guess=(read,tcheck) scf=(maxcycle=1)\\title\\-1,1\C,0,-0.002734,-0.035
 38,0.003491\C,0,-0.387503,0.094851,-1.471693\F,0,1.392229,-0.097786,0.
 089919\H,0,0.422157,-0.390499,-2.025233\H,0,-1.309263,-0.453486,-1.630
 096\C,0,-0.400406,1.077352,0.869704\N,0,-0.394897,2.038303,1.547532\N,
 0,-0.424294,-1.363022,0.609802\O,0,-0.538633,-1.412661,1.827706\O,0,-0
 .482883,-2.310055,-0.166856\N,0,-0.583399,1.45375,-1.931751\H,0,0.1616

 Normal termination of Gaussian 16 at Wed Apr  9 02:48:36 2025.
