 Gaussian 16, Revision C.01,

 ----------------------------------------------------------------------
 #t hf aug-cc-pvdz symm=none int=(grid=ultrafine) guess=(read,tcheck) s
 table=(opt,rrhf)
 ----------------------------------------------------------------------
 -----
 title
 -----
 Symbolic Z-matrix:
 Charge = -1 Multiplicity = 1

 SCF Done:  E(RHF) =  -528.864355357     A.U. after   18 cycles
 Normal termination of Gaussian 16 at Wed Apr  9 02:51:41 2025.
 Gaussian 16:  ES64L-G16RevC.01  3-Jul-2019

 ----------------------------------------------------------------------
 #t hf aug-cc-pvdz iop(5/13=1,5/36=2,99/5=2) pseudo=read geom=check gue
 ss=(read,tcheck) scf=(maxcycle=1)
 ----------------------------------------------------------------------
 -----
 title
 -----
 Structure from the checkpoint file:  "E2SN2_303_mol1.chk"
 Charge = -1 Multiplicity = 1

                         Standard orientation:
 ---------------------------------------------------------------------
 Center     Atomic      Atomic             Coordinates (Angstroms)
 Number     Number       Type             X           Y           Z
 ---------------------------------------------------------------------
      1          6           0       -0.792785    0.391189    0.183495
      2          1           0        0.721200    0.966049    1.588954
      3          9           0       -0.220924    0.219515   -1.297525
      4          1           0       -1.484064    0.446010    1.912500
      5          6           0        0.441149    0.085852    1.021262
      6          1           0        0.286955   -0.782237    1.653266
      7          6           0       -1.816720   -0.642156    0.139597
      8          7           0       -2.633137   -1.468973   -0.066476
      9          7           0       -1.168994    1.780439    0.027524
     10          1           0       -1.905689    1.985932    0.683407
     11          1           0       -1.484417    1.895409   -0.928059
     12          7           0        1.654183   -0.244278    0.167032
     13          8           0        1.832194   -1.424429   -0.130778
     14          8           0        2.405319    0.678625   -0.143600
 ---------------------------------------------------------------------

 SCF Done:  E(RHF) =  -529.375503245     A.U. after    2 cycles

 The electronic state is 1-A.
 Alpha  occ. eigenvalues --  -26.25912 -20.45622 -20.45567 -15.64530 -15.37594
 Alpha  occ. eigenvalues --  -15.36853 -11.27786 -11.18197 -11.15510  -1.52408
 Alpha  occ. eigenvalues --   -1.36358  -1.35970  -1.08927  -1.06319  -0.98832
 Alpha  occ. eigenvalues --   -0.84604  -0.74017  -0.65062  -0.63102  -0.61762
 Alpha  occ. eigenvalues --   -0.60730  -0.57843  -0.51531  -0.48089  -0.46880
 Alpha  occ. eigenvalues --   -0.45230  -0.41359  -0.40697  -0.36865  -0.35729
 Alpha  occ. eigenvalues --   -0.35016  -0.34744  -0.33720  -0.31416  -0.14908
 Alpha virt. eigenvalues --    0.13492   0.14526   0.15231   0.16299   0.18070
 Alpha virt. eigenvalues --    0.19114   0.19732   0.21954   0.22970   0.24118
 Alpha virt. eigenvalues --    0.24517   0.25369   0.25911   0.26484   0.27192

 Mulliken charges:
               1
     1  C   -0.729997
     2  H    0.150295
     3  F   -0.969439
     4  H   -0.318018
     5  C    0.040577
     6  H    0.122045
     7  C   -1.592957
     8  N    0.919268
     9  N    0.760195
    10  H    0.277517
    11  H    0.278847
    12  N    3.020899
    13  O   -1.478393
    14  O   -1.480838
 Sum of Mulliken charges =  -1.00000

 Dipole moment (field-independent basis, Debye):
    X=              2.7322    Y=              2.5539    Z=             -0.2338  Tot=              3.7473

 Test job not archived.
 1\1\GINC-SE023\SP\RHF\Aug-CC-pVDZ\C3H5F1N3O2(1-)\OHZDE\09-Apr-2025\0\\
 #t hf aug-cc-pvdz iop(5/13=1,5/36=2,99/5=2) pseudo=read geom=check gue
 ss=(read,tcheck) scf=(maxcycle=1)\\title\\-1,1\C,0,0.55252394,-0.09844
 369,0.15883985\H,0,1.6864575,1.40057063,1.19086677\F,0,-0.99587288,-0.
 07215066,0.54831804\H,0,2.31960277,-0.08531798,-0.43072944\C,0,0.94896
 046,1.35189432,0.3976587\H,0,1.29236267,1.82512658,-0.51607459\C,0,0.4
 1774781,-0.5118617,-1.23007847\N,0,0.15172346,-0.90054089,-2.31210877\
 N,0,0.93227907,-1.07016602,1.16254183\H,0,1.7682585,-1.53860718,0.8513

 Normal termination of Gaussian 16 at Wed Apr  9 02:51:46 2025.
