 Gaussian 16, Revision C.01,

 ----------------------------------------------------------------------
 #t hf aug-cc-pvdz symm=none int=(grid=ultrafine) guess=(read,tcheck) s
 table=(opt,rrhf)
 ----------------------------------------------------------------------
 -----
 title
 -----
 Symbolic Z-matrix:
 Charge = -1 Multiplicity = 1

 SCF Done:  E(RHF) =  -974.323992879     A.U. after   15 cycles
 Normal termination of Gaussian 16 at Wed Apr  9 02:47:19 2025.
 Gaussian 16:  ES64L-G16RevC.01  3-Jul-2019

 ----------------------------------------------------------------------
 #t hf aug-cc-pvdz iop(5/13=1,5/36=2,99/5=2) pseudo=read geom=check gue
 ss=(read,tcheck) scf=(maxcycle=1)
 ----------------------------------------------------------------------
 -----
 title
 -----
 Structure from the checkpoint file:  "E2SN2_246_mol2.chk"
 Charge = -1 Multiplicity = 1

                         Standard orientation:
 ---------------------------------------------------------------------
 Center     Atomic      Atomic             Coordinates (Angstroms)
 Number     Number       Type             X           Y           Z
 ---------------------------------------------------------------------
      1          6           0        0.742951    0.125712   -0.518421
      2          6           0        0.290144    1.236813    0.407511
      3          9           0        1.613025    0.667172   -1.483729
      4          1           0        1.203168    1.791758    0.643568
      5          7           0        1.780503   -0.772777    0.254083
      6          8           0        2.676629   -0.195984    0.863460
      7          8           0        1.655278   -1.992414    0.173899
      8          7           0       -0.250182   -0.607662   -1.106153
      9          1           0       -1.179168   -0.601243   -0.670873
     10          1           0        0.028594   -1.536510   -1.382097
     11          6           0       -0.320701    0.691544    1.697620
     12          1           0       -0.588403    1.528727    2.349044
     13          1           0        0.384118    0.061208    2.245995
     14          1           0       -1.231827    0.126890    1.490659
     15          6           0       -0.691563    2.150164   -0.327214
     16          1           0       -0.286403    2.464780   -1.291269
     17          1           0       -0.881245    3.041953    0.278076
     18          1           0       -1.642812    1.639480   -0.488004
     19         17           0       -3.283279   -0.739808    0.016889
 ---------------------------------------------------------------------

 SCF Done:  E(RHF) =  -974.917494801     A.U. after    2 cycles

 The electronic state is 1-A.
 Alpha  occ. eigenvalues -- -105.28711 -26.35672 -20.49106 -20.48612 -15.67106
 Alpha  occ. eigenvalues --  -15.37840 -11.30632 -11.14348 -11.11603 -11.11224
 Alpha  occ. eigenvalues --  -10.33315  -7.50092  -7.50050  -7.50043  -1.55787
 Alpha  occ. eigenvalues --   -1.48181  -1.39684  -1.12291  -0.98463  -0.92846
 Alpha  occ. eigenvalues --   -0.82875  -0.77993  -0.74228  -0.71300  -0.69185
 Alpha  occ. eigenvalues --   -0.64723  -0.63739  -0.60822  -0.59300  -0.53527
 Alpha  occ. eigenvalues --   -0.51650  -0.50967  -0.49025  -0.45576  -0.43763
 Alpha  occ. eigenvalues --   -0.41435  -0.40004  -0.38853  -0.37815  -0.36815
 Alpha  occ. eigenvalues --   -0.34688  -0.34162  -0.21722  -0.21053  -0.21004
 Alpha virt. eigenvalues --    0.11782   0.12646   0.13569   0.14132   0.14951
 Alpha virt. eigenvalues --    0.15929   0.17126   0.18006   0.18469   0.19221
 Alpha virt. eigenvalues --    0.20763   0.22508   0.22588   0.23806   0.24536

 Mulliken charges:
               1
     1  C   -0.221669
     2  C   -1.307958
     3  F   -1.107102
     4  H    0.223389
     5  N    3.055703
     6  O   -1.597528
     7  O   -1.468387
     8  N    0.770766
     9  H    0.092804
    10  H    0.397659
    11  C    0.064515
    12  H    0.165085
    13  H    0.213899
    14  H    0.154940
    15  C   -0.044766
    16  H    0.206672
    17  H    0.134708
    18  H    0.225286
    19  Cl  -0.958018
 Sum of Mulliken charges =  -1.00000

 Dipole moment (field-independent basis, Debye):
    X=              8.1972    Y=              3.8025    Z=              0.3171  Tot=              9.0417

 Test job not archived.
 1\1\GINC-SE365\SP\RHF\Aug-CC-pVDZ\C4H9Cl1F1N2O2(1-)\OHZDE\09-Apr-2025\
 0\\#t hf aug-cc-pvdz iop(5/13=1,5/36=2,99/5=2) pseudo=read geom=check
 guess=(read,tcheck) scf=(maxcycle=1)\\title\\-1,1\C,0,-0.084222,0.0177
 04,0.040195\C,0,-0.447699,0.449155,-1.366455\F,0,1.285975,-0.303783,0.
 075333\H,0,0.353147,1.133072,-1.663445\N,0,-0.048093,1.296829,0.958394
 \O,0,0.559935,2.274785,0.532981\O,0,-0.596621,1.231224,2.055863\N,0,-0
 .840481,-0.988999,0.573301\H,0,-1.765759,-1.16658,0.167284\H,0,-0.8645
 19,-0.999925,1.581231\C,0,-1.786194,1.184928,-1.41006\H,0,-1.980702,1.

 Normal termination of Gaussian 16 at Wed Apr  9 02:47:28 2025.
