 Gaussian 16, Revision C.01,

 ----------------------------------------------------------------------
 #t hf aug-cc-pvdz symm=none int=(grid=ultrafine) guess=(read,tcheck) s
 table=(opt,rrhf)
 ----------------------------------------------------------------------
 -----
 title
 -----
 Symbolic Z-matrix:
 Charge = -1 Multiplicity = 1

 SCF Done:  E(RHF) =  -862.486331709     A.U. after   15 cycles
 Normal termination of Gaussian 16 at Wed Apr  9 02:54:38 2025.
 Gaussian 16:  ES64L-G16RevC.01  3-Jul-2019

 ----------------------------------------------------------------------
 #t hf aug-cc-pvdz iop(5/13=1,5/36=2,99/5=2) pseudo=read geom=check gue
 ss=(read,tcheck) scf=(maxcycle=1)
 ----------------------------------------------------------------------
 -----
 title
 -----
 Structure from the checkpoint file:  "E2SN2_340_mol2.chk"
 Charge = -1 Multiplicity = 1

                         Standard orientation:
 ---------------------------------------------------------------------
 Center     Atomic      Atomic             Coordinates (Angstroms)
 Number     Number       Type             X           Y           Z
 ---------------------------------------------------------------------
      1          6           0       -0.526213    0.053486    0.186728
      2          6           0        0.423038   -0.337145   -0.993865
      3         17           0       -2.015829   -1.019826    0.122690
      4          1           0       -0.233676   -0.452756   -1.868139
      5          6           0        0.117122   -0.047336    1.558595
      6          1           0       -0.485581    0.472818    2.307085
      7          1           0        0.185494   -1.100786    1.835782
      8          1           0        1.156817    0.332791    1.498577
      9          6           0       -1.033848    1.406829   -0.053452
     10          7           0       -1.430884    2.493774   -0.261147
     11          6           0        1.145469   -1.643716   -0.686677
     12          1           0        1.630366   -1.992840   -1.601537
     13          1           0        1.920084   -1.410332    0.049529
     14          1           0        0.469632   -2.422465   -0.324420
     15          7           0        1.429625    0.662991   -1.264679
     16          1           0        1.012729    1.576488   -1.400159
     17          1           0        2.096985    0.674911   -0.457373
     18          9           0        2.863515    0.329905    0.943081
 ---------------------------------------------------------------------

 SCF Done:  E(RHF) =  -862.969112867     A.U. after    2 cycles

 The electronic state is 1-A.
 Alpha  occ. eigenvalues -- -105.45032 -26.09929 -15.40835 -15.32300 -11.22286
 Alpha  occ. eigenvalues --  -11.18012 -11.14801 -11.09993 -11.08712 -10.49872
 Alpha  occ. eigenvalues --   -7.66800  -7.66455  -7.66449  -1.16583  -1.11712
 Alpha  occ. eigenvalues --   -1.06210  -0.99929  -0.87929  -0.85467  -0.78587
 Alpha  occ. eigenvalues --   -0.68788  -0.58034  -0.56098  -0.52255  -0.50255
 Alpha  occ. eigenvalues --   -0.48687  -0.46360  -0.42771  -0.41619  -0.41150
 Alpha  occ. eigenvalues --   -0.39674  -0.38304  -0.36846  -0.36520  -0.35159
 Alpha  occ. eigenvalues --   -0.34172  -0.28786  -0.26160  -0.25628  -0.24748
 Alpha virt. eigenvalues --    0.12888   0.13259   0.13693   0.14810   0.15944
 Alpha virt. eigenvalues --    0.16066   0.17721   0.18092   0.18960   0.19679
 Alpha virt. eigenvalues --    0.20884   0.22332   0.23464   0.24319   0.24807

 Mulliken charges:
               1
     1  C   -0.634234
     2  C   -1.352468
     3  Cl  -0.061530
     4  H   -0.066009
     5  C    0.464660
     6  H    0.107243
     7  H    0.216501
     8  H    0.291005
     9  C   -1.885931
    10  N    1.099334
    11  C    0.089789
    12  H    0.055331
    13  H    0.237766
    14  H    0.168320
    15  N    0.869834
    16  H    0.247062
    17  H    0.215466
    18  F   -1.062140
 Sum of Mulliken charges =  -1.00000

 Dipole moment (field-independent basis, Debye):
    X=             -6.3452    Y=             -3.9575    Z=             -0.8736  Tot=              7.5291

 Test job not archived.
 1\1\GINC-SE368\SP\RHF\Aug-CC-pVDZ\C5H9Cl1F1N2(1-)\OHZDE\09-Apr-2025\0\
 \#t hf aug-cc-pvdz iop(5/13=1,5/36=2,99/5=2) pseudo=read geom=check gu
 ess=(read,tcheck) scf=(maxcycle=1)\\title\\-1,1\C,0,0.072855,-0.032423
 ,-0.0315\C,0,-0.477354,-0.156404,-1.490736\Cl,0,1.811107,0.557333,-0.1
 07137\H,0,0.327522,-0.638198,-2.06436\C,0,-0.740291,0.888332,0.861288\
 H,0,-0.4766,0.740199,1.911323\H,0,-0.521272,1.922236,0.58864\H,0,-1.81
 8387,0.728515,0.658231\C,0,0.161972,-1.37558,0.547207\N,0,0.226247,-2.
 460189,0.996336\C,0,-0.793387,1.221862,-2.059861\H,0,-0.971482,1.11910

 Normal termination of Gaussian 16 at Wed Apr  9 02:54:46 2025.
