 Gaussian 16, Revision C.01,

 ----------------------------------------------------------------------
 #t hf aug-cc-pvdz symm=none int=(grid=ultrafine) guess=(read,tcheck) s
 table=(opt,rrhf)
 ----------------------------------------------------------------------
 -----
 title
 -----
 Symbolic Z-matrix:
 Charge = -1 Multiplicity = 1

 SCF Done:  E(RHF) =  -931.177894892     A.U. after   16 cycles
 Normal termination of Gaussian 16 at Wed Apr  9 02:38:38 2025.
 Gaussian 16:  ES64L-G16RevC.01  3-Jul-2019

 ----------------------------------------------------------------------
 #t hf aug-cc-pvdz iop(5/13=1,5/36=2,99/5=2) pseudo=read geom=check gue
 ss=(read,tcheck) scf=(maxcycle=1)
 ----------------------------------------------------------------------
 -----
 title
 -----
 Structure from the checkpoint file:  "E2SN2_152_mol1.chk"
 Charge = -1 Multiplicity = 1

                         Standard orientation:
 ---------------------------------------------------------------------
 Center     Atomic      Atomic             Coordinates (Angstroms)
 Number     Number       Type             X           Y           Z
 ---------------------------------------------------------------------
      1          6           0        0.384734   -0.190749   -0.345450
      2          6           0       -0.638272    0.430615    0.573697
      3         17           0        0.454565   -2.048559   -0.143783
      4          9           0       -0.072413    2.637147   -0.515218
      5          1           0       -0.436878    1.730428    0.090191
      6          7           0        0.195778    0.067594   -1.755024
      7          1           0        0.127508    1.086847   -1.805026
      8          1           0       -0.713342   -0.311274   -2.006130
      9          6           0        1.724469    0.265916    0.060873
     10          7           0        2.785471    0.622011    0.417185
     11          7           0       -0.404808    0.310879    1.997584
     12          1           0        0.329615    0.951076    2.270300
     13          1           0       -0.117011   -0.632589    2.243692
     14          6           0       -1.964830    0.023930    0.188717
     15          7           0       -3.048211   -0.273568   -0.170999
 ---------------------------------------------------------------------

 SCF Done:  E(RHF) =  -931.714047389     A.U. after    2 cycles

 The electronic state is 1-A.
 Alpha  occ. eigenvalues -- -105.44527 -26.20810 -15.41023 -15.39093 -15.37842
 Alpha  occ. eigenvalues --  -15.37554 -11.26422 -11.18060 -11.15340 -11.13412
 Alpha  occ. eigenvalues --  -10.49369  -7.66287  -7.65944  -7.65939  -1.29778
 Alpha  occ. eigenvalues --   -1.14202  -1.10319  -1.08318  -1.06389  -0.95375
 Alpha  occ. eigenvalues --   -0.86560  -0.79936  -0.62218  -0.60190  -0.58810
 Alpha  occ. eigenvalues --   -0.57737  -0.54284  -0.50830  -0.49524  -0.46684
 Alpha  occ. eigenvalues --   -0.45268  -0.40128  -0.39517  -0.38866  -0.38065
 Alpha  occ. eigenvalues --   -0.37241  -0.37167  -0.35817  -0.34633  -0.34234
 Alpha  occ. eigenvalues --   -0.32166  -0.22666
 Alpha virt. eigenvalues --    0.13436   0.14494   0.15582   0.16883   0.17058
 Alpha virt. eigenvalues --    0.17578   0.18623   0.19843   0.21735   0.22704
 Alpha virt. eigenvalues --    0.23280   0.23554   0.24424   0.24998   0.25542

 Mulliken charges:
               1
     1  C   -1.362780
     2  C   -0.920619
     3  Cl  -0.007435
     4  F   -1.024339
     5  H    1.156037
     6  N    0.736280
     7  H    0.222807
     8  H    0.295768
     9  C   -1.582579
    10  N    1.030391
    11  N    0.649813
    12  H    0.291714
    13  H    0.181379
    14  C   -1.558605
    15  N    0.892168
 Sum of Mulliken charges =  -1.00000

 Dipole moment (field-independent basis, Debye):
    X=              1.5145    Y=             -3.5177    Z=              0.5947  Tot=              3.8758

 Test job not archived.
 1\1\GINC-SE112\SP\RHF\Aug-CC-pVDZ\C4H5Cl1F1N4(1-)\OHZDE\09-Apr-2025\0\
 \#t hf aug-cc-pvdz iop(5/13=1,5/36=2,99/5=2) pseudo=read geom=check gu
 ess=(read,tcheck) scf=(maxcycle=1)\\title\\-1,1\C,0,-0.21718166,0.0175
 3092,-0.28728825\C,0,-0.07486514,-0.02058908,1.21463045\Cl,0,1.4429962
 5,0.17569766,-1.13333461\F,0,-2.57403564,-0.36835097,1.30366601\H,0,-1
 .4450963,-0.20355913,1.44450119\N,0,-0.87918847,-1.12227018,-0.8805374
 9\H,0,-1.75801866,-1.18626348,-0.36130778\H,0,-0.32583935,-1.94165946,
 -0.64495117\C,0,-0.93145718,1.24918081,-0.66329283\N,0,-1.47997848,2.2

 Normal termination of Gaussian 16 at Wed Apr  9 02:38:45 2025.
