 Gaussian 16, Revision C.01,

 ----------------------------------------------------------------------
 #t hf aug-cc-pvdz symm=none int=(grid=ultrafine) guess=(read,tcheck) s
 table=(opt,rrhf)
 ----------------------------------------------------------------------
 -----
 title
 -----
 Symbolic Z-matrix:
 Charge = -1 Multiplicity = 1

 SCF Done:  E(RHF) =  -463.348557717     A.U. after   15 cycles
 Normal termination of Gaussian 16 at Wed Apr  9 02:41:01 2025.
 Gaussian 16:  ES64L-G16RevC.01  3-Jul-2019

 ----------------------------------------------------------------------
 #t hf aug-cc-pvdz iop(5/13=1,5/36=2,99/5=2) pseudo=read geom=check gue
 ss=(read,tcheck) scf=(maxcycle=1)
 ----------------------------------------------------------------------
 -----
 title
 -----
 Structure from the checkpoint file:  "E2SN2_191_mol1.chk"
 Charge = -1 Multiplicity = 1

                         Standard orientation:
 ---------------------------------------------------------------------
 Center     Atomic      Atomic             Coordinates (Angstroms)
 Number     Number       Type             X           Y           Z
 ---------------------------------------------------------------------
      1          6           0       -0.839009    0.074735    0.335123
      2          1           0       -0.031061    0.830848   -1.461855
      3          9           0        0.191522   -0.133066    1.788365
      4          9           0       -2.030961    0.504724   -1.049945
      5          6           0        0.341335    0.589675   -0.467501
      6          1           0       -1.405502    0.804527    0.880718
      7          6           0       -1.258158   -1.366823    0.240320
      8          1           0       -2.294103   -1.457004    0.567226
      9          1           0       -1.219038   -1.690204   -0.799503
     10          1           0       -0.614290   -1.990645    0.858437
     11          6           0        1.365478   -0.472126   -0.608954
     12          7           0        2.205339   -1.269224   -0.809986
     13          7           0        0.883822    1.793078    0.164904
     14          1           0        1.757275    2.043766   -0.285192
     15          1           0        1.079672    1.494040    1.116035
 ---------------------------------------------------------------------

 SCF Done:  E(RHF) =  -463.804349605     A.U. after    2 cycles

 The electronic state is 1-A.
 Alpha  occ. eigenvalues --  -26.17185 -26.13447 -15.37823 -15.36209 -11.19098
 Alpha  occ. eigenvalues --  -11.16357 -11.15089 -11.08308  -1.25730  -1.21220
 Alpha  occ. eigenvalues --   -1.09135  -1.05897  -0.90341  -0.81451  -0.69521
 Alpha  occ. eigenvalues --   -0.58649  -0.56973  -0.52067  -0.48289  -0.47011
 Alpha  occ. eigenvalues --   -0.44164  -0.42266  -0.39037  -0.37430  -0.36507
 Alpha  occ. eigenvalues --   -0.34271  -0.33285  -0.32641  -0.31776  -0.29143
 Alpha  occ. eigenvalues --   -0.29083  -0.26290
 Alpha virt. eigenvalues --    0.13388   0.14303   0.14791   0.15534   0.16571
 Alpha virt. eigenvalues --    0.16716   0.18101   0.19024   0.22778   0.23471
 Alpha virt. eigenvalues --    0.24563   0.24623   0.26344   0.27133   0.27769

 Mulliken charges:
               1
     1  C    1.232466
     2  H    0.196728
     3  F   -0.914316
     4  F   -0.931711
     5  C   -0.844384
     6  H   -0.132699
     7  C   -0.604561
     8  H    0.135817
     9  H    0.315338
    10  H    0.317752
    11  C   -1.613819
    12  N    0.935142
    13  N    0.465176
    14  H    0.132040
    15  H    0.311028
 Sum of Mulliken charges =  -1.00000

 Dipole moment (field-independent basis, Debye):
    X=              1.2353    Y=              0.9429    Z=              0.1638  Tot=              1.5626

 Test job not archived.
 1\1\GINC-SE227\SP\RHF\Aug-CC-pVDZ\C4H7F2N2(1-)\OHZDE\09-Apr-2025\0\\#t
  hf aug-cc-pvdz iop(5/13=1,5/36=2,99/5=2) pseudo=read geom=check guess
 =(read,tcheck) scf=(maxcycle=1)\\title\\-1,1\C,0,0.6663895,-0.00833134
 ,0.03513732\H,0,1.68677384,1.83368987,0.17438355\F,0,-1.1088948,-0.056
 91979,-0.21604958\F,0,2.54331119,-0.04321076,0.03577432\C,0,0.65525895
 ,1.50900425,0.04733691\H,0,0.78224803,-0.48140519,-0.92087675\C,0,0.65
 74318,-0.78389405,1.32400687\H,0,1.03480253,-1.78900597,1.13552978\H,0
 ,1.33432908,-0.31394186,2.03695345\H,0,-0.35155063,-0.83236897,1.73069

 Normal termination of Gaussian 16 at Wed Apr  9 02:41:06 2025.
