 Gaussian 16, Revision C.01,

 ----------------------------------------------------------------------
 #t hf aug-cc-pvdz symm=none int=(grid=ultrafine) guess=(read,tcheck) s
 table=(opt,rrhf)
 ----------------------------------------------------------------------
 -----
 title
 -----
 Symbolic Z-matrix:
 Charge = -1 Multiplicity = 1

 SCF Done:  E(RHF) =  -899.160174629     A.U. after   17 cycles
 Normal termination of Gaussian 16 at Wed Apr  9 02:55:06 2025.
 Gaussian 16:  ES64L-G16RevC.01  3-Jul-2019

 ----------------------------------------------------------------------
 #t hf aug-cc-pvdz iop(5/13=1,5/36=2,99/5=2) pseudo=read geom=check gue
 ss=(read,tcheck) scf=(maxcycle=1)
 ----------------------------------------------------------------------
 -----
 title
 -----
 Structure from the checkpoint file:  "E2SN2_336_mol1.chk"
 Charge = -1 Multiplicity = 1

                         Standard orientation:
 ---------------------------------------------------------------------
 Center     Atomic      Atomic             Coordinates (Angstroms)
 Number     Number       Type             X           Y           Z
 ---------------------------------------------------------------------
      1          6           0       -0.296832    0.026882   -0.374453
      2          1           0        0.470075   -1.476371    0.942128
      3          9           0        1.000115    1.495982   -0.740639
      4         17           0       -1.903177   -1.330380    0.248275
      5          6           0        0.729324   -0.451541    0.662540
      6          6           0       -0.188194   -0.484655   -1.792467
      7          1           0        0.619029    0.057028   -2.278790
      8          1           0        0.015493   -1.556619   -1.780732
      9          1           0       -1.129174   -0.323406   -2.318201
     10          6           0       -1.092999    1.204086   -0.110129
     11          7           0       -1.819150    2.102260    0.115542
     12          6           0        0.725897    0.417830    1.916133
     13          1           0        0.992427    1.432726    1.627759
     14          1           0       -0.270589    0.406719    2.362462
     15          1           0        1.444115    0.034002    2.645373
     16          6           0        2.075682   -0.528364    0.082525
     17          7           0        3.175482   -0.748958   -0.266946
 ---------------------------------------------------------------------

 SCF Done:  E(RHF) =  -899.666435180     A.U. after    2 cycles

 The electronic state is 1-A.
 Alpha  occ. eigenvalues -- -105.37506 -26.16083 -15.38609 -15.37951 -11.26985
 Alpha  occ. eigenvalues --  -11.18061 -11.16758 -11.16651 -11.12670 -11.12477
 Alpha  occ. eigenvalues --  -10.42322  -7.59167  -7.58967  -7.58959  -1.24196
 Alpha  occ. eigenvalues --   -1.09551  -1.08636  -1.01698  -0.92615  -0.83601
 Alpha  occ. eigenvalues --   -0.79212  -0.78576  -0.61398  -0.57155  -0.53470
 Alpha  occ. eigenvalues --   -0.49187  -0.48902  -0.48056  -0.45318  -0.44789
 Alpha  occ. eigenvalues --   -0.42978  -0.42030  -0.41437  -0.37534  -0.36152
 Alpha  occ. eigenvalues --   -0.35006  -0.32954  -0.32029  -0.30616  -0.29180
 Alpha  occ. eigenvalues --   -0.28558  -0.27792
 Alpha virt. eigenvalues --    0.12293   0.13403   0.13963   0.15004   0.15536
 Alpha virt. eigenvalues --    0.16172   0.16637   0.19276   0.19656   0.19965
 Alpha virt. eigenvalues --    0.21474   0.22190   0.23645   0.23791   0.24853

 Mulliken charges:
               1
     1  C    0.074598
     2  H    0.209481
     3  F   -0.831426
     4  Cl  -0.494575
     5  C    0.116383
     6  C    0.182836
     7  H    0.449558
     8  H    0.271184
     9  H    0.116742
    10  C   -2.192173
    11  N    1.089355
    12  C    0.060360
    13  H    0.471180
    14  H    0.258137
    15  H    0.059244
    16  C   -1.972184
    17  N    1.131300
 Sum of Mulliken charges =  -1.00000

 Dipole moment (field-independent basis, Debye):
    X=             -0.2826    Y=             -3.5077    Z=              1.3135  Tot=              3.7562

 Test job not archived.
 1\1\GINC-SE273\SP\RHF\Aug-CC-pVDZ\C6H7Cl1F1N2(1-)\OHZDE\09-Apr-2025\0\
 \#t hf aug-cc-pvdz iop(5/13=1,5/36=2,99/5=2) pseudo=read geom=check gu
 ess=(read,tcheck) scf=(maxcycle=1)\\title\\-1,1\C,0,0.72469648,-0.0437
 3333,-0.03470222\H,0,1.52656014,1.91276333,-0.36702489\F,0,-1.2682878,
 -0.0926599,-0.02844881\Cl,0,2.88586906,-0.03380051,0.33883349\C,0,0.56
 25036,1.48225551,-0.08257059\C,0,0.78521365,-0.80834093,-1.33698924\H,
 0,-0.22805433,-0.88563015,-1.72280354\H,0,1.42984171,-0.28091583,-2.04
 197888\H,0,1.20695221,-1.79875144,-1.16651163\C,0,0.4450366,-0.7598943

 Normal termination of Gaussian 16 at Wed Apr  9 02:55:16 2025.
