 Gaussian 16, Revision C.01,

 ----------------------------------------------------------------------
 #t hf aug-cc-pvdz symm=none int=(grid=ultrafine) guess=(read,tcheck) s
 table=(opt,rrhf)
 ----------------------------------------------------------------------
 -----
 title
 -----
 Symbolic Z-matrix:
 Charge = -1 Multiplicity = 1

 SCF Done:  E(RHF) =  -931.167154551     A.U. after   16 cycles
 Normal termination of Gaussian 16 at Wed Apr  9 03:00:24 2025.
 Gaussian 16:  ES64L-G16RevC.01  3-Jul-2019

 ----------------------------------------------------------------------
 #t hf aug-cc-pvdz iop(5/13=1,5/36=2,99/5=2) pseudo=read geom=check gue
 ss=(read,tcheck) scf=(maxcycle=1)
 ----------------------------------------------------------------------
 -----
 title
 -----
 Structure from the checkpoint file:  "E2SN2_416_mol1.chk"
 Charge = -1 Multiplicity = 1

                         Standard orientation:
 ---------------------------------------------------------------------
 Center     Atomic      Atomic             Coordinates (Angstroms)
 Number     Number       Type             X           Y           Z
 ---------------------------------------------------------------------
      1          6           0        0.518656   -0.006332    0.471449
      2          1           0       -0.037138    0.009564   -1.618041
      3          9           0       -1.071281   -0.016084    1.654175
      4         17           0        2.313446    0.005871   -0.903680
      5          6           0       -0.543520    0.005658   -0.648828
      6          7           0        0.849838   -1.288361    0.994772
      7          1           0        0.255752   -1.396183    1.809037
      8          1           0        1.832559   -1.330943    1.220414
      9          7           0        0.853181    1.263319    1.021469
     10          1           0        1.834783    1.295925    1.253634
     11          1           0        0.254855    1.357217    1.834443
     12          6           0       -1.382716    1.206848   -0.597887
     13          7           0       -2.057702    2.162798   -0.685740
     14          6           0       -1.393601   -1.188500   -0.613957
     15          7           0       -2.076856   -2.137281   -0.714666
 ---------------------------------------------------------------------

 SCF Done:  E(RHF) =  -931.706097538     A.U. after    2 cycles

 The electronic state is 1-A.
 Alpha  occ. eigenvalues -- -105.35660 -26.17412 -15.39901 -15.39864 -15.38409
 Alpha  occ. eigenvalues --  -15.38360 -11.31111 -11.21458 -11.17834 -11.17817
 Alpha  occ. eigenvalues --  -10.40540  -7.57358  -7.57209  -7.57182  -1.26450
 Alpha  occ. eigenvalues --   -1.13556  -1.10735  -1.09862  -1.05256  -0.97976
 Alpha  occ. eigenvalues --   -0.83232  -0.74323  -0.67314  -0.61681  -0.59098
 Alpha  occ. eigenvalues --   -0.58882  -0.57380  -0.55124  -0.49370  -0.48496
 Alpha  occ. eigenvalues --   -0.40841  -0.39222  -0.38829  -0.37527  -0.37152
 Alpha  occ. eigenvalues --   -0.34515  -0.34302  -0.33041  -0.32486  -0.28694
 Alpha  occ. eigenvalues --   -0.28271  -0.27696
 Alpha virt. eigenvalues --    0.12704   0.13915   0.14293   0.15796   0.17186
 Alpha virt. eigenvalues --    0.18406   0.18804   0.20392   0.22160   0.22554
 Alpha virt. eigenvalues --    0.23175   0.23465   0.23777   0.24334   0.25338

 Mulliken charges:
               1
     1  C   -2.825616
     2  H    0.411474
     3  F   -0.880879
     4  Cl  -0.548651
     5  C    0.929671
     6  N    0.982190
     7  H    0.334065
     8  H    0.214351
     9  N    0.984185
    10  H    0.212746
    11  H    0.336281
    12  C   -1.632248
    13  N    1.057270
    14  C   -1.633759
    15  N    1.058920
 Sum of Mulliken charges =  -1.00000

 Dipole moment (field-independent basis, Debye):
    X=              3.9233    Y=             -0.0350    Z=              1.8842  Tot=              4.3524

 Test job not archived.
 1\1\GINC-SE120\SP\RHF\Aug-CC-pVDZ\C4H5Cl1F1N4(1-)\OHZDE\09-Apr-2025\0\
 \#t hf aug-cc-pvdz iop(5/13=1,5/36=2,99/5=2) pseudo=read geom=check gu
 ess=(read,tcheck) scf=(maxcycle=1)\\title\\-1,1\C,0,0.78756641,-0.1092
 5879,0.0003822\H,0,1.6425899,1.87649697,-0.02857144\F,0,-1.19320597,-0
 .05563511,0.02275668\Cl,0,3.04830369,-0.13832839,-0.0245772\C,0,0.6454
 6367,1.42797993,-0.0089704\N,0,0.70304184,-0.74501573,-1.27076476\H,0,
 -0.26896281,-1.01915285,-1.35821405\H,0,1.33518535,-1.53062576,-1.3117
 5788\N,0,0.73161134,-0.72871511,1.28084538\H,0,1.36009371,-1.51759848,

 Normal termination of Gaussian 16 at Wed Apr  9 03:00:33 2025.
