 Gaussian 16, Revision C.01,

 ----------------------------------------------------------------------
 #t hf aug-cc-pvdz symm=none int=(grid=ultrafine) guess=(read,tcheck) s
 table=(opt,rrhf)
 ----------------------------------------------------------------------
 -----
 title
 -----
 Symbolic Z-matrix:
 Charge = -1 Multiplicity = 1

 SCF Done:  E(RHF) =  -463.415879022     A.U. after   14 cycles
 Normal termination of Gaussian 16 at Wed Apr  9 02:58:06 2025.
 Gaussian 16:  ES64L-G16RevC.01  3-Jul-2019

 ----------------------------------------------------------------------
 #t hf aug-cc-pvdz iop(5/13=1,5/36=2,99/5=2) pseudo=read geom=check gue
 ss=(read,tcheck) scf=(maxcycle=1)
 ----------------------------------------------------------------------
 -----
 title
 -----
 Structure from the checkpoint file:  "E2SN2_397_mol2.chk"
 Charge = -1 Multiplicity = 1

                         Standard orientation:
 ---------------------------------------------------------------------
 Center     Atomic      Atomic             Coordinates (Angstroms)
 Number     Number       Type             X           Y           Z
 ---------------------------------------------------------------------
      1          6           0       -0.315571    0.645193   -0.043467
      2          6           0        0.448520   -0.506154   -0.693475
      3          9           0        0.368145    1.853658   -0.307469
      4          1           0        0.459666   -0.327893   -1.771945
      5          1           0       -0.185745   -1.391104   -0.477016
      6          7           0       -1.595052    0.683470   -0.689666
      7          1           0       -1.954261   -0.288220   -0.523596
      8          1           0       -2.187411    1.318225   -0.161143
      9          6           0       -0.389586    0.478747    1.462951
     10          1           0       -0.942744    1.320921    1.891026
     11          1           0       -0.936594   -0.452736    1.622124
     12          1           0        0.601868    0.440522    1.922481
     13          6           0        1.812383   -0.647004   -0.208187
     14          7           0        2.914773   -0.770718    0.178768
     15          9           0       -1.860067   -1.835177    0.081628
 ---------------------------------------------------------------------

 SCF Done:  E(RHF) =  -463.872949319     A.U. after    2 cycles

 The electronic state is 1-A.
 Alpha  occ. eigenvalues --  -26.30426 -26.10506 -15.38341 -15.33210 -11.21366
 Alpha  occ. eigenvalues --  -11.16052 -11.12183 -11.09171  -1.42729  -1.17088
 Alpha  occ. eigenvalues --   -1.09167  -1.05518  -0.91468  -0.84391  -0.68830
 Alpha  occ. eigenvalues --   -0.60473  -0.55924  -0.53706  -0.51722  -0.49275
 Alpha  occ. eigenvalues --   -0.46873  -0.46298  -0.44322  -0.42409  -0.40244
 Alpha  occ. eigenvalues --   -0.38600  -0.35556  -0.34680  -0.30427  -0.26785
 Alpha  occ. eigenvalues --   -0.26196  -0.26011
 Alpha virt. eigenvalues --    0.13132   0.14202   0.14477   0.16759   0.16968
 Alpha virt. eigenvalues --    0.17633   0.18607   0.19613   0.20028   0.23719
 Alpha virt. eigenvalues --    0.24451   0.25334   0.26411   0.26718   0.27258

 Mulliken charges:
               1
     1  C   -0.750010
     2  C    0.468404
     3  F   -1.033921
     4  H    0.184105
     5  H    0.362518
     6  N    0.526875
     7  H    0.319120
     8  H    0.252474
     9  C   -0.221680
    10  H    0.118168
    11  H    0.276731
    12  H    0.230551
    13  C   -1.556002
    14  N    0.823577
    15  F   -1.000911
 Sum of Mulliken charges =  -1.00000

 Dipole moment (field-independent basis, Debye):
    X=              0.4743    Y=              4.3976    Z=              0.3340  Tot=              4.4358

 Test job not archived.
 1\1\GINC-SE362\SP\RHF\Aug-CC-pVDZ\C4H7F2N2(1-)\OHZDE\09-Apr-2025\0\\#t
  hf aug-cc-pvdz iop(5/13=1,5/36=2,99/5=2) pseudo=read geom=check guess
 =(read,tcheck) scf=(maxcycle=1)\\title\\-1,1\C,0,0.000238,-0.013386,0.
 008538\C,0,-0.514,-0.164587,-1.421372\F,0,1.409728,0.086623,-0.021252\
 H,0,-0.229289,0.73603,-1.971669\H,0,-1.617056,-0.182706,-1.297991\N,0,
 -0.543881,1.221087,0.494462\H,0,-1.574525,1.07268,0.365851\H,0,-0.3677
 54,1.261978,1.494685\C,0,-0.356953,-1.22102,0.855009\H,0,0.027718,-1.0
 7547,1.86957\H,0,-1.448367,-1.25141,0.865366\H,0,0.06224,-2.146326,0.4

 Normal termination of Gaussian 16 at Wed Apr  9 02:58:11 2025.
