 Gaussian 16, Revision C.01,

 ----------------------------------------------------------------------
 #t hf aug-cc-pvdz symm=none int=(grid=ultrafine) guess=(read,tcheck) s
 table=(opt,rrhf)
 ----------------------------------------------------------------------
 -----
 title
 -----
 Symbolic Z-matrix:
 Charge = -1 Multiplicity = 1

 SCF Done:  E(RHF) =  -915.142126034     A.U. after   17 cycles
 Normal termination of Gaussian 16 at Wed Apr  9 02:49:53 2025.
 Gaussian 16:  ES64L-G16RevC.01  3-Jul-2019

 ----------------------------------------------------------------------
 #t hf aug-cc-pvdz iop(5/13=1,5/36=2,99/5=2) pseudo=read geom=check gue
 ss=(read,tcheck) scf=(maxcycle=1)
 ----------------------------------------------------------------------
 -----
 title
 -----
 Structure from the checkpoint file:  "E2SN2_274_mol1.chk"
 Charge = -1 Multiplicity = 1

                         Standard orientation:
 ---------------------------------------------------------------------
 Center     Atomic      Atomic             Coordinates (Angstroms)
 Number     Number       Type             X           Y           Z
 ---------------------------------------------------------------------
      1          6           0       -0.110237    0.102656    0.146587
      2          1           0        0.437922   -0.278699   -1.885095
      3          9           0        1.302893    0.461530    1.431842
      4         17           0       -1.913070   -0.371846   -1.075083
      5          6           0        0.953581   -0.204164   -0.928418
      6          6           0       -0.516012    1.470104    0.374628
      7          7           0       -0.870406    2.576231    0.558510
      8          6           0       -0.484051   -0.881186    1.137931
      9          7           0       -0.793214   -1.716786    1.905783
     10          6           0        1.623959   -1.540928   -0.621968
     11          1           0        2.108249   -1.480033    0.352221
     12          1           0        0.902344   -2.362504   -0.617294
     13          1           0        2.373303   -1.749278   -1.392825
     14          7           0        1.853583    0.938200   -1.021534
     15          1           0        2.564721    0.734905   -1.714152
     16          1           0        2.276422    1.040813   -0.104897
 ---------------------------------------------------------------------

 SCF Done:  E(RHF) =  -915.663015496     A.U. after    2 cycles

 The electronic state is 1-A.
 Alpha  occ. eigenvalues -- -105.37730 -26.18939 -15.39482 -15.39450 -15.36691
 Alpha  occ. eigenvalues --  -11.29931 -11.18087 -11.17756 -11.17526 -11.11748
 Alpha  occ. eigenvalues --  -10.42497  -7.59344  -7.59124  -7.59119  -1.27055
 Alpha  occ. eigenvalues --   -1.10688  -1.09300  -1.08074  -0.97501  -0.88276
 Alpha  occ. eigenvalues --   -0.82428  -0.74638  -0.69846  -0.61426  -0.54014
 Alpha  occ. eigenvalues --   -0.50546  -0.49373  -0.48973  -0.47626  -0.45973
 Alpha  occ. eigenvalues --   -0.43753  -0.41392  -0.40090  -0.37301  -0.36815
 Alpha  occ. eigenvalues --   -0.35557  -0.33480  -0.33316  -0.31954  -0.28826
 Alpha  occ. eigenvalues --   -0.28627  -0.27801
 Alpha virt. eigenvalues --    0.11334   0.12951   0.13804   0.15355   0.16400
 Alpha virt. eigenvalues --    0.17095   0.17809   0.18366   0.19958   0.21377
 Alpha virt. eigenvalues --    0.22152   0.22681   0.23538   0.24341   0.25156

 Mulliken charges:
               1
     1  C    0.405577
     2  H    0.014310
     3  F   -0.810737
     4  Cl  -0.392990
     5  C   -0.852254
     6  C   -1.621807
     7  N    0.999430
     8  C   -1.491102
     9  N    0.920156
    10  C    0.016466
    11  H    0.384551
    12  H    0.290714
    13  H    0.018469
    14  N    0.674176
    15  H    0.176160
    16  H    0.268880
 Sum of Mulliken charges =  -1.00000

 Dipole moment (field-independent basis, Debye):
    X=              4.5294    Y=             -2.5422    Z=             -4.4985  Tot=              6.8713

 Test job not archived.
 1\1\GINC-SE208\SP\RHF\Aug-CC-pVDZ\C5H6Cl1F1N3(1-)\OHZDE\09-Apr-2025\0\
 \#t hf aug-cc-pvdz iop(5/13=1,5/36=2,99/5=2) pseudo=read geom=check gu
 ess=(read,tcheck) scf=(maxcycle=1)\\title\\-1,1\C,0,0.70888322,0.00746
 346,-0.02129387\H,0,1.67411128,1.90926281,-0.17982934\F,0,-1.23082147,
 -0.05461667,-0.12759386\Cl,0,2.9125641,-0.20915674,0.23307375\C,0,0.65
 483572,1.54955032,-0.04427768\C,0,0.69206874,-0.72267027,-1.26756489\N
 ,0,0.69838663,-1.33020233,-2.27443669\C,0,0.46356994,-0.73622485,1.194
 10547\N,0,0.29741132,-1.309242,2.20773701\C,0,0.12110061,2.06552647,1.

 Normal termination of Gaussian 16 at Wed Apr  9 02:50:01 2025.
