 Gaussian 16, Revision C.01,

 ----------------------------------------------------------------------
 #t hf aug-cc-pvdz symm=none int=(grid=ultrafine) guess=(read,tcheck) s
 table=(opt,rrhf)
 ----------------------------------------------------------------------
 -----
 title
 -----
 Symbolic Z-matrix:
 Charge = -1 Multiplicity = 1

 SCF Done:  E(RHF) =  -1334.36432440     A.U. after   16 cycles
 Normal termination of Gaussian 16 at Wed Apr  9 02:46:47 2025.
 Gaussian 16:  ES64L-G16RevC.01  3-Jul-2019

 ----------------------------------------------------------------------
 #t hf aug-cc-pvdz iop(5/13=1,5/36=2,99/5=2) pseudo=read geom=check gue
 ss=(read,tcheck) scf=(maxcycle=1)
 ----------------------------------------------------------------------
 -----
 title
 -----
 Structure from the checkpoint file:  "E2SN2_235_mol2.chk"
 Charge = -1 Multiplicity = 1

                         Standard orientation:
 ---------------------------------------------------------------------
 Center     Atomic      Atomic             Coordinates (Angstroms)
 Number     Number       Type             X           Y           Z
 ---------------------------------------------------------------------
      1          6           0        0.744741    0.125637   -0.262169
      2          6           0        0.097205    0.748896    0.999231
      3         17           0        2.225819    1.058806   -0.706226
      4          1           0        0.925895    0.925345    1.692639
      5          7           0        1.279466   -1.244447    0.159999
      6          8           0        0.968577   -2.223213   -0.511944
      7          8           0        1.971608   -1.278365    1.174430
      8          6           0       -0.150986   -0.004176   -1.461644
      9          1           0       -0.380652    0.993902   -1.834135
     10          1           0        0.340002   -0.574373   -2.249237
     11          1           0       -1.096793   -0.477397   -1.187515
     12          7           0       -0.865542   -0.110272    1.647475
     13          1           0       -1.707550   -0.240947    1.083063
     14          1           0       -0.475716   -1.005521    1.909055
     15          6           0       -0.589772    2.064418    0.656029
     16          1           0       -1.503412    1.865164    0.091648
     17          1           0        0.060971    2.734922    0.090754
     18          1           0       -0.876858    2.551346    1.589729
     19         17           0       -3.538287   -0.287360   -0.395356
 ---------------------------------------------------------------------

 SCF Done:  E(RHF) =  -1334.94112398     A.U. after    2 cycles

 The electronic state is 1-A.
 Alpha  occ. eigenvalues -- -105.47881-105.28215 -20.50027 -20.49255 -15.68853
 Alpha  occ. eigenvalues --  -15.36085 -11.26756 -11.17350 -11.12640 -11.11740
 Alpha  occ. eigenvalues --  -10.52749 -10.32802  -7.69692  -7.69322  -7.69308
 Alpha  occ. eigenvalues --   -7.49570  -7.49540  -7.49533  -1.56788  -1.40695
 Alpha  occ. eigenvalues --   -1.11045  -1.04687  -0.93203  -0.89900  -0.87139
 Alpha  occ. eigenvalues --   -0.77294  -0.73524  -0.71284  -0.65073  -0.64713
 Alpha  occ. eigenvalues --   -0.63312  -0.58992  -0.53996  -0.52174  -0.48307
 Alpha  occ. eigenvalues --   -0.46166  -0.45220  -0.43397  -0.41872  -0.40359
 Alpha  occ. eigenvalues --   -0.39817  -0.38527  -0.37552  -0.36893  -0.34940
 Alpha  occ. eigenvalues --   -0.31097  -0.20931  -0.20534  -0.20493
 Alpha virt. eigenvalues --    0.12135   0.12691   0.13084   0.14132   0.14600
 Alpha virt. eigenvalues --    0.15448   0.16237   0.17070   0.18123   0.19435
 Alpha virt. eigenvalues --    0.20437   0.21982   0.22797   0.23675   0.24344

 Mulliken charges:
               1
     1  C   -1.270621
     2  C   -1.679152
     3  Cl  -0.092351
     4  H    0.087876
     5  N    2.880748
     6  O   -1.376902
     7  O   -1.561960
     8  C    0.117279
     9  H    0.237476
    10  H    0.221218
    11  H    0.303446
    12  N    1.072879
    13  H    0.042947
    14  H    0.264804
    15  C    0.190262
    16  H    0.233104
    17  H    0.221043
    18  H    0.089181
    19  Cl  -0.981275
 Sum of Mulliken charges =  -1.00000

 Dipole moment (field-independent basis, Debye):
    X=             10.7057    Y=              2.9015    Z=             -0.1384  Tot=             11.0928

 Test job not archived.
 1\1\GINC-SE128\SP\RHF\Aug-CC-pVDZ\C4H9Cl2N2O2(1-)\OHZDE\09-Apr-2025\0\
 \#t hf aug-cc-pvdz iop(5/13=1,5/36=2,99/5=2) pseudo=read geom=check gu
 ess=(read,tcheck) scf=(maxcycle=1)\\title\\-1,1\C,0,0.026357,0.032827,
 0.000558\C,0,-0.437835,0.184785,-1.469244\Cl,0,1.798018,-0.315028,0.04
 2964\H,0,0.311409,0.826319,-1.944368\N,0,-0.097202,1.418763,0.637112\O
 ,0,-0.709508,1.520873,1.695789\O,0,0.407881,2.355363,0.023146\C,0,-0.7
 10694,-0.990663,0.817345\H,0,-0.469026,-1.981706,0.433827\H,0,-0.41676
 ,-0.932243,1.864573\H,0,-1.790652,-0.856309,0.721028\N,0,-1.731427,0.8

 Normal termination of Gaussian 16 at Wed Apr  9 02:47:00 2025.
