 Gaussian 16, Revision C.01,

 ----------------------------------------------------------------------
 #t hf aug-cc-pvdz symm=none int=(grid=ultrafine) guess=(read,tcheck) s
 table=(opt,rrhf)
 ----------------------------------------------------------------------
 -----
 title
 -----
 Symbolic Z-matrix:
 Charge = -1 Multiplicity = 1

 SCF Done:  E(RHF) =  -366.773775713     A.U. after   14 cycles
 Normal termination of Gaussian 16 at Wed Apr  9 02:45:10 2025.
 Gaussian 16:  ES64L-G16RevC.01  3-Jul-2019

 ----------------------------------------------------------------------
 #t hf aug-cc-pvdz iop(5/13=1,5/36=2,99/5=2) pseudo=read geom=check gue
 ss=(read,tcheck) scf=(maxcycle=1)
 ----------------------------------------------------------------------
 -----
 title
 -----
 Structure from the checkpoint file:  "E2SN2_23_mol2.chk"
 Charge = -1 Multiplicity = 1

                         Standard orientation:
 ---------------------------------------------------------------------
 Center     Atomic      Atomic             Coordinates (Angstroms)
 Number     Number       Type             X           Y           Z
 ---------------------------------------------------------------------
      1          6           0        0.639196   -0.017000    0.022727
      2          6           0       -0.839065    0.007927   -0.413496
      3          9           0        0.661516   -0.433176    1.382714
      4          1           0       -0.810648    0.200454   -1.493433
      5          6           0        1.478361   -1.012643   -0.754501
      6          1           0        2.489135   -0.993557   -0.344396
      7          1           0        1.077333   -2.026488   -0.695546
      8          1           0        1.523460   -0.698064   -1.800019
      9          7           0        1.287295    1.271751   -0.017511
     10          1           0        0.944760    1.788235    0.787025
     11          1           0        0.892865    1.802718   -0.824649
     12          7           0       -1.597183    1.120089    0.149511
     13          1           0       -1.311524    1.257598    1.114270
     14          1           0       -1.310283    1.945478   -0.395647
     15          6           0       -1.567767   -1.304400   -0.134606
     16          1           0       -1.582324   -1.507311    0.939448
     17          1           0       -1.111288   -2.161123   -0.638926
     18          1           0       -2.599792   -1.205182   -0.476592
     19          1           0       -0.250472    2.709641   -1.860702
 ---------------------------------------------------------------------

 SCF Done:  E(RHF) =  -367.164402080     A.U. after    2 cycles

 The electronic state is 1-A.
 Alpha  occ. eigenvalues --  -26.30672 -15.32866 -15.32801 -11.20331 -11.11824
 Alpha  occ. eigenvalues --  -11.10431 -11.09898  -1.42820  -1.06433  -1.01395
 Alpha  occ. eigenvalues --   -0.89588  -0.84701  -0.73844  -0.65588  -0.57994
 Alpha  occ. eigenvalues --   -0.56243  -0.54288  -0.52702  -0.49196  -0.45527
 Alpha  occ. eigenvalues --   -0.44461  -0.43185  -0.42349  -0.41705  -0.40583
 Alpha  occ. eigenvalues --   -0.37754  -0.35832  -0.30836  -0.27360  -0.09433
 Alpha virt. eigenvalues --    0.12398   0.12613   0.13517   0.14356   0.15078
 Alpha virt. eigenvalues --    0.15800   0.16105   0.17408   0.18251   0.20168
 Alpha virt. eigenvalues --    0.21414   0.21701   0.22415   0.24300   0.25015

 Mulliken charges:
               1
     1  C   -0.278694
     2  C   -2.099863
     3  F   -1.094882
     4  H    0.098214
     5  C   -0.044881
     6  H    0.142795
     7  H    0.197986
     8  H    0.265387
     9  N    0.619057
    10  H    0.284472
    11  H    0.209624
    12  N    0.718362
    13  H    0.239058
    14  H    0.248423
    15  C   -0.193473
    16  H    0.208801
    17  H    0.157893
    18  H    0.127819
    19  H   -0.806099
 Sum of Mulliken charges =  -1.00000

 Dipole moment (field-independent basis, Debye):
    X=              0.8025    Y=             -9.4583    Z=              5.3286  Tot=             10.8856

 Test job not archived.
 1\1\GINC-SE071\SP\RHF\Aug-CC-pVDZ\C4H12F1N2(1-)\OHZDE\09-Apr-2025\0\\#
 t hf aug-cc-pvdz iop(5/13=1,5/36=2,99/5=2) pseudo=read geom=check gues
 s=(read,tcheck) scf=(maxcycle=1)\\title\\-1,1\C,0,-0.162884,0.106576,-
 1.477504\C,0,0.054143,0.177629,0.046969\F,0,-1.546623,-0.148304,-1.686
 236\H,0,1.094308,0.505488,0.168221\C,0,0.156315,1.405983,-2.191114\H,0
 ,-0.073364,1.27403,-3.249439\H,0,-0.415012,2.247244,-1.793565\H,0,1.22
 5059,1.611196,-2.092244\N,0,0.549501,-0.968698,-2.12467\H,0,0.043011,-
 1.82044,-1.902485\H,0,1.457127,-1.096477,-1.625811\N,0,-0.013255,-1.12

 Normal termination of Gaussian 16 at Wed Apr  9 02:45:18 2025.
