 Gaussian 16, Revision C.01,

 ----------------------------------------------------------------------
 #t hf aug-cc-pvdz symm=none int=(grid=ultrafine) guess=(read,tcheck) s
 table=(opt,rrhf)
 ----------------------------------------------------------------------
 -----
 title
 -----
 Symbolic Z-matrix:
 Charge = -1 Multiplicity = 1

 SCF Done:  E(RHF) =  -825.755704660     A.U. after   14 cycles
 Normal termination of Gaussian 16 at Wed Apr  9 02:55:36 2025.
 Gaussian 16:  ES64L-G16RevC.01  3-Jul-2019

 ----------------------------------------------------------------------
 #t hf aug-cc-pvdz iop(5/13=1,5/36=2,99/5=2) pseudo=read geom=check gue
 ss=(read,tcheck) scf=(maxcycle=1)
 ----------------------------------------------------------------------
 -----
 title
 -----
 Structure from the checkpoint file:  "E2SN2_354_mol1.chk"
 Charge = -1 Multiplicity = 1

                         Standard orientation:
 ---------------------------------------------------------------------
 Center     Atomic      Atomic             Coordinates (Angstroms)
 Number     Number       Type             X           Y           Z
 ---------------------------------------------------------------------
      1          6           0       -0.017509   -0.486047    0.028305
      2          1           0        0.210045    1.271710   -1.104355
      3          9           0       -2.047162   -1.108135    0.460493
      4         17           0        2.283091    0.186490   -0.223693
      5          6           0       -0.494912    0.928410   -0.341994
      6          6           0        0.030298   -1.480397   -1.091325
      7          1           0       -0.940396   -1.972987   -1.084018
      8          1           0        0.189741   -0.977322   -2.044528
      9          1           0        0.832303   -2.200376   -0.928121
     10          6           0        0.260168   -0.935894    1.437758
     11          1           0        1.100377   -1.629183    1.445761
     12          1           0        0.490113   -0.091958    2.082086
     13          1           0       -0.650541   -1.420155    1.780318
     14          7           0       -0.426389    1.795816    0.846069
     15          1           0       -0.755280    2.712729    0.558796
     16          1           0        0.562029    1.902305    1.064505
     17          7           0       -1.797759    0.901435   -0.972448
     18          1           0       -2.141832    1.851195   -1.054711
     19          1           0       -2.383885    0.319739   -0.369201
 ---------------------------------------------------------------------

 SCF Done:  E(RHF) =  -826.215028994     A.U. after    2 cycles

 The electronic state is 1-A.
 Alpha  occ. eigenvalues -- -105.31591 -26.12296 -15.35324 -15.32893 -11.21059
 Alpha  occ. eigenvalues --  -11.15579 -11.08869 -11.07980 -10.36389  -7.53193
 Alpha  occ. eigenvalues --   -7.53086  -7.53078  -1.20053  -1.08686  -0.98900
 Alpha  occ. eigenvalues --   -0.94068  -0.81507  -0.77941  -0.75816  -0.61418
 Alpha  occ. eigenvalues --   -0.56102  -0.55409  -0.53380  -0.47359  -0.47309
 Alpha  occ. eigenvalues --   -0.44405  -0.42782  -0.42380  -0.38191  -0.36872
 Alpha  occ. eigenvalues --   -0.32209  -0.30007  -0.28969  -0.28191  -0.27532
 Alpha  occ. eigenvalues --   -0.24193  -0.23833  -0.23681
 Alpha virt. eigenvalues --    0.12585   0.13847   0.14258   0.14710   0.15651
 Alpha virt. eigenvalues --    0.15997   0.16526   0.17197   0.17938   0.18253
 Alpha virt. eigenvalues --    0.19644   0.22310   0.23711   0.24023   0.24618

 Mulliken charges:
               1
     1  C   -0.381497
     2  H    0.102786
     3  F   -0.970154
     4  Cl  -0.743331
     5  C   -2.200803
     6  C   -0.348071
     7  H    0.430211
     8  H    0.252844
     9  H    0.161455
    10  C   -0.238470
    11  H    0.219075
    12  H    0.194463
    13  H    0.394546
    14  N    0.544332
    15  H    0.126625
    16  H    0.263674
    17  N    0.652626
    18  H    0.207882
    19  H    0.331808
 Sum of Mulliken charges =  -1.00000

 Dipole moment (field-independent basis, Debye):
    X=             -0.3109    Y=              2.1922    Z=             -0.4231  Tot=              2.2542

 Test job not archived.
 1\1\GINC-SE412\SP\RHF\Aug-CC-pVDZ\C4H11Cl1F1N2(1-)\OHZDE\09-Apr-2025\0
 \\#t hf aug-cc-pvdz iop(5/13=1,5/36=2,99/5=2) pseudo=read geom=check g
 uess=(read,tcheck) scf=(maxcycle=1)\\title\\-1,1\C,0,0.66656712,-0.021
 09726,-0.00326658\H,0,1.5713306,1.80130395,-0.53681035\F,0,-1.47347995
 ,-0.16926714,-0.30578097\Cl,0,3.01005708,0.07054396,0.5519169\C,0,0.60
 819999,1.51239613,-0.10678226\C,0,0.88182151,-0.76130816,-1.28792308\H
 ,0,-0.11463019,-0.97883706,-1.66833004\H,0,1.42957577,-0.1439112,-1.99
 918137\H,0,1.43866977,-1.68124416,-1.1094427\C,0,0.38876224,-0.7879859

 Normal termination of Gaussian 16 at Wed Apr  9 02:55:46 2025.
