 Gaussian 16, Revision C.01,

 ----------------------------------------------------------------------
 #t hf aug-cc-pvdz symm=none int=(grid=ultrafine) guess=(read,tcheck) s
 table=(opt,rrhf)
 ----------------------------------------------------------------------
 -----
 title
 -----
 Symbolic Z-matrix:
 Charge = -1 Multiplicity = 1

 SCF Done:  E(RHF) =  -1043.01736483     A.U. after   16 cycles
 Normal termination of Gaussian 16 at Wed Apr  9 02:54:29 2025.
 Gaussian 16:  ES64L-G16RevC.01  3-Jul-2019

 ----------------------------------------------------------------------
 #t hf aug-cc-pvdz iop(5/13=1,5/36=2,99/5=2) pseudo=read geom=check gue
 ss=(read,tcheck) scf=(maxcycle=1)
 ----------------------------------------------------------------------
 -----
 title
 -----
 Structure from the checkpoint file:  "E2SN2_321_mol2.chk"
 Charge = -1 Multiplicity = 1

                         Standard orientation:
 ---------------------------------------------------------------------
 Center     Atomic      Atomic             Coordinates (Angstroms)
 Number     Number       Type             X           Y           Z
 ---------------------------------------------------------------------
      1          6           0        0.230024    0.841134    0.401551
      2          6           0        0.800304   -0.049692   -0.732565
      3          9           0        1.353115    1.494813    0.941430
      4          1           0        1.290534    0.585962   -1.471414
      5          6           0       -0.584927    1.883972   -0.258823
      6          7           0       -1.149253    2.743982   -0.824060
      7          7           0       -0.495012    0.224027    1.436769
      8          1           0       -0.043229   -0.642282    1.704384
      9          1           0       -1.458054    0.010789    1.155554
     10          7           0       -0.133567   -0.939679   -1.304379
     11          1           0       -0.371846   -0.683700   -2.249229
     12          1           0       -0.993705   -1.072477   -0.766251
     13          7           0        1.970308   -0.827704   -0.135255
     14          8           0        1.719907   -1.615213    0.774023
     15          8           0        3.084556   -0.631615   -0.616095
     16         17           0       -3.121010   -1.066697    0.071656
 ---------------------------------------------------------------------

 SCF Done:  E(RHF) =  -1043.66117718     A.U. after    2 cycles

 The electronic state is 1-A.
 Alpha  occ. eigenvalues -- -105.30345 -26.37679 -20.50207 -20.49855 -15.68753
 Alpha  occ. eigenvalues --  -15.44139 -15.40298 -15.39405 -11.31793 -11.25699
 Alpha  occ. eigenvalues --  -11.20295 -10.34983  -7.51760  -7.51723  -7.51697
 Alpha  occ. eigenvalues --   -1.56893  -1.50292  -1.40952  -1.16219  -1.13450
 Alpha  occ. eigenvalues --   -1.10374  -0.98164  -0.89321  -0.77856  -0.76151
 Alpha  occ. eigenvalues --   -0.70596  -0.68810  -0.66948  -0.65712  -0.63374
 Alpha  occ. eigenvalues --   -0.62000  -0.58131  -0.56684  -0.53776  -0.53135
 Alpha  occ. eigenvalues --   -0.50043  -0.48314  -0.42360  -0.41827  -0.41125
 Alpha  occ. eigenvalues --   -0.39477  -0.38083  -0.35923  -0.34462  -0.23442
 Alpha  occ. eigenvalues --   -0.23001  -0.22671
 Alpha virt. eigenvalues --    0.12452   0.14159   0.14984   0.15653   0.16856
 Alpha virt. eigenvalues --    0.17696   0.18229   0.19195   0.20419   0.22098
 Alpha virt. eigenvalues --    0.22342   0.22871   0.23421   0.24032   0.24547

 Mulliken charges:
               1
     1  C    1.014119
     2  C   -1.886282
     3  F   -1.036048
     4  H    0.004321
     5  C   -1.791741
     6  N    1.010152
     7  N    0.703264
     8  H    0.232233
     9  H    0.202067
    10  N    0.980983
    11  H    0.209976
    12  H    0.125293
    13  N    3.168534
    14  O   -1.492618
    15  O   -1.496977
    16  Cl  -0.947277
 Sum of Mulliken charges =  -1.00000

 Dipole moment (field-independent basis, Debye):
    X=              8.2317    Y=              1.5854    Z=             -1.3435  Tot=              8.4900

 Test job not archived.
 1\1\GINC-SE336\SP\RHF\Aug-CC-pVDZ\C3H5Cl1F1N4O2(1-)\OHZDE\09-Apr-2025\
 0\\#t hf aug-cc-pvdz iop(5/13=1,5/36=2,99/5=2) pseudo=read geom=check
 guess=(read,tcheck) scf=(maxcycle=1)\\title\\-1,1\C,0,-0.020094,0.0218
 19,-0.026732\C,0,-0.214425,0.325722,-1.535005\F,0,1.366441,-0.164638,0
 .124442\H,0,0.343804,1.22754,-1.790707\C,0,-0.356821,1.268049,0.695263
 \N,0,-0.547611,2.29851,1.223772\N,0,-0.703257,-1.075165,0.528326\H,0,-
 0.676763,-1.858,-0.114079\H,0,-1.68525,-0.854675,0.726005\N,0,-1.56090
 3,0.373808,-1.954348\H,0,-1.848918,1.307954,-2.198197\H,0,-2.235925,-0

 Normal termination of Gaussian 16 at Wed Apr  9 02:54:39 2025.
