 Gaussian 16, Revision C.01,

 ----------------------------------------------------------------------
 #t hf aug-cc-pvdz symm=none int=(grid=ultrafine) guess=(read,tcheck) s
 table=(opt,rrhf)
 ----------------------------------------------------------------------
 -----
 title
 -----
 Symbolic Z-matrix:
 Charge = -1 Multiplicity = 1

 SCF Done:  E(RHF) =  -571.151942208     A.U. after   15 cycles
 Normal termination of Gaussian 16 at Wed Apr  9 02:52:24 2025.
 Gaussian 16:  ES64L-G16RevC.01  3-Jul-2019

 ----------------------------------------------------------------------
 #t hf aug-cc-pvdz iop(5/13=1,5/36=2,99/5=2) pseudo=read geom=check gue
 ss=(read,tcheck) scf=(maxcycle=1)
 ----------------------------------------------------------------------
 -----
 title
 -----
 Structure from the checkpoint file:  "E2SN2_312_mol2.chk"
 Charge = -1 Multiplicity = 1

                         Standard orientation:
 ---------------------------------------------------------------------
 Center     Atomic      Atomic             Coordinates (Angstroms)
 Number     Number       Type             X           Y           Z
 ---------------------------------------------------------------------
      1          6           0        0.004264    0.652508   -0.434071
      2          6           0       -0.013281   -0.856418   -0.075439
      3          9           0       -0.844146    0.802477   -1.575473
      4          1           0        0.572399   -1.330864   -0.869981
      5          6           0       -0.683479    1.428786    0.629783
      6          7           0       -1.176228    2.045114    1.500843
      7          7           0        1.296345    1.084493   -0.682181
      8          1           0        2.056998    0.360446   -0.468000
      9          1           0        1.498414    2.012609   -0.347901
     10          6           0       -1.395035   -1.364499   -0.134431
     11          7           0       -2.489749   -1.788722   -0.144330
     12          7           0        0.614854   -1.207765    1.176885
     13          1           0        0.299560   -0.583813    1.911312
     14          1           0        1.629902   -1.088378    0.996356
     15          9           0        2.927631   -0.742932    0.009322
 ---------------------------------------------------------------------

 SCF Done:  E(RHF) =  -571.700867233     A.U. after    2 cycles

 The electronic state is 1-A.
 Alpha  occ. eigenvalues --  -26.33925 -26.14418 -15.42754 -15.40365 -15.36366
 Alpha  occ. eigenvalues --  -15.36204 -11.28697 -11.20068 -11.19146 -11.17385
 Alpha  occ. eigenvalues --   -1.46012  -1.21885  -1.13654  -1.11604  -1.09865
 Alpha  occ. eigenvalues --   -1.06061  -0.89704  -0.81239  -0.68716  -0.62310
 Alpha  occ. eigenvalues --   -0.61567  -0.59000  -0.54401  -0.53755  -0.52374
 Alpha  occ. eigenvalues --   -0.49549  -0.47708  -0.47430  -0.46031  -0.41172
 Alpha  occ. eigenvalues --   -0.40527  -0.38292  -0.37788  -0.34190  -0.33425
 Alpha  occ. eigenvalues --   -0.30955  -0.30574  -0.29256
 Alpha virt. eigenvalues --    0.13737   0.14934   0.15358   0.17051   0.17864
 Alpha virt. eigenvalues --    0.18274   0.18765   0.19390   0.21742   0.23057
 Alpha virt. eigenvalues --    0.23328   0.23802   0.24182   0.24909   0.25409

 Mulliken charges:
               1
     1  C    1.180241
     2  C   -0.804400
     3  F   -0.975316
     4  H    0.156604
     5  C   -2.109404
     6  N    0.993585
     7  N    0.408636
     8  H    0.350020
     9  H    0.237048
    10  C   -1.501320
    11  N    0.917864
    12  N    0.706904
    13  H    0.262745
    14  H    0.235406
    15  F   -1.058612
 Sum of Mulliken charges =  -1.00000

 Dipole moment (field-independent basis, Debye):
    X=             -1.1517    Y=              2.5861    Z=             -0.8531  Tot=              2.9567

 Test job not archived.
 1\1\GINC-SE367\SP\RHF\Aug-CC-pVDZ\C4H5F2N4(1-)\OHZDE\09-Apr-2025\0\\#t
  hf aug-cc-pvdz iop(5/13=1,5/36=2,99/5=2) pseudo=read geom=check guess
 =(read,tcheck) scf=(maxcycle=1)\\title\\-1,1\C,0,0.062337,-0.035393,0.
 018373\C,0,-0.444709,0.071438,-1.443569\F,0,1.295944,-0.756623,-0.0375
 77\H,0,-0.774447,-0.943164,-1.691102\C,0,0.454224,1.309747,0.512747\N,
 0,0.7079,2.382794,0.919717\N,0,-0.875541,-0.664296,0.819939\H,0,-1.816
 219,-0.85186,0.34176\H,0,-0.949024,-0.288492,1.751253\C,0,0.6728,0.438
 559,-2.330849\N,0,1.538318,0.760014,-3.056113\N,0,-1.577558,0.943599,-

 Normal termination of Gaussian 16 at Wed Apr  9 02:52:31 2025.
