 Gaussian 16, Revision C.01,

 ----------------------------------------------------------------------
 #t hf aug-cc-pvdz symm=none int=(grid=ultrafine) guess=(read,tcheck) s
 table=(opt,rrhf)
 ----------------------------------------------------------------------
 -----
 title
 -----
 Symbolic Z-matrix:
 Charge = -1 Multiplicity = 1

 SCF Done:  E(RHF) =  -1259.29994724     A.U. after   16 cycles
 Normal termination of Gaussian 16 at Wed Apr  9 02:51:12 2025.
 Gaussian 16:  ES64L-G16RevC.01  3-Jul-2019

 ----------------------------------------------------------------------
 #t hf aug-cc-pvdz iop(5/13=1,5/36=2,99/5=2) pseudo=read geom=check gue
 ss=(read,tcheck) scf=(maxcycle=1)
 ----------------------------------------------------------------------
 -----
 title
 -----
 Structure from the checkpoint file:  "E2SN2_284_mol2.chk"
 Charge = -1 Multiplicity = 1

                         Standard orientation:
 ---------------------------------------------------------------------
 Center     Atomic      Atomic             Coordinates (Angstroms)
 Number     Number       Type             X           Y           Z
 ---------------------------------------------------------------------
      1          6           0        0.553425   -0.601992   -0.139657
      2          6           0       -0.123058    0.781256   -0.047855
      3         17           0        2.149307   -0.459243   -0.998917
      4          1           0       -1.055732    0.617149    0.519397
      5          6           0        0.865800   -1.084662    1.208467
      6          7           0        1.111840   -1.496040    2.281380
      7          6           0       -0.314036   -1.614696   -0.873455
      8          1           0       -1.320296   -1.590903   -0.444118
      9          1           0        0.125767   -2.610178   -0.791930
     10          1           0       -0.378867   -1.343628   -1.927463
     11          6           0       -0.545713    1.348111   -1.403405
     12          1           0       -0.926880    2.360166   -1.257967
     13          1           0       -1.369524    0.750200   -1.790141
     14          1           0        0.289529    1.379943   -2.106439
     15          6           0        0.735204    1.719274    0.674853
     16          7           0        1.412604    2.500119    1.233395
     17         17           0       -3.329590   -0.121643    0.215479
 ---------------------------------------------------------------------

 SCF Done:  E(RHF) =  -1259.79300215     A.U. after    2 cycles

 The electronic state is 1-A.
 Alpha  occ. eigenvalues -- -105.48024-105.29195 -15.43251 -15.41611 -11.26919
 Alpha  occ. eigenvalues --  -11.19984 -11.18988 -11.18635 -11.14747 -11.14022
 Alpha  occ. eigenvalues --  -10.52881 -10.33788  -7.69819  -7.69450  -7.69441
 Alpha  occ. eigenvalues --   -7.50557  -7.50529  -7.50520  -1.14109  -1.12106
 Alpha  occ. eigenvalues --   -1.07656  -0.96647  -0.91015  -0.84065  -0.76550
 Alpha  occ. eigenvalues --   -0.74556  -0.64830  -0.60337  -0.55202  -0.52377
 Alpha  occ. eigenvalues --   -0.51546  -0.50989  -0.47825  -0.46912  -0.45321
 Alpha  occ. eigenvalues --   -0.44435  -0.43531  -0.40536  -0.40087  -0.38232
 Alpha  occ. eigenvalues --   -0.37765  -0.37017  -0.36624  -0.21763  -0.21563
 Alpha  occ. eigenvalues --   -0.21497
 Alpha virt. eigenvalues --    0.11730   0.12259   0.13610   0.14295   0.16101
 Alpha virt. eigenvalues --    0.16854   0.17398   0.17885   0.18668   0.19320
 Alpha virt. eigenvalues --    0.21197   0.21611   0.22679   0.23571   0.23908

 Mulliken charges:
               1
     1  C   -0.925548
     2  C    0.431918
     3  Cl  -0.007145
     4  H    0.294864
     5  C   -1.627713
     6  N    1.075236
     7  C    0.430200
     8  H    0.318223
     9  H    0.154157
    10  H    0.214585
    11  C    0.075600
    12  H    0.117814
    13  H    0.255943
    14  H    0.280480
    15  C   -2.261164
    16  N    1.140044
    17  Cl  -0.967495
 Sum of Mulliken charges =  -1.00000

 Dipole moment (field-independent basis, Debye):
    X=              7.0211    Y=             -1.3009    Z=             -6.5648  Tot=              9.6997

 Test job not archived.
 1\1\GINC-SE024\SP\RHF\Aug-CC-pVDZ\C6H7Cl2N2(1-)\OHZDE\09-Apr-2025\0\\#
 t hf aug-cc-pvdz iop(5/13=1,5/36=2,99/5=2) pseudo=read geom=check gues
 s=(read,tcheck) scf=(maxcycle=1)\\title\\-1,1\C,0,0.06234,0.026364,0.0
 31611\C,0,-0.587249,0.250887,-1.349351\Cl,0,1.858571,-0.186634,-0.1520
 46\H,0,-1.660511,0.413038,-1.148351\C,0,-0.116954,1.223758,0.857497\N,
 0,-0.262384,2.168673,1.540795\C,0,-0.50987,-1.192715,0.740793\H,0,-1.6
 02161,-1.130267,0.719443\H,0,-0.137582,-1.236131,1.765768\H,0,-0.20268
 6,-2.097598,0.215969\C,0,-0.50782,-0.967492,-2.269526\H,0,-0.903431,-0

 Normal termination of Gaussian 16 at Wed Apr  9 02:51:22 2025.
