 Gaussian 16, Revision C.01,

 ----------------------------------------------------------------------
 #t hf aug-cc-pvdz symm=none int=(grid=ultrafine) guess=(read,tcheck) s
 table=(opt,rrhf)
 ----------------------------------------------------------------------
 -----
 title
 -----
 Symbolic Z-matrix:
 Charge = -1 Multiplicity = 1

 SCF Done:  E(RHF) =  -974.329452385     A.U. after   15 cycles
 Normal termination of Gaussian 16 at Wed Apr  9 03:00:07 2025.
 Gaussian 16:  ES64L-G16RevC.01  3-Jul-2019

 ----------------------------------------------------------------------
 #t hf aug-cc-pvdz iop(5/13=1,5/36=2,99/5=2) pseudo=read geom=check gue
 ss=(read,tcheck) scf=(maxcycle=1)
 ----------------------------------------------------------------------
 -----
 title
 -----
 Structure from the checkpoint file:  "E2SN2_401_mol2.chk"
 Charge = -1 Multiplicity = 1

                         Standard orientation:
 ---------------------------------------------------------------------
 Center     Atomic      Atomic             Coordinates (Angstroms)
 Number     Number       Type             X           Y           Z
 ---------------------------------------------------------------------
      1          6           0        0.116590    1.046970   -0.021934
      2          6           0        0.331038   -0.476735   -0.228424
      3          9           0        1.269021    1.673787   -0.527447
      4          1           0       -0.421487   -0.992119    0.371101
      5          7           0       -0.995211    1.563391   -0.761456
      6          1           0       -1.834098    1.055115   -0.465240
      7          1           0       -0.858790    1.364538   -1.746094
      8          6           0       -0.036969    1.419952    1.434148
      9          1           0       -0.136752    2.504718    1.488596
     10          1           0        0.820250    1.093588    2.021516
     11          1           0       -0.943391    0.951272    1.822800
     12          7           0        1.663530   -0.857444    0.337884
     13          8           0        1.721088   -1.093075    1.547350
     14          8           0        2.632942   -0.895187   -0.420559
     15          6           0        0.240842   -0.911909   -1.675399
     16          1           0       -0.808984   -0.891877   -1.967028
     17          1           0        0.598430   -1.937342   -1.784044
     18          1           0        0.840926   -0.269954   -2.321987
     19         17           0       -3.064516   -0.791014    0.248690
 ---------------------------------------------------------------------

 SCF Done:  E(RHF) =  -974.922682559     A.U. after    2 cycles

 The electronic state is 1-A.
 Alpha  occ. eigenvalues -- -105.29254 -26.33401 -20.47856 -20.47692 -15.66936
 Alpha  occ. eigenvalues --  -15.36829 -11.24714 -11.18424 -11.13010 -11.11202
 Alpha  occ. eigenvalues --  -10.33853  -7.50620  -7.50592  -7.50582  -1.54652
 Alpha  occ. eigenvalues --   -1.46051  -1.38446  -1.09365  -1.02015  -0.89680
 Alpha  occ. eigenvalues --   -0.86319  -0.75976  -0.74762  -0.71124  -0.65208
 Alpha  occ. eigenvalues --   -0.64728  -0.62875  -0.59440  -0.57312  -0.55454
 Alpha  occ. eigenvalues --   -0.50465  -0.48690  -0.47010  -0.46221  -0.44202
 Alpha  occ. eigenvalues --   -0.42890  -0.41302  -0.40012  -0.38152  -0.36608
 Alpha  occ. eigenvalues --   -0.33494  -0.32645  -0.22038  -0.21683  -0.21600
 Alpha virt. eigenvalues --    0.12636   0.12956   0.13475   0.14781   0.15596
 Alpha virt. eigenvalues --    0.16054   0.16351   0.17508   0.18333   0.19383
 Alpha virt. eigenvalues --    0.20389   0.21884   0.23299   0.24426   0.24988

 Mulliken charges:
               1
     1  C   -0.456416
     2  C   -1.131399
     3  F   -1.118339
     4  H    0.215888
     5  N    0.623189
     6  H    0.206775
     7  H    0.348292
     8  C   -0.059916
     9  H    0.186779
    10  H    0.208066
    11  H    0.227323
    12  N    3.147983
    13  O   -1.549114
    14  O   -1.510207
    15  C   -0.062333
    16  H    0.332075
    17  H    0.121699
    18  H    0.245847
    19  Cl  -0.976192
 Sum of Mulliken charges =  -1.00000

 Dipole moment (field-independent basis, Debye):
    X=              6.7272    Y=              1.7492    Z=             -2.0078  Tot=              7.2351

 Test job not archived.
 1\1\GINC-SE097\SP\RHF\Aug-CC-pVDZ\C4H9Cl1F1N2O2(1-)\OHZDE\09-Apr-2025\
 0\\#t hf aug-cc-pvdz iop(5/13=1,5/36=2,99/5=2) pseudo=read geom=check
 guess=(read,tcheck) scf=(maxcycle=1)\\title\\-1,1\C,0,-0.012222,-0.028
 863,0.016488\C,0,-0.469755,-0.142151,-1.462746\F,0,1.385178,0.121267,-
 0.019206\H,0,-1.499273,-0.504605,-1.454647\N,0,-0.537064,1.125958,0.68
 0276\H,0,-1.559611,1.075117,0.639855\H,0,-0.259819,1.956185,0.168883\C
 ,0,-0.345204,-1.261953,0.823633\H,0,0.049272,-1.114715,1.829788\H,0,0.
 08774,-2.157471,0.379849\H,0,-1.430949,-1.368145,0.870479\N,0,0.349324

 Normal termination of Gaussian 16 at Wed Apr  9 03:00:18 2025.
