 Gaussian 16, Revision C.01,

 ----------------------------------------------------------------------
 #t hf aug-cc-pvdz symm=none int=(grid=ultrafine) guess=(read,tcheck) s
 table=(opt,rrhf)
 ----------------------------------------------------------------------
 -----
 title
 -----
 Symbolic Z-matrix:
 Charge = -1 Multiplicity = 1

 SCF Done:  E(RHF) =  -1000.68383677     A.U. after   17 cycles
 Normal termination of Gaussian 16 at Wed Apr  9 02:47:29 2025.
 Gaussian 16:  ES64L-G16RevC.01  3-Jul-2019

 ----------------------------------------------------------------------
 #t hf aug-cc-pvdz iop(5/13=1,5/36=2,99/5=2) pseudo=read geom=check gue
 ss=(read,tcheck) scf=(maxcycle=1)
 ----------------------------------------------------------------------
 -----
 title
 -----
 Structure from the checkpoint file:  "E2SN2_24_mol2.chk"
 Charge = -1 Multiplicity = 1

                         Standard orientation:
 ---------------------------------------------------------------------
 Center     Atomic      Atomic             Coordinates (Angstroms)
 Number     Number       Type             X           Y           Z
 ---------------------------------------------------------------------
      1          6           0       -0.040542   -0.193691    0.012135
      2          6           0       -1.033616   -0.746436   -0.991972
      3         17           0       -0.324123   -0.763192    1.631062
      4          1           0       -1.084996   -1.833307   -0.877313
      5          1           0       -0.636173   -0.512987   -1.984722
      6          7           0        1.413051   -0.518442   -0.327229
      7          8           0        2.273181    0.210728    0.156162
      8          8           0        1.608817   -1.503443   -1.028410
      9          7           0       -0.083255    1.332495   -0.052022
     10          8           0        0.202904    1.773916   -1.161533
     11          8           0       -0.384877    1.981358    0.933391
     12          7           0       -2.324011   -0.173536   -0.691900
     13          1           0       -2.945995   -1.037279   -0.576026
     14          1           0       -2.659957    0.326081   -1.506986
     15          1           0       -3.358537   -2.511561   -0.602814
 ---------------------------------------------------------------------

 SCF Done:  E(RHF) =  -1001.28566704     A.U. after    2 cycles

 The electronic state is 1-A.
 Alpha  occ. eigenvalues -- -105.49975 -20.52385 -20.51909 -20.51733 -20.50680
 Alpha  occ. eigenvalues --  -15.71862 -15.71079 -15.34476 -11.33380 -11.16551
 Alpha  occ. eigenvalues --  -10.54852  -7.71830  -7.71368  -7.71351  -1.59702
 Alpha  occ. eigenvalues --   -1.58314  -1.43464  -1.42781  -1.14470  -1.04698
 Alpha  occ. eigenvalues --   -0.96974  -0.92342  -0.83714  -0.75426  -0.73573
 Alpha  occ. eigenvalues --   -0.68111  -0.67325  -0.66382  -0.64164  -0.60887
 Alpha  occ. eigenvalues --   -0.56624  -0.52107  -0.50157  -0.45106  -0.43218
 Alpha  occ. eigenvalues --   -0.41798  -0.41296  -0.40314  -0.38725  -0.37686
 Alpha  occ. eigenvalues --   -0.37181  -0.36176  -0.31909  -0.10437
 Alpha virt. eigenvalues --    0.12477   0.13775   0.14127   0.15493   0.16780
 Alpha virt. eigenvalues --    0.17884   0.19519   0.20018   0.21299   0.21920
 Alpha virt. eigenvalues --    0.22586   0.24047   0.24841   0.25570   0.26416

 Mulliken charges:
               1
     1  C   -1.383565
     2  C   -0.736302
     3  Cl   0.165735
     4  H    0.178054
     5  H    0.214412
     6  N    3.198529
     7  O   -1.568384
     8  O   -1.458228
     9  N    3.336738
    10  O   -1.596708
    11  O   -1.441345
    12  N    0.477232
    13  H    0.123814
    14  H    0.261869
    15  H   -0.771851
 Sum of Mulliken charges =  -1.00000

 Dipole moment (field-independent basis, Debye):
    X=              9.6135    Y=              6.4410    Z=              1.3204  Tot=             11.6469

 Test job not archived.
 1\1\GINC-SE106\SP\RHF\Aug-CC-pVDZ\C2H5Cl1N3O4(1-)\OHZDE\09-Apr-2025\0\
 \#t hf aug-cc-pvdz iop(5/13=1,5/36=2,99/5=2) pseudo=read geom=check gu
 ess=(read,tcheck) scf=(maxcycle=1)\\title\\-1,1\C,0,-0.52794,-0.061179
 ,-1.496999\C,0,0.060122,-0.156385,-0.102341\Cl,0,0.320806,1.06443,-2.5
 15974\H,0,1.139473,-0.316015,-0.183555\H,0,-0.393735,-1.034162,0.36833
 1\N,0,-0.559444,-1.39725,-2.236921\O,0,-1.368395,-1.506742,-3.152776\O
 ,0,0.250168,-2.24434,-1.880307\N,0,-2.005863,0.30828,-1.376876\O,0,-2.
 655682,-0.515503,-0.739011\O,0,-2.426507,1.33375,-1.881362\N,0,-0.1875

 Normal termination of Gaussian 16 at Wed Apr  9 02:47:37 2025.
