 Gaussian 16, Revision C.01,

 ----------------------------------------------------------------------
 #t hf aug-cc-pvdz symm=none int=(grid=ultrafine) guess=(read,tcheck) s
 table=(opt,rrhf)
 ----------------------------------------------------------------------
 -----
 title
 -----
 Symbolic Z-matrix:
 Charge = -1 Multiplicity = 1

 SCF Done:  E(RHF) =  -825.757150940     A.U. after   15 cycles
 Normal termination of Gaussian 16 at Wed Apr  9 02:34:20 2025.
 Gaussian 16:  ES64L-G16RevC.01  3-Jul-2019

 ----------------------------------------------------------------------
 #t hf aug-cc-pvdz iop(5/13=1,5/36=2,99/5=2) pseudo=read geom=check gue
 ss=(read,tcheck) scf=(maxcycle=1)
 ----------------------------------------------------------------------
 -----
 title
 -----
 Structure from the checkpoint file:  "E2SN2_111_mol1.chk"
 Charge = -1 Multiplicity = 1

                         Standard orientation:
 ---------------------------------------------------------------------
 Center     Atomic      Atomic             Coordinates (Angstroms)
 Number     Number       Type             X           Y           Z
 ---------------------------------------------------------------------
      1          6           0       -0.203976   -0.481451    0.100941
      2          6           0        0.644932    0.674042    0.054942
      3         17           0       -2.209976    0.135333   -0.186430
      4          9           0        2.823212   -0.647305   -0.001171
      5          1           0        1.849795   -0.023303    0.132088
      6          6           0       -0.036515   -1.446481   -1.049826
      7          1           0       -0.226007   -0.962467   -2.007490
      8          1           0        1.003238   -1.786606   -1.021736
      9          1           0       -0.717384   -2.293523   -0.949314
     10          6           0       -0.281826   -1.169856    1.442227
     11          1           0       -0.991056   -2.000009    1.415539
     12          1           0        0.722406   -1.550688    1.659358
     13          1           0       -0.560935   -0.464650    2.220598
     14          7           0        0.456164    1.561601    1.187363
     15          1           0       -0.409559    2.080499    1.028634
     16          1           0        1.207477    2.241079    1.150338
     17          7           0        0.736445    1.374898   -1.221662
     18          1           0        1.378367    0.878785   -1.828344
     19          1           0       -0.179611    1.392945   -1.669430
 ---------------------------------------------------------------------

 SCF Done:  E(RHF) =  -826.219477806     A.U. after    2 cycles

 The electronic state is 1-A.
 Alpha  occ. eigenvalues -- -105.35496 -26.16872 -15.33262 -15.32960 -11.16666
 Alpha  occ. eigenvalues --  -11.09598 -11.09260 -11.08214 -10.40270  -7.57118
 Alpha  occ. eigenvalues --   -7.56930  -7.56923  -1.25473  -1.06795  -0.97655
 Alpha  occ. eigenvalues --   -0.95077  -0.81457  -0.81256  -0.74398  -0.59358
 Alpha  occ. eigenvalues --   -0.55956  -0.52594  -0.50503  -0.49834  -0.47453
 Alpha  occ. eigenvalues --   -0.43823  -0.42785  -0.41962  -0.39336  -0.37325
 Alpha  occ. eigenvalues --   -0.33626  -0.33547  -0.32096  -0.30295  -0.28808
 Alpha  occ. eigenvalues --   -0.27205  -0.26941  -0.17149
 Alpha virt. eigenvalues --    0.13230   0.13639   0.13897   0.15131   0.15811
 Alpha virt. eigenvalues --    0.16143   0.16452   0.16797   0.17876   0.18841
 Alpha virt. eigenvalues --    0.19479   0.22245   0.24071   0.24462   0.25695

 Mulliken charges:
               1
     1  C   -0.812986
     2  C   -3.095640
     3  Cl  -0.558333
     4  F   -1.116313
     5  H    1.139543
     6  C   -0.038117
     7  H    0.135715
     8  H    0.266079
     9  H    0.154328
    10  C   -0.057037
    11  H    0.193373
    12  H    0.276030
    13  H    0.230400
    14  N    0.673803
    15  H    0.233140
    16  H    0.178893
    17  N    0.697797
    18  H    0.259140
    19  H    0.240186
 Sum of Mulliken charges =  -1.00000

 Dipole moment (field-independent basis, Debye):
    X=             -2.3310    Y=             -0.9340    Z=             -0.7062  Tot=              2.6085

 Test job not archived.
 1\1\GINC-SE412\SP\RHF\Aug-CC-pVDZ\C4H11Cl1F1N2(1-)\OHZDE\09-Apr-2025\0
 \\#t hf aug-cc-pvdz iop(5/13=1,5/36=2,99/5=2) pseudo=read geom=check g
 uess=(read,tcheck) scf=(maxcycle=1)\\title\\-1,1\C,0,-0.25731699,0.083
 74068,-0.3130914\C,0,-0.19916551,0.11895669,1.11984352\Cl,0,1.71768119
 ,0.14361187,-1.07652958\F,0,-2.66866392,-0.41019742,1.4598255\H,0,-1.5
 6569461,-0.06241033,1.32874621\C,0,-0.74998959,-1.21729202,-0.90315722
 \H,0,-0.12409488,-2.05582871,-0.59916674\H,0,-1.76266704,-1.36999117,-
 0.51750372\H,0,-0.76048039,-1.17055045,-1.99351065\C,0,-0.87609341,1.2

 Normal termination of Gaussian 16 at Wed Apr  9 02:34:29 2025.
