 Gaussian 16, Revision C.01,

 ----------------------------------------------------------------------
 #t hf aug-cc-pvdz symm=none int=(grid=ultrafine) guess=(read,tcheck) s
 table=(opt,rrhf)
 ----------------------------------------------------------------------
 -----
 title
 -----
 Symbolic Z-matrix:
 Charge = -1 Multiplicity = 1

 SCF Done:  E(RHF) =  -987.917961310     A.U. after   17 cycles
 Normal termination of Gaussian 16 at Wed Apr  9 02:40:21 2025.
 Gaussian 16:  ES64L-G16RevC.01  3-Jul-2019

 ----------------------------------------------------------------------
 #t hf aug-cc-pvdz iop(5/13=1,5/36=2,99/5=2) pseudo=read geom=check gue
 ss=(read,tcheck) scf=(maxcycle=1)
 ----------------------------------------------------------------------
 -----
 title
 -----
 Structure from the checkpoint file:  "E2SN2_180_mol2.chk"
 Charge = -1 Multiplicity = 1

                         Standard orientation:
 ---------------------------------------------------------------------
 Center     Atomic      Atomic             Coordinates (Angstroms)
 Number     Number       Type             X           Y           Z
 ---------------------------------------------------------------------
      1          6           0       -0.696214    0.178123    0.190967
      2          6           0        0.355456   -0.354648   -0.795480
      3         17           0       -2.303478    0.122548   -0.611270
      4          1           0        0.293308    0.157184   -1.761055
      5          1           0       -0.717606   -0.599905    1.032711
      6          6           0       -0.460379    1.534619    0.646333
      7          7           0       -0.306138    2.618654    1.075679
      8          7           0        0.246163   -1.747272   -0.869277
      9          1           0        1.029693   -2.167763   -1.347375
     10          1           0        0.079933   -2.120503    0.095862
     11          7           0        1.738124    0.152731   -0.280676
     12          8           0        2.119817    1.238840   -0.722351
     13          8           0        2.365880   -0.557136    0.498120
     14          9           0       -0.483557   -2.013701    1.603810
 ---------------------------------------------------------------------

 SCF Done:  E(RHF) =  -988.501869420     A.U. after    2 cycles

 The electronic state is 1-A.
 Alpha  occ. eigenvalues -- -105.45626 -26.13146 -20.47498 -20.47109 -15.65556
 Alpha  occ. eigenvalues --  -15.40824 -15.36439 -11.23161 -11.21023 -11.17992
 Alpha  occ. eigenvalues --  -10.50427  -7.67379  -7.66991  -7.66974  -1.53875
 Alpha  occ. eigenvalues --   -1.38013  -1.20454  -1.12210  -1.10380  -1.00566
 Alpha  occ. eigenvalues --   -0.93279  -0.83642  -0.74526  -0.67450  -0.64899
 Alpha  occ. eigenvalues --   -0.62480  -0.60415  -0.55051  -0.54176  -0.49304
 Alpha  occ. eigenvalues --   -0.47989  -0.46728  -0.40500  -0.38823  -0.37799
 Alpha  occ. eigenvalues --   -0.36715  -0.35388  -0.34338  -0.32939  -0.32684
 Alpha  occ. eigenvalues --   -0.29549  -0.29141  -0.26851
 Alpha virt. eigenvalues --    0.12996   0.14017   0.16323   0.17523   0.18123
 Alpha virt. eigenvalues --    0.18427   0.19006   0.21414   0.22299   0.23409
 Alpha virt. eigenvalues --    0.24291   0.24786   0.25382   0.25875   0.26072

 Mulliken charges:
               1
     1  C    0.205949
     2  C   -1.361503
     3  Cl   0.000018
     4  H    0.075928
     5  H    0.510361
     6  C   -1.429751
     7  N    0.844959
     8  N    0.600124
     9  H    0.242965
    10  H    0.418579
    11  N    2.803239
    12  O   -1.459719
    13  O   -1.374905
    14  F   -1.076244
 Sum of Mulliken charges =  -1.00000

 Dipole moment (field-independent basis, Debye):
    X=              0.2491    Y=              0.5177    Z=             -5.8817  Tot=              5.9097

 Test job not archived.
 1\1\GINC-SE423\SP\RHF\Aug-CC-pVDZ\C3H4Cl1F1N3O2(1-)\OHZDE\09-Apr-2025\
 0\\#t hf aug-cc-pvdz iop(5/13=1,5/36=2,99/5=2) pseudo=read geom=check
 guess=(read,tcheck) scf=(maxcycle=1)\\title\\-1,1\C,0,-0.256237,-0.113
 278,0.024751\C,0,-0.384052,0.107445,-1.491124\Cl,0,1.164543,0.81643,0.
 613816\H,0,0.559683,-0.0985,-2.006022\H,0,-1.188014,0.388536,0.465539\
 C,0,-0.089618,-1.499042,0.418391\N,0,0.016438,-2.60589,0.801666\N,0,-0
 .904257,1.385128,-1.722873\H,0,-1.190331,1.513494,-2.682557\H,0,-1.659
 277,1.570492,-1.020013\N,0,-1.27474,-1.054166,-2.031088\O,0,-0.681773,

 Normal termination of Gaussian 16 at Wed Apr  9 02:40:29 2025.
