 Gaussian 16, Revision C.01,

 ----------------------------------------------------------------------
 #t hf aug-cc-pvdz symm=none int=(grid=ultrafine) guess=(read,tcheck) s
 table=(opt,rrhf)
 ----------------------------------------------------------------------
 -----
 title
 -----
 Symbolic Z-matrix:
 Charge = -1 Multiplicity = 1

 SCF Done:  E(RHF) =  -888.923960629     A.U. after   17 cycles
 Normal termination of Gaussian 16 at Wed Apr  9 02:55:16 2025.
 Gaussian 16:  ES64L-G16RevC.01  3-Jul-2019

 ----------------------------------------------------------------------
 #t hf aug-cc-pvdz iop(5/13=1,5/36=2,99/5=2) pseudo=read geom=check gue
 ss=(read,tcheck) scf=(maxcycle=1)
 ----------------------------------------------------------------------
 -----
 title
 -----
 Structure from the checkpoint file:  "E2SN2_34_mol2.chk"
 Charge = -1 Multiplicity = 1

                         Standard orientation:
 ---------------------------------------------------------------------
 Center     Atomic      Atomic             Coordinates (Angstroms)
 Number     Number       Type             X           Y           Z
 ---------------------------------------------------------------------
      1          6           0       -0.044613    0.222262   -0.167096
      2          6           0        1.131215   -0.069919   -1.076532
      3         17           0       -1.525997    0.663735   -1.093232
      4          1           0        1.411893    0.853500   -1.616635
      5          1           0        0.792903   -0.810216   -1.809738
      6          7           0       -0.410040   -1.055406    0.599415
      7          8           0       -0.633394   -0.959516    1.800053
      8          8           0       -0.478666   -2.078798   -0.067667
      9          6           0        0.228178    1.277628    0.800025
     10          7           0        0.391893    2.184377    1.528612
     11          7           0        2.224965   -0.455236   -0.225270
     12          1           0        3.053118    0.117629   -0.623814
     13          1           0        2.433385   -1.438473   -0.360310
     14          1           0        3.810724    1.004599   -1.521328
 ---------------------------------------------------------------------

 SCF Done:  E(RHF) =  -889.420502905     A.U. after    2 cycles

 The electronic state is 1-A.
 Alpha  occ. eigenvalues -- -105.50587 -20.51493 -20.51054 -15.71014 -15.43688
 Alpha  occ. eigenvalues --  -15.34249 -11.31507 -11.20470 -11.16593 -10.55388
 Alpha  occ. eigenvalues --   -7.72342  -7.71931  -7.71920  -1.58627  -1.42696
 Alpha  occ. eigenvalues --   -1.14818  -1.10753  -1.04031  -0.95224  -0.85339
 Alpha  occ. eigenvalues --   -0.78507  -0.72949  -0.66411  -0.66356  -0.58619
 Alpha  occ. eigenvalues --   -0.55281  -0.55119  -0.51721  -0.48696  -0.44262
 Alpha  occ. eigenvalues --   -0.42816  -0.41541  -0.40650  -0.39234  -0.38684
 Alpha  occ. eigenvalues --   -0.38585  -0.36536  -0.31657  -0.10632
 Alpha virt. eigenvalues --    0.13211   0.13574   0.14858   0.15596   0.16915
 Alpha virt. eigenvalues --    0.17764   0.19897   0.20630   0.21195   0.22001
 Alpha virt. eigenvalues --    0.22080   0.22813   0.24086   0.24756   0.25148

 Mulliken charges:
               1
     1  C   -0.648576
     2  C   -0.371480
     3  Cl   0.026328
     4  H    0.159672
     5  H    0.143677
     6  N    3.063259
     7  O   -1.401985
     8  O   -1.584738
     9  C   -1.432555
    10  N    1.053626
    11  N    0.384898
    12  H    0.087819
    13  H    0.254674
    14  H   -0.734621
 Sum of Mulliken charges =  -1.00000

 Dipole moment (field-independent basis, Debye):
    X=            -12.5097    Y=             -4.7731    Z=              0.8235  Tot=             13.4147

 Test job not archived.
 1\1\GINC-SE132\SP\RHF\Aug-CC-pVDZ\C3H5Cl1N3O2(1-)\OHZDE\09-Apr-2025\0\
 \#t hf aug-cc-pvdz iop(5/13=1,5/36=2,99/5=2) pseudo=read geom=check gu
 ess=(read,tcheck) scf=(maxcycle=1)\\title\\-1,1\C,0,-0.631538,-0.08193
 6,-1.501767\C,0,0.05221,-0.158098,-0.152063\Cl,0,-0.512852,-1.632886,-
 2.411489\H,0,1.138185,-0.304372,-0.301919\H,0,-0.348062,-1.039638,0.36
 0534\N,0,-2.132772,0.14925,-1.286452\O,0,-2.688675,0.990822,-1.981681\
 O,0,-2.668014,-0.558441,-0.443998\C,0,-0.116624,0.989508,-2.344623\N,0
 ,0.340827,1.786825,-3.075964\N,0,-0.156548,1.113128,0.488102\H,0,0.827

 Normal termination of Gaussian 16 at Wed Apr  9 02:55:23 2025.
