 Gaussian 16, Revision C.01,

 ----------------------------------------------------------------------
 #t hf aug-cc-pvdz symm=none int=(grid=ultrafine) guess=(read,tcheck) s
 table=(opt,rrhf)
 ----------------------------------------------------------------------
 -----
 title
 -----
 Symbolic Z-matrix:
 Charge = -1 Multiplicity = 1

 SCF Done:  E(RHF) =  -534.387435871     A.U. after   15 cycles
 Normal termination of Gaussian 16 at Wed Apr  9 02:53:21 2025.
 Gaussian 16:  ES64L-G16RevC.01  3-Jul-2019

 ----------------------------------------------------------------------
 #t hf aug-cc-pvdz iop(5/13=1,5/36=2,99/5=2) pseudo=read geom=check gue
 ss=(read,tcheck) scf=(maxcycle=1)
 ----------------------------------------------------------------------
 -----
 title
 -----
 Structure from the checkpoint file:  "E2SN2_322_mol1.chk"
 Charge = -1 Multiplicity = 1

                         Standard orientation:
 ---------------------------------------------------------------------
 Center     Atomic      Atomic             Coordinates (Angstroms)
 Number     Number       Type             X           Y           Z
 ---------------------------------------------------------------------
      1          6           0        0.255261    0.296289    0.128824
      2          1           0       -0.951229    0.424970   -1.613871
      3          9           0       -0.257119   -0.618049    1.557754
      4          9           0        0.978228    1.194510   -1.342074
      5          6           0       -1.024549   -0.065924   -0.646951
      6          6           0        1.450284   -0.537020    0.023154
      7          7           0        2.433526   -1.181156    0.026225
      8          7           0        0.289069    1.532125    0.862490
      9          1           0        0.996396    2.094827    0.411167
     10          1           0        0.539121    1.307306    1.815371
     11          7           0       -2.227170    0.428637    0.022706
     12          1           0       -2.122743    1.437437    0.088681
     13          1           0       -2.134719    0.096407    0.979363
     14          7           0       -1.058518   -1.503623   -0.842933
     15          1           0       -1.975593   -1.726911   -1.213254
     16          1           0       -0.985541   -1.914135    0.081850
 ---------------------------------------------------------------------

 SCF Done:  E(RHF) =  -534.915279972     A.U. after    2 cycles

 The electronic state is 1-A.
 Alpha  occ. eigenvalues --  -26.20588 -26.16040 -15.36493 -15.35969 -15.34679
 Alpha  occ. eigenvalues --  -15.34484 -11.26392 -11.15255 -11.14354  -1.29753
 Alpha  occ. eigenvalues --   -1.24581  -1.09398  -1.06674  -1.05281  -0.99523
 Alpha  occ. eigenvalues --   -0.84038  -0.72369  -0.61178  -0.58847  -0.58194
 Alpha  occ. eigenvalues --   -0.55287  -0.51313  -0.47604  -0.45925  -0.44602
 Alpha  occ. eigenvalues --   -0.41090  -0.37561  -0.36835  -0.35703  -0.33961
 Alpha  occ. eigenvalues --   -0.33735  -0.33419  -0.31713  -0.30311  -0.30098
 Alpha  occ. eigenvalues --   -0.28788
 Alpha virt. eigenvalues --    0.13354   0.13817   0.14998   0.15573   0.16061
 Alpha virt. eigenvalues --    0.17157   0.17615   0.19569   0.22487   0.23935
 Alpha virt. eigenvalues --    0.24385   0.25330   0.25856   0.26523   0.27378

 Mulliken charges:
               1
     1  C    1.129722
     2  H    0.066609
     3  F   -0.924939
     4  F   -0.905971
     5  C   -2.439888
     6  C   -2.643669
     7  N    1.134015
     8  N    0.402561
     9  H    0.397025
    10  H    0.377225
    11  N    0.616021
    12  H    0.293436
    13  H    0.314476
    14  N    0.718458
    15  H    0.173073
    16  H    0.291848
 Sum of Mulliken charges =  -1.00000

 Dipole moment (field-independent basis, Debye):
    X=             -4.0673    Y=              1.7785    Z=              2.0191  Tot=              4.8767

 Test job not archived.
 1\1\GINC-SE398\SP\RHF\Aug-CC-pVDZ\C3H7F2N4(1-)\OHZDE\09-Apr-2025\0\\#t
  hf aug-cc-pvdz iop(5/13=1,5/36=2,99/5=2) pseudo=read geom=check guess
 =(read,tcheck) scf=(maxcycle=1)\\title\\-1,1\C,0,0.70768359,0.07780515
 ,0.03265922\H,0,1.76201787,1.91361514,-0.13270458\F,0,-1.05919265,0.01
 983853,0.15584661\F,0,2.55809266,-0.02265711,-0.21007061\C,0,0.7194498
 4,1.61460272,-0.06249925\C,0,0.65115931,-0.74197917,-1.17498669\N,0,0.
 56005545,-1.46685307,-2.09582485\N,0,0.87371002,-0.53333885,1.32325425
 \H,0,1.74804537,-1.03698362,1.27307479\H,0,0.08937604,-1.15496025,1.46

 Normal termination of Gaussian 16 at Wed Apr  9 02:53:27 2025.
