 Gaussian 16, Revision C.01,

 ----------------------------------------------------------------------
 #t hf aug-cc-pvdz symm=none int=(grid=ultrafine) guess=(read,tcheck) s
 table=(opt,rrhf)
 ----------------------------------------------------------------------
 -----
 title
 -----
 Symbolic Z-matrix:
 Charge = -1 Multiplicity = 1

 SCF Done:  E(RHF) =  -823.468229586     A.U. after   15 cycles
 Normal termination of Gaussian 16 at Wed Apr  9 02:58:08 2025.
 Gaussian 16:  ES64L-G16RevC.01  3-Jul-2019

 ----------------------------------------------------------------------
 #t hf aug-cc-pvdz iop(5/13=1,5/36=2,99/5=2) pseudo=read geom=check gue
 ss=(read,tcheck) scf=(maxcycle=1)
 ----------------------------------------------------------------------
 -----
 title
 -----
 Structure from the checkpoint file:  "E2SN2_398_mol1.chk"
 Charge = -1 Multiplicity = 1

                         Standard orientation:
 ---------------------------------------------------------------------
 Center     Atomic      Atomic             Coordinates (Angstroms)
 Number     Number       Type             X           Y           Z
 ---------------------------------------------------------------------
      1          6           0        0.211613   -0.579962    0.194893
      2          1           0       -0.091191    0.465653   -1.618462
      3          9           0        2.461531   -1.309154   -0.187944
      4         17           0       -2.586729    0.226859   -0.151956
      5          6           0        0.677793    0.379286   -0.851158
      6          1           0        1.607320   -0.148408   -1.162654
      7          7           0        0.203731   -0.241269    1.443452
      8          1           0        0.405155    0.709153    1.717059
      9          1           0       -0.207314   -0.854606    2.126565
     10          6           0       -0.174764   -1.949376   -0.224298
     11          1           0       -0.746518   -2.454893    0.554137
     12          1           0       -0.792181   -1.893055   -1.117466
     13          1           0        0.789839   -2.424727   -0.416133
     14          6           0        1.009017    1.686531   -0.312330
     15          7           0        1.298203    2.713811    0.177842
 ---------------------------------------------------------------------

 SCF Done:  E(RHF) =  -823.909040405     A.U. after    2 cycles

 The electronic state is 1-A.
 Alpha  occ. eigenvalues -- -105.29402 -26.12207 -15.46199 -15.41238 -11.26659
 Alpha  occ. eigenvalues --  -11.18660 -11.16434 -11.12760 -10.34013  -7.50778
 Alpha  occ. eigenvalues --   -7.50746  -7.50742  -1.20295  -1.18303  -1.11731
 Alpha  occ. eigenvalues --   -0.97400  -0.89919  -0.76392  -0.74829  -0.69008
 Alpha  occ. eigenvalues --   -0.64328  -0.55390  -0.52945  -0.49826  -0.48805
 Alpha  occ. eigenvalues --   -0.46762  -0.45410  -0.42900  -0.38776  -0.38435
 Alpha  occ. eigenvalues --   -0.28668  -0.28457  -0.27844  -0.22183  -0.21886
 Alpha  occ. eigenvalues --   -0.21813
 Alpha virt. eigenvalues --    0.12062   0.13399   0.14560   0.15548   0.16249
 Alpha virt. eigenvalues --    0.16308   0.17691   0.19285   0.21644   0.22010
 Alpha virt. eigenvalues --    0.22423   0.23102   0.23938   0.24511   0.25446

 Mulliken charges:
               1
     1  C   -1.849827
     2  H    0.357903
     3  F   -0.905202
     4  Cl  -0.953344
     5  C    0.132411
     6  H    0.661814
     7  N    1.080704
     8  H    0.217018
     9  H    0.118857
    10  C    0.020710
    11  H    0.094714
    12  H    0.276716
    13  H    0.418452
    14  C   -1.588933
    15  N    0.918007
 Sum of Mulliken charges =  -1.00000

 Dipole moment (field-independent basis, Debye):
    X=              0.9138    Y=             -2.4468    Z=              1.4425  Tot=              2.9837

 Test job not archived.
 1\1\GINC-SE453\SP\RHF\Aug-CC-pVDZ\C4H7Cl1F1N2(1-)\OHZDE\09-Apr-2025\0\
 \#t hf aug-cc-pvdz iop(5/13=1,5/36=2,99/5=2) pseudo=read geom=check gu
 ess=(read,tcheck) scf=(maxcycle=1)\\title\\-1,1\C,0,0.57323344,-0.1303
 4652,0.01170787\H,0,1.14399593,1.83842102,0.53270962\F,0,-1.73368748,-
 0.01049416,0.64744858\Cl,0,3.47808246,0.24558458,-0.13832072\C,0,0.324
 86555,1.34275128,0.01223993\H,0,-0.65335485,1.34936051,0.54379653\N,0,
 0.55555592,-0.80147843,-1.09416111\H,0,0.48531595,-0.32465305,-1.98097
 456\H,0,0.82490121,-1.77061698,-1.09665244\C,0,0.77081958,-0.81384054,

 Normal termination of Gaussian 16 at Wed Apr  9 02:58:14 2025.
