 Gaussian 16, Revision C.01,

 ----------------------------------------------------------------------
 #t hf aug-cc-pvdz symm=none int=(grid=ultrafine) guess=(read,tcheck) s
 table=(opt,rrhf)
 ----------------------------------------------------------------------
 -----
 title
 -----
 Symbolic Z-matrix:
 Charge = -1 Multiplicity = 1

 SCF Done:  E(RHF) =  -627.888041730     A.U. after   16 cycles
 Normal termination of Gaussian 16 at Wed Apr  9 02:37:06 2025.
 Gaussian 16:  ES64L-G16RevC.01  3-Jul-2019

 ----------------------------------------------------------------------
 #t hf aug-cc-pvdz iop(5/13=1,5/36=2,99/5=2) pseudo=read geom=check gue
 ss=(read,tcheck) scf=(maxcycle=1)
 ----------------------------------------------------------------------
 -----
 title
 -----
 Structure from the checkpoint file:  "E2SN2_137_mol2.chk"
 Charge = -1 Multiplicity = 1

                         Standard orientation:
 ---------------------------------------------------------------------
 Center     Atomic      Atomic             Coordinates (Angstroms)
 Number     Number       Type             X           Y           Z
 ---------------------------------------------------------------------
      1          6           0       -0.105051   -0.436025    0.130779
      2          6           0       -0.676191    0.816257   -0.502471
      3          9           0       -0.012112   -0.226128    1.517124
      4          1           0       -1.746625    0.745658   -0.285783
      5          1           0       -0.564162    0.746304   -1.584179
      6          7           0       -0.807492   -1.552967   -0.249251
      7          1           0       -1.864915   -1.282340   -0.253251
      8          1           0       -0.560932   -2.340619    0.336260
      9          7           0        1.382216   -0.637718   -0.239702
     10          8           0        1.865516    0.048042   -1.138017
     11          8           0        1.971717   -1.530850    0.362892
     12          6           0       -0.059125    2.040031   -0.013601
     13          7           0        0.410843    3.046979    0.364677
     14          9           0       -3.078776   -0.498558   -0.276054
 ---------------------------------------------------------------------

 SCF Done:  E(RHF) =  -628.487383237     A.U. after    2 cycles

 The electronic state is 1-A.
 Alpha  occ. eigenvalues --  -26.35081 -26.13557 -20.48605 -20.48141 -15.66936
 Alpha  occ. eigenvalues --  -15.40077 -15.36094 -11.30722 -11.17644 -11.15678
 Alpha  occ. eigenvalues --   -1.55374  -1.47710  -1.39231  -1.20868  -1.11503
 Alpha  occ. eigenvalues --   -1.10339  -0.96238  -0.91109  -0.73684  -0.68971
 Alpha  occ. eigenvalues --   -0.65396  -0.64292  -0.61460  -0.58260  -0.55437
 Alpha  occ. eigenvalues --   -0.53345  -0.51651  -0.50445  -0.48473  -0.45413
 Alpha  occ. eigenvalues --   -0.39371  -0.38053  -0.37422  -0.36960  -0.34885
 Alpha  occ. eigenvalues --   -0.33964  -0.30009  -0.29412  -0.28942
 Alpha virt. eigenvalues --    0.13822   0.14741   0.16375   0.17221   0.18291
 Alpha virt. eigenvalues --    0.19119   0.19965   0.21670   0.22854   0.23498
 Alpha virt. eigenvalues --    0.24666   0.25728   0.26176   0.26888   0.27307

 Mulliken charges:
               1
     1  C   -0.437649
     2  C    0.565105
     3  F   -1.015466
     4  H    0.234314
     5  H    0.292895
     6  N    0.498698
     7  H    0.400127
     8  H    0.311469
     9  N    2.768118
    10  O   -1.342726
    11  O   -1.456480
    12  C   -1.661019
    13  N    0.906796
    14  F   -1.064184
 Sum of Mulliken charges =  -1.00000

 Dipole moment (field-independent basis, Debye):
    X=              3.8820    Y=             -1.8369    Z=             -0.3779  Tot=              4.3113

 Test job not archived.
 1\1\GINC-SE120\SP\RHF\Aug-CC-pVDZ\C3H4F2N3O2(1-)\OHZDE\09-Apr-2025\0\\
 #t hf aug-cc-pvdz iop(5/13=1,5/36=2,99/5=2) pseudo=read geom=check gue
 ss=(read,tcheck) scf=(maxcycle=1)\\title\\-1,1\C,0,-0.027404,0.023328,
 -1.500071\C,0,0.042015,0.069358,0.0127\F,0,-0.019999,1.343218,-1.98223
 5\H,0,1.097632,0.277571,0.212913\H,0,-0.16716,-0.925503,0.405173\N,0,0
 .942231,-0.798255,-2.019894\H,0,1.852341,-0.627845,-1.441917\H,0,1.026
 445,-0.65635,-3.018284\N,0,-1.407618,-0.466296,-1.995227\O,0,-2.183463
 ,-0.965758,-1.183181\O,0,-1.611148,-0.373893,-3.202849\C,0,-0.86825,1.

 Normal termination of Gaussian 16 at Wed Apr  9 02:37:12 2025.
