 Gaussian 16, Revision C.01,

 ----------------------------------------------------------------------
 #t hf aug-cc-pvdz symm=none int=(grid=ultrafine) guess=(read,tcheck) s
 table=(opt,rrhf)
 ----------------------------------------------------------------------
 -----
 title
 -----
 Symbolic Z-matrix:
 Charge = -1 Multiplicity = 1

 SCF Done:  E(RHF) =  -555.069916871     A.U. after   15 cycles
 Normal termination of Gaussian 16 at Wed Apr  9 02:49:34 2025.
 Gaussian 16:  ES64L-G16RevC.01  3-Jul-2019

 ----------------------------------------------------------------------
 #t hf aug-cc-pvdz iop(5/13=1,5/36=2,99/5=2) pseudo=read geom=check gue
 ss=(read,tcheck) scf=(maxcycle=1)
 ----------------------------------------------------------------------
 -----
 title
 -----
 Structure from the checkpoint file:  "E2SN2_273_mol1.chk"
 Charge = -1 Multiplicity = 1

                         Standard orientation:
 ---------------------------------------------------------------------
 Center     Atomic      Atomic             Coordinates (Angstroms)
 Number     Number       Type             X           Y           Z
 ---------------------------------------------------------------------
      1          6           0       -0.285393    0.034280    0.025765
      2          1           0        0.984245   -0.467786    1.626166
      3          9           0        0.130827   -0.239321   -1.662300
      4          9           0       -0.885228    0.471149    1.700155
      5          6           0        1.101610   -0.363614    0.549426
      6          6           0       -1.340001   -0.961592   -0.029326
      7          7           0       -2.195738   -1.763023   -0.099582
      8          6           0       -0.608477    1.413021   -0.299677
      9          7           0       -0.826647    2.529726   -0.592065
     10          6           0        2.108833    0.743769    0.250125
     11          1           0        2.160876    0.909799   -0.827015
     12          1           0        1.827253    1.678190    0.742316
     13          1           0        3.097331    0.446804    0.617222
     14          7           0        1.454753   -1.674484    0.007746
     15          1           0        2.393727   -1.906011    0.311436
     16          1           0        1.440166   -1.588157   -1.001399
 ---------------------------------------------------------------------

 SCF Done:  E(RHF) =  -555.604740173     A.U. after    2 cycles

 The electronic state is 1-A.
 Alpha  occ. eigenvalues --  -26.22340 -26.18893 -15.38382 -15.38331 -15.36582
 Alpha  occ. eigenvalues --  -11.29051 -11.16897 -11.16572 -11.16079 -11.11435
 Alpha  occ. eigenvalues --   -1.31258  -1.27248  -1.09080  -1.08367  -1.07411
 Alpha  occ. eigenvalues --   -0.94041  -0.87014  -0.73905  -0.68972  -0.61015
 Alpha  occ. eigenvalues --   -0.53542  -0.50683  -0.48613  -0.48129  -0.47246
 Alpha  occ. eigenvalues --   -0.46896  -0.43596  -0.42458  -0.40535  -0.38107
 Alpha  occ. eigenvalues --   -0.36650  -0.36283  -0.35946  -0.35059  -0.33732
 Alpha  occ. eigenvalues --   -0.32512  -0.31373  -0.30181
 Alpha virt. eigenvalues --    0.11447   0.13041   0.14094   0.15517   0.16351
 Alpha virt. eigenvalues --    0.16890   0.18157   0.19979   0.21659   0.22773
 Alpha virt. eigenvalues --    0.23118   0.23516   0.24568   0.25032   0.25758

 Mulliken charges:
               1
     1  C    3.208744
     2  H    0.065812
     3  F   -0.865737
     4  F   -0.841882
     5  C   -1.178803
     6  C   -2.572327
     7  N    1.150390
     8  C   -2.771002
     9  N    1.128132
    10  C    0.046914
    11  H    0.333745
    12  H    0.266823
    13  H    0.032587
    14  N    0.586118
    15  H    0.156169
    16  H    0.254317
 Sum of Mulliken charges =  -1.00000

 Dipole moment (field-independent basis, Debye):
    X=              7.2090    Y=             -0.9124    Z=              0.5093  Tot=              7.2843

 Test job not archived.
 1\1\GINC-SE059\SP\RHF\Aug-CC-pVDZ\C5H6F2N3(1-)\OHZDE\09-Apr-2025\0\\#t
  hf aug-cc-pvdz iop(5/13=1,5/36=2,99/5=2) pseudo=read geom=check guess
 =(read,tcheck) scf=(maxcycle=1)\\title\\-1,1\C,0,0.60093498,-0.0095913
 4,-0.03042291\H,0,1.67496989,1.79155982,-0.19666366\F,0,-1.15126915,-0
 .10734534,-0.16415421\F,0,2.41261873,-0.1243453,0.21221253\C,0,0.62990
 088,1.52500639,-0.05252649\C,0,0.77844213,-0.74455356,-1.26950239\N,0,
 0.89893582,-1.35082422,-2.26821725\C,0,0.52557502,-0.75074705,1.217066
 4\N,0,0.42385571,-1.32060573,2.23933577\C,0,0.1424218,2.07457403,1.285

 Normal termination of Gaussian 16 at Wed Apr  9 02:49:42 2025.
