 Gaussian 16, Revision C.01,

 ----------------------------------------------------------------------
 #t hf aug-cc-pvdz symm=none int=(grid=ultrafine) guess=(read,tcheck) s
 table=(opt,rrhf)
 ----------------------------------------------------------------------
 -----
 title
 -----
 Symbolic Z-matrix:
 Charge = -1 Multiplicity = 1

 SCF Done:  E(RHF) =  -572.775586028     A.U. after   16 cycles
 Normal termination of Gaussian 16 at Wed Apr  9 02:38:41 2025.
 Gaussian 16:  ES64L-G16RevC.01  3-Jul-2019

 ----------------------------------------------------------------------
 #t hf aug-cc-pvdz iop(5/13=1,5/36=2,99/5=2) pseudo=read geom=check gue
 ss=(read,tcheck) scf=(maxcycle=1)
 ----------------------------------------------------------------------
 -----
 title
 -----
 Structure from the checkpoint file:  "E2SN2_165_mol1.chk"
 Charge = -1 Multiplicity = 1

                         Standard orientation:
 ---------------------------------------------------------------------
 Center     Atomic      Atomic             Coordinates (Angstroms)
 Number     Number       Type             X           Y           Z
 ---------------------------------------------------------------------
      1          6           0        1.250566   -0.289022    0.521837
      2          1           0        0.541099   -0.012432   -1.469617
      3          9           0        0.071120   -0.135020    1.829176
      4          9           0        2.469676   -0.393351   -0.764274
      5          6           0        0.187042    0.151649   -0.450817
      6          1           0        1.359740   -1.338445    0.714705
      7          1           0        1.866352    0.441307    1.009690
      8          6           0       -0.179049    1.552188   -0.264311
      9          7           0       -0.411273    2.700415   -0.196190
     10          7           0       -1.045692   -0.711983   -0.319296
     11          8           0       -2.145526   -0.172312   -0.274195
     12          8           0       -0.852844   -1.920563   -0.359648
 ---------------------------------------------------------------------

 SCF Done:  E(RHF) =  -573.318243152     A.U. after    2 cycles

 The electronic state is 1-A.
 Alpha  occ. eigenvalues --  -26.18024 -26.17851 -20.47400 -20.47057 -15.67212
 Alpha  occ. eigenvalues --  -15.40697 -11.22538 -11.21316 -11.18006  -1.54722
 Alpha  occ. eigenvalues --   -1.38616  -1.27065  -1.25588  -1.11139  -1.02844
 Alpha  occ. eigenvalues --   -0.84160  -0.76281  -0.68770  -0.64543  -0.62682
 Alpha  occ. eigenvalues --   -0.57889  -0.52229  -0.50237  -0.48847  -0.41382
 Alpha  occ. eigenvalues --   -0.40035  -0.38521  -0.37678  -0.36151  -0.35237
 Alpha  occ. eigenvalues --   -0.34135  -0.33144  -0.32853  -0.32214  -0.28238
 Alpha virt. eigenvalues --    0.14292   0.15404   0.15540   0.18189   0.18898
 Alpha virt. eigenvalues --    0.21754   0.22816   0.23294   0.24265   0.24797
 Alpha virt. eigenvalues --    0.25106   0.26159   0.26443   0.27336   0.28613

 Mulliken charges:
               1
     1  C    0.982985
     2  H    0.215907
     3  F   -0.887451
     4  F   -0.903832
     5  C   -0.001389
     6  H    0.091150
     7  H    0.064348
     8  C   -1.500540
     9  N    0.923753
    10  N    3.012468
    11  O   -1.433205
    12  O   -1.564194
 Sum of Mulliken charges =  -1.00000

 Dipole moment (field-independent basis, Debye):
    X=             -1.1191    Y=             -1.4778    Z=             -1.9403  Tot=              2.6835

 Test job not archived.
 1\1\GINC-SE042\SP\RHF\Aug-CC-pVDZ\C3H3F2N2O2(1-)\OHZDE\09-Apr-2025\0\\
 #t hf aug-cc-pvdz iop(5/13=1,5/36=2,99/5=2) pseudo=read geom=check gue
 ss=(read,tcheck) scf=(maxcycle=1)\\title\\-1,1\C,0,0.57717222,-0.06923
 095,0.02198869\H,0,1.75087114,1.69848944,-0.18616609\F,0,-1.17903985,0
 .11167811,-0.06129548\F,0,2.33430874,-0.27551302,0.16729332\C,0,0.7052
 1939,1.43164433,-0.02604945\H,0,0.58713619,-0.61019336,-0.90411492\H,0
 ,0.46742936,-0.56774589,0.96539232\C,0,0.20502738,2.063033,1.1911085\N
 ,0,-0.09710241,2.57866882,2.20097495\N,0,-0.03054995,1.99087484,-1.221

 Normal termination of Gaussian 16 at Wed Apr  9 02:38:47 2025.
