 Gaussian 16, Revision C.01,

 ----------------------------------------------------------------------
 #t hf aug-cc-pvdz symm=none int=(grid=ultrafine) guess=(read,tcheck) s
 table=(opt,rrhf)
 ----------------------------------------------------------------------
 -----
 title
 -----
 Symbolic Z-matrix:
 Charge = -1 Multiplicity = 1

 SCF Done:  E(RHF) =  -836.217406983     A.U. after   17 cycles
 Normal termination of Gaussian 16 at Wed Apr  9 03:00:25 2025.
 Gaussian 16:  ES64L-G16RevC.01  3-Jul-2019

 ----------------------------------------------------------------------
 #t hf aug-cc-pvdz iop(5/13=1,5/36=2,99/5=2) pseudo=read geom=check gue
 ss=(read,tcheck) scf=(maxcycle=1)
 ----------------------------------------------------------------------
 -----
 title
 -----
 Structure from the checkpoint file:  "E2SN2_42_mol1.chk"
 Charge = -1 Multiplicity = 1

                         Standard orientation:
 ---------------------------------------------------------------------
 Center     Atomic      Atomic             Coordinates (Angstroms)
 Number     Number       Type             X           Y           Z
 ---------------------------------------------------------------------
      1          6           0       -0.132121   -0.132016    0.478839
      2          6           0        0.251923    1.210370    0.874992
      3         17           0       -1.900855   -0.247652   -0.420696
      4          1           0        1.996182    0.430600    2.491798
      5          1           0        1.253427    0.917026    1.612420
      6          1           0       -0.432367    1.538873    1.663835
      7          7           0        0.836699   -0.639889   -0.584166
      8          8           0        1.653927   -1.485152   -0.228031
      9          8           0        0.801653   -0.114828   -1.694905
     10          7           0       -0.177796   -1.085204    1.525425
     11          1           0       -0.965780   -0.839749    2.113445
     12          1           0        0.682765   -0.906694    2.079270
     13          6           0        0.509810    2.290507   -0.151276
     14          1           0       -0.337114    2.423603   -0.833164
     15          1           0        0.694111    3.239027    0.363767
     16          1           0        1.388667    2.069726   -0.760183
 ---------------------------------------------------------------------

 SCF Done:  E(RHF) =  -836.682237439     A.U. after    2 cycles

 The electronic state is 1-A.
 Alpha  occ. eigenvalues -- -105.41429 -20.46503 -20.45861 -15.65415 -15.37376
 Alpha  occ. eigenvalues --  -11.27076 -11.10195 -11.08747 -10.46187  -7.63076
 Alpha  occ. eigenvalues --   -7.62776  -7.62768  -1.53223  -1.37153  -1.12180
 Alpha  occ. eigenvalues --   -0.96170  -0.89248  -0.87602  -0.76400  -0.70024
 Alpha  occ. eigenvalues --   -0.62681  -0.61914  -0.59598  -0.56777  -0.51422
 Alpha  occ. eigenvalues --   -0.47082  -0.44699  -0.41930  -0.39273  -0.36869
 Alpha  occ. eigenvalues --   -0.36545  -0.34239  -0.32956  -0.32374  -0.31705
 Alpha  occ. eigenvalues --   -0.30742  -0.10722
 Alpha virt. eigenvalues --    0.12777   0.13655   0.14333   0.14978   0.17058
 Alpha virt. eigenvalues --    0.17584   0.18638   0.19392   0.20420   0.22118
 Alpha virt. eigenvalues --    0.23425   0.23888   0.24470   0.25571   0.25984

 Mulliken charges:
               1
     1  C   -2.112702
     2  C    0.034421
     3  Cl  -0.225713
     4  H   -0.608329
     5  H    0.220907
     6  H    0.040883
     7  N    3.100426
     8  O   -1.436329
     9  O   -1.543010
    10  N    0.821124
    11  H    0.276510
    12  H    0.320642
    13  C   -0.393578
    14  H    0.182040
    15  H    0.099687
    16  H    0.223022
 Sum of Mulliken charges =  -1.00000

 Dipole moment (field-independent basis, Debye):
    X=             -5.0302    Y=              1.2462    Z=             -3.3744  Tot=              6.1841

 Test job not archived.
 1\1\GINC-SE127\SP\RHF\Aug-CC-pVDZ\C3H8Cl1N2O2(1-)\OHZDE\09-Apr-2025\0\
 \#t hf aug-cc-pvdz iop(5/13=1,5/36=2,99/5=2) pseudo=read geom=check gu
 ess=(read,tcheck) scf=(maxcycle=1)\\title\\-1,1\C,0,-0.18031064,0.0693
 9614,-0.29622701\C,0,-0.16524992,-0.04493975,1.15053782\Cl,0,1.6195470
 4,0.21983729,-1.12618871\H,0,-2.57178838,0.59281056,1.40820446\H,0,-1.
 41125012,0.13073526,1.37298318\H,0,0.20187495,0.90134778,1.56065803\N,
 0,-0.73809484,-1.21677613,-0.89719614\O,0,-1.87848628,-1.16515043,-1.3
 5107465\O,0,-0.05734346,-2.2364966,-0.81113444\N,0,-0.92621895,1.15710

 Normal termination of Gaussian 16 at Wed Apr  9 03:00:32 2025.
