 Gaussian 16, Revision C.01,

 ----------------------------------------------------------------------
 #t hf aug-cc-pvdz symm=none int=(grid=ultrafine) guess=(read,tcheck) s
 table=(opt,rrhf)
 ----------------------------------------------------------------------
 -----
 title
 -----
 Symbolic Z-matrix:
 Charge = -1 Multiplicity = 1

 SCF Done:  E(RHF) =  -852.230981106     A.U. after   16 cycles
 Normal termination of Gaussian 16 at Wed Apr  9 02:57:13 2025.
 Gaussian 16:  ES64L-G16RevC.01  3-Jul-2019

 ----------------------------------------------------------------------
 #t hf aug-cc-pvdz iop(5/13=1,5/36=2,99/5=2) pseudo=read geom=check gue
 ss=(read,tcheck) scf=(maxcycle=1)
 ----------------------------------------------------------------------
 -----
 title
 -----
 Structure from the checkpoint file:  "E2SN2_374_mol1.chk"
 Charge = -1 Multiplicity = 1

                         Standard orientation:
 ---------------------------------------------------------------------
 Center     Atomic      Atomic             Coordinates (Angstroms)
 Number     Number       Type             X           Y           Z
 ---------------------------------------------------------------------
      1          6           0       -1.000525    0.780371   -0.081097
      2          1           0        0.630587    1.430256    1.110834
      3         17           0       -1.220629   -1.175354   -0.823162
      4          1           0       -0.923419    2.784254    0.153873
      5          6           0        0.501500    0.915857    0.156700
      6          1           0       -1.341499    1.202021   -1.010953
      7          7           0       -1.838569    0.676778    1.084404
      8          1           0       -2.599055    0.042965    0.880014
      9          1           0       -2.184669    1.605407    1.273871
     10          7           0        1.104427    1.527477   -0.995740
     11          1           0        2.099952    1.634648   -0.846013
     12          1           0        0.663867    2.444911   -1.021833
     13          7           0        1.213714   -0.402433    0.439003
     14          8           0        2.079656   -0.799355   -0.337800
     15          8           0        0.925603   -0.944841    1.501134
 ---------------------------------------------------------------------

 SCF Done:  E(RHF) =  -852.707396404     A.U. after    2 cycles

 The electronic state is 1-A.
 Alpha  occ. eigenvalues -- -105.36449 -20.45273 -20.44879 -15.64320 -15.36778
 Alpha  occ. eigenvalues --  -15.36240 -11.22514 -11.20426 -10.41271  -7.58127
 Alpha  occ. eigenvalues --   -7.57909  -7.57882  -1.52255  -1.36115  -1.10680
 Alpha  occ. eigenvalues --   -1.06301  -0.93206  -0.85210  -0.78722  -0.69963
 Alpha  occ. eigenvalues --   -0.62645  -0.61710  -0.60774  -0.57568  -0.56744
 Alpha  occ. eigenvalues --   -0.54267  -0.49980  -0.47423  -0.36168  -0.35119
 Alpha  occ. eigenvalues --   -0.34162  -0.32491  -0.31068  -0.30620  -0.28248
 Alpha  occ. eigenvalues --   -0.27669  -0.13199
 Alpha virt. eigenvalues --    0.13597   0.14101   0.15011   0.16161   0.16467
 Alpha virt. eigenvalues --    0.17432   0.19290   0.20052   0.21318   0.23231
 Alpha virt. eigenvalues --    0.23620   0.25722   0.26327   0.26475   0.26662

 Mulliken charges:
               1
     1  C   -1.385296
     2  H    0.092748
     3  Cl  -0.513263
     4  H   -0.605599
     5  C   -1.061387
     6  H    0.054045
     7  N    0.654719
     8  H    0.196488
     9  H    0.277567
    10  N    0.684481
    11  H    0.176013
    12  H    0.308627
    13  N    3.111921
    14  O   -1.455468
    15  O   -1.535596
 Sum of Mulliken charges =  -1.00000

 Dipole moment (field-independent basis, Debye):
    X=              1.4770    Y=             -0.8009    Z=              0.5440  Tot=              1.7661

 Test job not archived.
 1\1\GINC-SE228\SP\RHF\Aug-CC-pVDZ\C2H7Cl1N3O2(1-)\OHZDE\09-Apr-2025\0\
 \#t hf aug-cc-pvdz iop(5/13=1,5/36=2,99/5=2) pseudo=read geom=check gu
 ess=(read,tcheck) scf=(maxcycle=1)\\title\\-1,1\C,0,0.30070267,-0.0478
 6202,-0.07743832\H,0,1.58417166,1.52064091,-0.70678882\Cl,0,-1.7575886
 7,-0.13673032,-0.50111771\H,0,2.1196294,-0.09608083,0.79771002\C,0,0.6
 3239357,1.43899827,-0.17849421\H,0,0.13793591,-0.39800493,0.92734583\N
 ,0,0.78670963,-0.89761881,-1.13249845\H,0,0.09755337,-1.61482211,-1.31
 281888\H,0,1.64979562,-1.30240015,-0.8019388\N,0,0.56732993,2.02315133

 Normal termination of Gaussian 16 at Wed Apr  9 02:57:19 2025.
