 Gaussian 16, Revision C.01,

 ----------------------------------------------------------------------
 #t hf aug-cc-pvdz symm=none int=(grid=ultrafine) guess=(read,tcheck) s
 table=(opt,rrhf)
 ----------------------------------------------------------------------
 -----
 title
 -----
 Symbolic Z-matrix:
 Charge = -1 Multiplicity = 1

 SCF Done:  E(RHF) =  -836.261351563     A.U. after   15 cycles
 Normal termination of Gaussian 16 at Wed Apr  9 02:38:02 2025.
 Gaussian 16:  ES64L-G16RevC.01  3-Jul-2019

 ----------------------------------------------------------------------
 #t hf aug-cc-pvdz iop(5/13=1,5/36=2,99/5=2) pseudo=read geom=check gue
 ss=(read,tcheck) scf=(maxcycle=1)
 ----------------------------------------------------------------------
 -----
 title
 -----
 Structure from the checkpoint file:  "E2SN2_156_mol2.chk"
 Charge = -1 Multiplicity = 1

                         Standard orientation:
 ---------------------------------------------------------------------
 Center     Atomic      Atomic             Coordinates (Angstroms)
 Number     Number       Type             X           Y           Z
 ---------------------------------------------------------------------
      1          6           0       -0.923471    0.366092    0.352278
      2          6           0        0.416770    0.653893   -0.321009
      3         17           0       -1.549287   -1.271555   -0.101891
      4          1           0        0.342361    0.615892   -1.408656
      5          1           0       -0.760402    0.322897    1.431018
      6          6           0       -1.954328    1.411054   -0.018418
      7          1           0       -2.134725    1.390970   -1.095862
      8          1           0       -1.559177    2.390195    0.247932
      9          1           0       -2.898410    1.225118    0.498553
     10          7           0        1.340623   -0.521775    0.027802
     11          8           0        1.711966   -1.274636   -0.867630
     12          8           0        1.657242   -0.630634    1.215491
     13          7           0        0.920337    1.903345    0.081369
     14          1           0        1.607737    2.261277   -0.709667
     15          1           0        1.379453    1.826196    0.983176
     16          1           0        2.346852    2.568820   -1.838537
 ---------------------------------------------------------------------

 SCF Done:  E(RHF) =  -836.722284591     A.U. after    2 cycles

 The electronic state is 1-A.
 Alpha  occ. eigenvalues -- -105.45238 -20.46812 -20.46113 -15.64860 -15.33920
 Alpha  occ. eigenvalues --  -11.20716 -11.20590 -11.13805 -10.50117  -7.67051
 Alpha  occ. eigenvalues --   -7.66706  -7.66692  -1.53076  -1.37120  -1.09826
 Alpha  occ. eigenvalues --   -1.00755  -0.91557  -0.88726  -0.77208  -0.70550
 Alpha  occ. eigenvalues --   -0.65719  -0.61871  -0.60659  -0.56023  -0.54642
 Alpha  occ. eigenvalues --   -0.49465  -0.47210  -0.46162  -0.41860  -0.41042
 Alpha  occ. eigenvalues --   -0.38218  -0.36102  -0.35290  -0.34383  -0.32154
 Alpha  occ. eigenvalues --   -0.30332  -0.10544
 Alpha virt. eigenvalues --    0.11313   0.12949   0.13927   0.14675   0.16337
 Alpha virt. eigenvalues --    0.17339   0.17891   0.19112   0.20827   0.21593
 Alpha virt. eigenvalues --    0.21776   0.23724   0.24333   0.25372   0.25862

 Mulliken charges:
               1
     1  C   -0.545892
     2  C   -1.488203
     3  Cl  -0.148692
     4  H    0.042307
     5  H    0.198885
     6  C   -0.110177
     7  H    0.233176
     8  H    0.285265
     9  H    0.140662
    10  N    2.984328
    11  O   -1.427279
    12  O   -1.474691
    13  N    0.538033
    14  H    0.059951
    15  H    0.467094
    16  H   -0.754766
 Sum of Mulliken charges =  -1.00000

 Dipole moment (field-independent basis, Debye):
    X=             -9.4367    Y=             -5.5545    Z=              6.1272  Tot=             12.5478

 Test job not archived.
 1\1\GINC-SE402\SP\RHF\Aug-CC-pVDZ\C3H8Cl1N2O2(1-)\OHZDE\09-Apr-2025\0\
 \#t hf aug-cc-pvdz iop(5/13=1,5/36=2,99/5=2) pseudo=read geom=check gu
 ess=(read,tcheck) scf=(maxcycle=1)\\title\\-1,1\C,0,-0.658965,0.072346
 ,-1.47699\C,0,0.101346,-0.092026,-0.162722\Cl,0,-0.65726,-1.464931,-2.
 434372\H,0,1.140409,-0.380708,-0.326939\H,0,-1.707882,0.263919,-1.2420
 22\C,0,-0.060302,1.180317,-2.317245\H,0,0.970658,0.932594,-2.581038\H,
 0,-0.055739,2.09392,-1.724697\H,0,-0.632817,1.322532,-3.236551\N,0,-0.
 512589,-1.307603,0.546381\O,0,0.169266,-2.316813,0.698245\O,0,-1.67949

 Normal termination of Gaussian 16 at Wed Apr  9 02:38:09 2025.
