 Gaussian 16, Revision C.01,

 ----------------------------------------------------------------------
 #t hf aug-cc-pvdz symm=none int=(grid=ultrafine) guess=(read,tcheck) s
 table=(opt,rrhf)
 ----------------------------------------------------------------------
 -----
 title
 -----
 Symbolic Z-matrix:
 Charge = -1 Multiplicity = 1

 SCF Done:  E(RHF) =  -823.507455941     A.U. after   14 cycles
 Normal termination of Gaussian 16 at Wed Apr  9 02:47:14 2025.
 Gaussian 16:  ES64L-G16RevC.01  3-Jul-2019

 ----------------------------------------------------------------------
 #t hf aug-cc-pvdz iop(5/13=1,5/36=2,99/5=2) pseudo=read geom=check gue
 ss=(read,tcheck) scf=(maxcycle=1)
 ----------------------------------------------------------------------
 -----
 title
 -----
 Structure from the checkpoint file:  "E2SN2_259_mol2.chk"
 Charge = -1 Multiplicity = 1

                         Standard orientation:
 ---------------------------------------------------------------------
 Center     Atomic      Atomic             Coordinates (Angstroms)
 Number     Number       Type             X           Y           Z
 ---------------------------------------------------------------------
      1          6           0       -0.751463   -0.241161    0.426250
      2          6           0       -0.463772    1.170682   -0.096698
      3          9           0       -1.059957   -0.155374    1.791321
      4          1           0       -1.361610    1.771127    0.105729
      5          1           0        0.149875   -0.854855    0.315214
      6          6           0       -1.907512   -0.859001   -0.239575
      7          7           0       -2.842825   -1.319099   -0.780617
      8          6           0       -0.178461    1.134273   -1.590958
      9          1           0        0.684461    0.489475   -1.774983
     10          1           0        0.065388    2.145089   -1.923818
     11          1           0       -1.034318    0.767757   -2.163398
     12          7           0        0.662793    1.777758    0.598146
     13          1           0        1.483413    1.203636    0.396378
     14          1           0        0.502547    1.701195    1.596842
     15         17           0        2.595137   -0.956731   -0.140628
 ---------------------------------------------------------------------

 SCF Done:  E(RHF) =  -823.950675356     A.U. after    2 cycles

 The electronic state is 1-A.
 Alpha  occ. eigenvalues -- -105.28618 -26.35383 -15.42304 -15.36037 -11.23773
 Alpha  occ. eigenvalues --  -11.18957 -11.16393 -11.11212 -10.33205  -7.49968
 Alpha  occ. eigenvalues --   -7.49944  -7.49933  -1.47429  -1.12515  -1.07794
 Alpha  occ. eigenvalues --   -0.93580  -0.85475  -0.74106  -0.72441  -0.64820
 Alpha  occ. eigenvalues --   -0.60108  -0.58465  -0.56358  -0.52255  -0.50120
 Alpha  occ. eigenvalues --   -0.48049  -0.44829  -0.42819  -0.41857  -0.40329
 Alpha  occ. eigenvalues --   -0.39687  -0.38529  -0.31899  -0.21187  -0.21013
 Alpha  occ. eigenvalues --   -0.20883
 Alpha virt. eigenvalues --    0.12371   0.13175   0.14208   0.15002   0.16519
 Alpha virt. eigenvalues --    0.17371   0.18296   0.19698   0.20680   0.22210
 Alpha virt. eigenvalues --    0.23465   0.24259   0.24848   0.24975   0.25506

 Mulliken charges:
               1
     1  C    2.444076
     2  C   -2.456710
     3  F   -0.900603
     4  H    0.002972
     5  H    0.170580
     6  C   -1.925220
     7  N    0.900090
     8  C   -0.011699
     9  H    0.224744
    10  H    0.162138
    11  H    0.199770
    12  N    0.767187
    13  H    0.209452
    14  H    0.185122
    15  Cl  -0.971899
 Sum of Mulliken charges =  -1.00000

 Dipole moment (field-independent basis, Debye):
    X=             -5.8542    Y=              4.1960    Z=              1.0177  Tot=              7.2742

 Test job not archived.
 1\1\GINC-SE073\SP\RHF\Aug-CC-pVDZ\C4H7Cl1F1N2(1-)\OHZDE\09-Apr-2025\0\
 \#t hf aug-cc-pvdz iop(5/13=1,5/36=2,99/5=2) pseudo=read geom=check gu
 ess=(read,tcheck) scf=(maxcycle=1)\\title\\-1,1\C,0,-0.366085,0.128548
 ,0.0621\C,0,-0.430137,-0.076516,-1.455592\F,0,0.417244,-0.89385,0.6162
 16\H,0,0.606998,-0.070326,-1.818825\H,0,-1.377508,0.05028,0.477138\C,0
 ,0.267406,1.403957,0.427502\N,0,0.789784,2.423378,0.686596\C,0,-1.2252
 5,1.044604,-2.108604\H,0,-2.236494,1.054483,-1.694416\H,0,-1.290301,0.
 84706,-3.180403\H,0,-0.760047,2.021479,-1.954285\N,0,-1.029821,-1.3591

 Normal termination of Gaussian 16 at Wed Apr  9 02:47:20 2025.
