 Gaussian 16, Revision C.01,

 ----------------------------------------------------------------------
 #t hf aug-cc-pvdz symm=none int=(grid=ultrafine) guess=(read,tcheck) s
 table=(opt,rrhf)
 ----------------------------------------------------------------------
 -----
 title
 -----
 Symbolic Z-matrix:
 Charge = -1 Multiplicity = 1

 SCF Done:  E(RHF) =  -502.452123384     A.U. after   15 cycles
 Normal termination of Gaussian 16 at Wed Apr  9 02:56:46 2025.
 Gaussian 16:  ES64L-G16RevC.01  3-Jul-2019

 ----------------------------------------------------------------------
 #t hf aug-cc-pvdz iop(5/13=1,5/36=2,99/5=2) pseudo=read geom=check gue
 ss=(read,tcheck) scf=(maxcycle=1)
 ----------------------------------------------------------------------
 -----
 title
 -----
 Structure from the checkpoint file:  "E2SN2_363_mol2.chk"
 Charge = -1 Multiplicity = 1

                         Standard orientation:
 ---------------------------------------------------------------------
 Center     Atomic      Atomic             Coordinates (Angstroms)
 Number     Number       Type             X           Y           Z
 ---------------------------------------------------------------------
      1          6           0       -0.408414    0.682197    0.119515
      2          6           0        0.448925   -0.591784    0.179908
      3          9           0        0.262807    1.714095    0.819211
      4          1           0       -0.181768   -1.321516   -0.370035
      5          6           0       -0.596835    1.149848   -1.312093
      6          1           0        0.353330    1.364642   -1.807655
      7          1           0       -1.206956    2.059041   -1.313444
      8          1           0       -1.131372    0.339353   -1.811819
      9          7           0       -1.638957    0.390280    0.793619
     10          1           0       -1.986793   -0.446882    0.259701
     11          1           0       -2.277950    1.158711    0.609667
     12          6           0        0.676226   -1.067899    1.616340
     13          1           0       -0.290412   -1.280948    2.068581
     14          1           0        1.289593   -1.973061    1.626310
     15          1           0        1.175647   -0.293939    2.203697
     16          6           0        1.729342   -0.396748   -0.492540
     17          7           0        2.776120   -0.263511   -1.010840
     18          9           0       -1.907133   -1.619258   -0.887125
 ---------------------------------------------------------------------

 SCF Done:  E(RHF) =  -502.951783835     A.U. after    2 cycles

 The electronic state is 1-A.
 Alpha  occ. eigenvalues --  -26.30358 -26.10598 -15.38190 -15.33000 -11.21186
 Alpha  occ. eigenvalues --  -11.15662 -11.12569 -11.10726 -11.09161  -1.42620
 Alpha  occ. eigenvalues --   -1.17224  -1.09063  -1.05559  -0.94223  -0.86276
 Alpha  occ. eigenvalues --   -0.76901  -0.68857  -0.60715  -0.55594  -0.53638
 Alpha  occ. eigenvalues --   -0.51348  -0.48941  -0.47711  -0.45867  -0.45328
 Alpha  occ. eigenvalues --   -0.43065  -0.41962  -0.40468  -0.39633  -0.37580
 Alpha  occ. eigenvalues --   -0.35080  -0.34311  -0.30117  -0.26896  -0.26199
 Alpha  occ. eigenvalues --   -0.25893
 Alpha virt. eigenvalues --    0.12937   0.13303   0.14070   0.14713   0.15968
 Alpha virt. eigenvalues --    0.16420   0.16798   0.18120   0.19390   0.20117
 Alpha virt. eigenvalues --    0.21319   0.22619   0.24782   0.25652   0.25831

 Mulliken charges:
               1
     1  C   -0.563359
     2  C    0.006035
     3  F   -1.069912
     4  H    0.300884
     5  C   -0.236882
     6  H    0.260086
     7  H    0.115057
     8  H    0.298335
     9  N    0.535394
    10  H    0.362987
    11  H    0.261262
    12  C   -0.013017
    13  H    0.219905
    14  H    0.150798
    15  H    0.243911
    16  C   -1.822595
    17  N    0.969836
    18  F   -1.018726
 Sum of Mulliken charges =  -1.00000

 Dipole moment (field-independent basis, Debye):
    X=              0.7130    Y=              3.4540    Z=              2.5780  Tot=              4.3686

 Test job not archived.
 1\1\GINC-SE188\SP\RHF\Aug-CC-pVDZ\C5H9F2N2(1-)\OHZDE\09-Apr-2025\0\\#t
  hf aug-cc-pvdz iop(5/13=1,5/36=2,99/5=2) pseudo=read geom=check guess
 =(read,tcheck) scf=(maxcycle=1)\\title\\-1,1\C,0,-0.008171,0.026539,0.
 005989\C,0,-0.51972,0.289224,-1.419149\F,0,1.405871,-0.040211,-0.02487
 7\H,0,-1.620283,0.294808,-1.27269\C,0,-0.3909,1.156916,0.943789\H,0,0.
 010045,2.120345,0.618862\H,0,-0.006267,0.936154,1.94489\H,0,-1.482766,
 1.164363,0.955299\N,0,-0.523249,-1.249474,0.406429\H,0,-1.55966,-1.113
 486,0.287021\H,0,-0.340099,-1.354716,1.40042\C,0,-0.122271,-0.824562,-

 Normal termination of Gaussian 16 at Wed Apr  9 02:56:54 2025.
