 Gaussian 16, Revision C.01,

 ----------------------------------------------------------------------
 #t hf aug-cc-pvdz symm=none int=(grid=ultrafine) guess=(read,tcheck) s
 table=(opt,rrhf)
 ----------------------------------------------------------------------
 -----
 title
 -----
 Symbolic Z-matrix:
 Charge = -1 Multiplicity = 1

 SCF Done:  E(RHF) =  -536.079924823     A.U. after   16 cycles
 Normal termination of Gaussian 16 at Wed Apr  9 02:40:48 2025.
 Gaussian 16:  ES64L-G16RevC.01  3-Jul-2019

 ----------------------------------------------------------------------
 #t hf aug-cc-pvdz iop(5/13=1,5/36=2,99/5=2) pseudo=read geom=check gue
 ss=(read,tcheck) scf=(maxcycle=1)
 ----------------------------------------------------------------------
 -----
 title
 -----
 Structure from the checkpoint file:  "E2SN2_195_mol1.chk"
 Charge = -1 Multiplicity = 1

                         Standard orientation:
 ---------------------------------------------------------------------
 Center     Atomic      Atomic             Coordinates (Angstroms)
 Number     Number       Type             X           Y           Z
 ---------------------------------------------------------------------
      1          6           0       -1.038102    0.104901   -0.345232
      2          1           0       -0.217184   -1.272923    1.025244
      3          9           0        0.118041    1.403498   -0.889503
      4          9           0       -2.210314   -1.166731   -0.063016
      5          6           0        0.047345   -0.875884    0.049633
      6          1           0       -1.368674    0.133749   -1.370310
      7          1           0        0.122671   -1.668210   -0.689876
      8          7           0       -1.571707    0.952342    0.679727
      9          1           0       -2.566939    0.784233    0.706835
     10          1           0       -1.360650    1.896328    0.392342
     11          7           0        1.416693   -0.305384    0.190529
     12          8           0        2.231078   -0.538237   -0.702577
     13          8           0        1.675280    0.299876    1.226357
 ---------------------------------------------------------------------

 SCF Done:  E(RHF) =  -536.600032381     A.U. after    2 cycles

 The electronic state is 1-A.
 Alpha  occ. eigenvalues --  -26.18024 -26.14873 -20.43325 -20.43301 -15.62951
 Alpha  occ. eigenvalues --  -15.34047 -11.22348 -11.15165  -1.50471  -1.34273
 Alpha  occ. eigenvalues --   -1.26962  -1.23402  -1.03907  -0.96873  -0.78354
 Alpha  occ. eigenvalues --   -0.68936  -0.60837  -0.60239  -0.58324  -0.55815
 Alpha  occ. eigenvalues --   -0.55310  -0.45172  -0.44115  -0.39340  -0.35618
 Alpha  occ. eigenvalues --   -0.34425  -0.32819  -0.32749  -0.32085  -0.31220
 Alpha  occ. eigenvalues --   -0.30057  -0.28582  -0.27023
 Alpha virt. eigenvalues --    0.14345   0.15034   0.15232   0.16318   0.17232
 Alpha virt. eigenvalues --    0.21519   0.22876   0.23809   0.25355   0.25413
 Alpha virt. eigenvalues --    0.26656   0.27384   0.27909   0.29196   0.30091

 Mulliken charges:
               1
     1  C   -0.104688
     2  H    0.235701
     3  F   -0.961210
     4  F   -0.927334
     5  C   -0.367450
     6  H    0.005037
     7  H    0.157877
     8  N    0.390661
     9  H    0.257666
    10  H    0.274313
    11  N    3.009414
    12  O   -1.486989
    13  O   -1.482997
 Sum of Mulliken charges =  -1.00000

 Dipole moment (field-independent basis, Debye):
    X=             -0.6860    Y=             -1.2345    Z=              0.4551  Tot=              1.4838

 Test job not archived.
 1\1\GINC-SE328\SP\RHF\Aug-CC-pVDZ\C2H5F2N2O2(1-)\OHZDE\09-Apr-2025\0\\
 #t hf aug-cc-pvdz iop(5/13=1,5/36=2,99/5=2) pseudo=read geom=check gue
 ss=(read,tcheck) scf=(maxcycle=1)\\title\\-1,1\C,0,0.66948276,-0.05034
 722,0.06188545\H,0,1.78594366,1.51547943,0.92918887\F,0,-1.11462192,0.
 00687528,0.42650388\F,0,2.31764844,-0.14896375,-0.52513969\C,0,0.89843
 31,1.42690799,0.30958217\H,0,0.34055689,-0.37205739,-0.91238553\H,0,1.
 02453108,1.94939915,-0.63457427\N,0,0.90500972,-0.95034906,1.15181803\
 H,0,1.59442839,-1.61646004,0.83483051\H,0,0.01749429,-1.39262179,1.338

 Normal termination of Gaussian 16 at Wed Apr  9 02:40:52 2025.
