 Gaussian 16, Revision C.01,

 ----------------------------------------------------------------------
 #t hf aug-cc-pvdz symm=none int=(grid=ultrafine) guess=(read,tcheck) s
 table=(opt,rrhf)
 ----------------------------------------------------------------------
 -----
 title
 -----
 Symbolic Z-matrix:
 Charge = -1 Multiplicity = 1

 SCF Done:  E(RHF) =  -724.456810805     A.U. after   17 cycles
 Normal termination of Gaussian 16 at Wed Apr  9 02:34:50 2025.
 Gaussian 16:  ES64L-G16RevC.01  3-Jul-2019

 ----------------------------------------------------------------------
 #t hf aug-cc-pvdz iop(5/13=1,5/36=2,99/5=2) pseudo=read geom=check gue
 ss=(read,tcheck) scf=(maxcycle=1)
 ----------------------------------------------------------------------
 -----
 title
 -----
 Structure from the checkpoint file:  "E2SN2_124_mol1.chk"
 Charge = -1 Multiplicity = 1

                         Standard orientation:
 ---------------------------------------------------------------------
 Center     Atomic      Atomic             Coordinates (Angstroms)
 Number     Number       Type             X           Y           Z
 ---------------------------------------------------------------------
      1          6           0        0.104917   -0.229706    0.166868
      2          6           0       -0.935197   -0.780717   -0.691883
      3         17           0        0.367283    1.762861   -0.076668
      4          1           0       -1.302490   -2.774571    0.747903
      5          1           0       -1.033615   -1.920336   -0.147385
      6          1           0       -0.638047   -0.855227   -1.740211
      7          7           0       -0.107669   -0.396064    1.577101
      8          1           0       -0.476425   -1.369254    1.650105
      9          1           0       -0.875635    0.210942    1.843196
     10          6           0       -2.329929   -0.231787   -0.479157
     11          1           0       -2.355833    0.862780   -0.488574
     12          1           0       -2.997740   -0.600490   -1.263151
     13          1           0       -2.730525   -0.596645    0.473488
     14          6           0        1.428258   -0.736680   -0.205216
     15          7           0        2.473127   -1.182865   -0.507913
 ---------------------------------------------------------------------

 SCF Done:  E(RHF) =  -724.814084051     A.U. after    2 cycles

 The electronic state is 1-A.
 Alpha  occ. eigenvalues -- -105.40661 -15.39868 -15.37253 -11.25059 -11.16905
 Alpha  occ. eigenvalues --  -11.10299 -11.08793 -10.45417  -7.62292  -7.62017
 Alpha  occ. eigenvalues --   -7.62007  -1.11937  -1.08599  -0.93380  -0.88127
 Alpha  occ. eigenvalues --   -0.82200  -0.70157  -0.59127  -0.57314  -0.52591
 Alpha  occ. eigenvalues --   -0.49578  -0.47983  -0.43183  -0.41837  -0.38578
 Alpha  occ. eigenvalues --   -0.37042  -0.36713  -0.33894  -0.33316  -0.31259
 Alpha  occ. eigenvalues --   -0.31168  -0.11218
 Alpha virt. eigenvalues --    0.12617   0.13537   0.14526   0.15100   0.17262
 Alpha virt. eigenvalues --    0.18109   0.18353   0.19418   0.20079   0.21369
 Alpha virt. eigenvalues --    0.22699   0.23245   0.24560   0.25546   0.25676

 Mulliken charges:
               1
     1  C   -1.096524
     2  C   -0.159142
     3  Cl  -0.233223
     4  H   -0.480200
     5  H    0.231219
     6  H    0.007913
     7  N    0.700032
     8  H    0.200792
     9  H    0.275926
    10  C   -0.237249
    11  H    0.188344
    12  H    0.115129
    13  H    0.164204
    14  C   -1.616186
    15  N    0.938965
 Sum of Mulliken charges =  -1.00000

 Dipole moment (field-independent basis, Debye):
    X=             -1.8802    Y=              6.4033    Z=             -1.6351  Tot=              6.8711

 Test job not archived.
 1\1\GINC-SE461\SP\RHF\Aug-CC-pVDZ\C4H8Cl1N2(1-)\OHZDE\09-Apr-2025\0\\#
 t hf aug-cc-pvdz iop(5/13=1,5/36=2,99/5=2) pseudo=read geom=check gues
 s=(read,tcheck) scf=(maxcycle=1)\\title\\-1,1\C,0,-0.24837477,0.013531
 32,-0.29763185\C,0,-0.20546931,0.04506804,1.15841324\Cl,0,1.5879673,-0
 .03409374,-1.14854402\H,0,-2.51707325,-0.83518273,1.41334036\H,0,-1.43
 160363,-0.18388365,1.37993684\H,0,0.10744261,1.01028309,1.56250251\N,0
 ,-0.94050677,-1.10678086,-0.86988934\H,0,-1.7763431,-1.21119772,-0.254
 35263\H,0,-0.37269519,-1.93142189,-0.70681648\C,0,0.4421388,-1.1481272

 Normal termination of Gaussian 16 at Wed Apr  9 02:34:55 2025.
