 Gaussian 16, Revision C.01,

 ----------------------------------------------------------------------
 #t hf aug-cc-pvdz symm=none int=(grid=ultrafine) guess=(read,tcheck) s
 table=(opt,rrhf)
 ----------------------------------------------------------------------
 -----
 title
 -----
 Symbolic Z-matrix:
 Charge = -1 Multiplicity = 1

 SCF Done:  E(RHF) =  -685.462289333     A.U. after   15 cycles
 Normal termination of Gaussian 16 at Wed Apr  9 02:42:26 2025.
 Gaussian 16:  ES64L-G16RevC.01  3-Jul-2019

 ----------------------------------------------------------------------
 #t hf aug-cc-pvdz iop(5/13=1,5/36=2,99/5=2) pseudo=read geom=check gue
 ss=(read,tcheck) scf=(maxcycle=1)
 ----------------------------------------------------------------------
 -----
 title
 -----
 Structure from the checkpoint file:  "E2SN2_21_mol2.chk"
 Charge = -1 Multiplicity = 1

                         Standard orientation:
 ---------------------------------------------------------------------
 Center     Atomic      Atomic             Coordinates (Angstroms)
 Number     Number       Type             X           Y           Z
 ---------------------------------------------------------------------
      1          6           0        0.614273    0.358334   -0.344693
      2          6           0       -0.594018    0.867499    0.422521
      3         17           0        0.887426   -1.436318    0.080180
      4          1           0       -0.626231    1.944344    0.221808
      5          1           0        0.381152    0.289219   -1.413991
      6          1           0       -0.406904    0.737545    1.490777
      7          7           0        1.722753    1.147044    0.019532
      8          1           0        1.397506    2.167352   -0.010797
      9          1           0        2.466460    1.037030   -0.661029
     10          6           0       -1.844182    0.219349    0.052712
     11          7           0       -2.862779   -0.282207   -0.247316
     12          1           0        0.625522    3.516960   -0.178574
 ---------------------------------------------------------------------

 SCF Done:  E(RHF) =  -685.775727340     A.U. after    2 cycles

 The electronic state is 1-A.
 Alpha  occ. eigenvalues -- -105.42541 -15.39926 -15.35111 -11.22115 -11.17439
 Alpha  occ. eigenvalues --  -11.15119 -10.47431  -7.64338  -7.64018  -7.64007
 Alpha  occ. eigenvalues --   -1.10895  -1.08838  -0.94532  -0.89836  -0.72155
 Alpha  occ. eigenvalues --   -0.62401  -0.56203  -0.52990  -0.51793  -0.47864
 Alpha  occ. eigenvalues --   -0.46033  -0.41878  -0.37211  -0.36567  -0.33199
 Alpha  occ. eigenvalues --   -0.32981  -0.30457  -0.11165
 Alpha virt. eigenvalues --    0.13840   0.14445   0.15181   0.17158   0.17889
 Alpha virt. eigenvalues --    0.19413   0.20930   0.21539   0.23209   0.23866
 Alpha virt. eigenvalues --    0.24443   0.25712   0.26658   0.27328   0.27473

 Mulliken charges:
               1
     1  C   -1.217987
     2  C    0.482356
     3  Cl  -0.149319
     4  H    0.232563
     5  H    0.091973
     6  H    0.261965
     7  N    0.565685
     8  H    0.002669
     9  H    0.233951
    10  C   -1.546319
    11  N    0.809638
    12  H   -0.767176
 Sum of Mulliken charges =  -1.00000

 Dipole moment (field-independent basis, Debye):
    X=              0.9943    Y=             -8.2217    Z=              0.1743  Tot=              8.2834

 Test job not archived.
 1\1\GINC-SE423\SP\RHF\Aug-CC-pVDZ\C3H6Cl1N2(1-)\OHZDE\09-Apr-2025\0\\#
 t hf aug-cc-pvdz iop(5/13=1,5/36=2,99/5=2) pseudo=read geom=check gues
 s=(read,tcheck) scf=(maxcycle=1)\\title\\-1,1\C,0,-0.204606,-0.051934,
 -1.455414\C,0,-0.016584,0.058558,0.048007\Cl,0,-1.995623,-0.425039,-1.
 814514\H,0,1.064958,0.158556,0.193556\H,0,-0.096246,0.933968,-1.923148
 \H,0,-0.324365,-0.883842,0.506509\N,0,0.637977,-1.078906,-1.923211\H,0
 ,1.593102,-0.92697,-1.462357\H,0,0.76019,-0.99842,-2.926681\C,0,-0.740
 07,1.167476,0.653511\N,0,-1.303988,2.06809,1.153517\H,0,2.836117,-0.41

 Normal termination of Gaussian 16 at Wed Apr  9 02:42:31 2025.
