 Gaussian 16, Revision C.01,

 ----------------------------------------------------------------------
 #t hf aug-cc-pvdz symm=none int=(grid=ultrafine) guess=(read,tcheck) s
 table=(opt,rrhf)
 ----------------------------------------------------------------------
 -----
 title
 -----
 Symbolic Z-matrix:
 Charge = -1 Multiplicity = 1

 SCF Done:  E(RHF) =  -816.217211987     A.U. after   17 cycles
 Normal termination of Gaussian 16 at Wed Apr  9 03:02:34 2025.
 Gaussian 16:  ES64L-G16RevC.01  3-Jul-2019

 ----------------------------------------------------------------------
 #t hf aug-cc-pvdz iop(5/13=1,5/36=2,99/5=2) pseudo=read geom=check gue
 ss=(read,tcheck) scf=(maxcycle=1)
 ----------------------------------------------------------------------
 -----
 title
 -----
 Structure from the checkpoint file:  "E2SN2_89_mol1.chk"
 Charge = -1 Multiplicity = 1

                         Standard orientation:
 ---------------------------------------------------------------------
 Center     Atomic      Atomic             Coordinates (Angstroms)
 Number     Number       Type             X           Y           Z
 ---------------------------------------------------------------------
      1          6           0       -0.570359   -0.158865   -0.276529
      2          6           0        0.922119   -0.278474   -0.526835
      3         17           0       -1.001727   -0.547976    1.484329
      4          1           0        0.580301   -0.563015   -3.019151
      5          1           0        0.923218   -0.168646   -1.738507
      6          6           0       -1.006682    1.232537   -0.476837
      7          7           0       -1.354355    2.341007   -0.652122
      8          7           0       -1.357017   -1.015513   -1.127709
      9          1           0       -1.211908   -1.970837   -0.816254
     10          1           0       -0.891597   -0.937602   -2.057598
     11          6           0        1.466441   -1.686958   -0.342184
     12          1           0        1.108978   -2.303850   -1.172878
     13          1           0        2.557012   -1.665298   -0.403071
     14          1           0        1.178334   -2.132513    0.614147
     15          6           0        1.703437    0.725905    0.148571
     16          7           0        2.382125    1.539146    0.665917
 ---------------------------------------------------------------------

 SCF Done:  E(RHF) =  -816.653615151     A.U. after    2 cycles

 The electronic state is 1-A.
 Alpha  occ. eigenvalues -- -105.45580 -15.41152 -15.39142 -15.38765 -11.27316
 Alpha  occ. eigenvalues --  -11.17901 -11.16551 -11.14657 -11.12992 -10.50432
 Alpha  occ. eigenvalues --   -7.67354  -7.67003  -7.66993  -1.14263  -1.10104
 Alpha  occ. eigenvalues --   -1.09381  -0.98067  -0.94081  -0.84603  -0.76042
 Alpha  occ. eigenvalues --   -0.63752  -0.61051  -0.57729  -0.53785  -0.50183
 Alpha  occ. eigenvalues --   -0.49377  -0.47290  -0.45011  -0.44009  -0.41334
 Alpha  occ. eigenvalues --   -0.39238  -0.38435  -0.37842  -0.35931  -0.35119
 Alpha  occ. eigenvalues --   -0.34772  -0.33861  -0.13166
 Alpha virt. eigenvalues --    0.12309   0.13230   0.14205   0.15636   0.17235
 Alpha virt. eigenvalues --    0.17735   0.18380   0.18560   0.19356   0.20748
 Alpha virt. eigenvalues --    0.22589   0.22779   0.23370   0.24311   0.24731

 Mulliken charges:
               1
     1  C   -1.720794
     2  C    0.582480
     3  Cl  -0.016766
     4  H   -0.376760
     5  H    0.262872
     6  C   -1.498482
     7  N    1.023113
     8  N    0.913975
     9  H    0.290164
    10  H    0.238487
    11  C    0.144999
    12  H    0.192112
    13  H    0.122118
    14  H    0.249073
    15  C   -2.476605
    16  N    1.070013
 Sum of Mulliken charges =  -1.00000

 Dipole moment (field-independent basis, Debye):
    X=             -1.4335    Y=             -5.6519    Z=              5.9949  Tot=              8.3629

 Test job not archived.
 1\1\GINC-SE462\SP\RHF\Aug-CC-pVDZ\C5H7Cl1N3(1-)\OHZDE\09-Apr-2025\0\\#
 t hf aug-cc-pvdz iop(5/13=1,5/36=2,99/5=2) pseudo=read geom=check gues
 s=(read,tcheck) scf=(maxcycle=1)\\title\\-1,1\C,0,-0.15198498,0.004122
 84,-0.39468601\C,0,-0.07632294,-0.04402367,1.12070411\Cl,0,1.53335426,
 0.11076785,-1.16043058\H,0,-2.4674653,0.75174299,1.36285338\H,0,-1.259
 55666,0.07798757,1.37621114\C,0,-0.72674641,-1.24819097,-0.91223903\N,
 0,-1.19968603,-2.2428773,-1.321182\N,0,-0.93577183,1.10887702,-0.88700
 764\H,0,-0.40462738,1.95775488,-0.71968403\H,0,-1.75231475,1.14282534,

 Normal termination of Gaussian 16 at Wed Apr  9 03:02:41 2025.
