 Gaussian 16, Revision C.01,

 ----------------------------------------------------------------------
 #t hf aug-cc-pvdz symm=none int=(grid=ultrafine) guess=(read,tcheck) s
 table=(opt,rrhf)
 ----------------------------------------------------------------------
 -----
 title
 -----
 Symbolic Z-matrix:
 Charge = -1 Multiplicity = 1

 SCF Done:  E(RHF) =  -987.991668310     A.U. after   16 cycles
 Normal termination of Gaussian 16 at Wed Apr  9 02:45:18 2025.
 Gaussian 16:  ES64L-G16RevC.01  3-Jul-2019

 ----------------------------------------------------------------------
 #t hf aug-cc-pvdz iop(5/13=1,5/36=2,99/5=2) pseudo=read geom=check gue
 ss=(read,tcheck) scf=(maxcycle=1)
 ----------------------------------------------------------------------
 -----
 title
 -----
 Structure from the checkpoint file:  "E2SN2_238_mol2.chk"
 Charge = -1 Multiplicity = 1

                         Standard orientation:
 ---------------------------------------------------------------------
 Center     Atomic      Atomic             Coordinates (Angstroms)
 Number     Number       Type             X           Y           Z
 ---------------------------------------------------------------------
      1          6           0        0.624048   -0.305817   -0.318660
      2          6           0        0.601763    0.751828    0.764650
      3          9           0        1.927865   -0.643124   -0.644229
      4          1           0       -0.448646    1.016092    0.948482
      5          1           0        1.038088    0.344597    1.676262
      6          7           0        0.144302   -1.670590    0.304183
      7          8           0        0.308443   -1.863694    1.504830
      8          8           0       -0.297852   -2.489556   -0.495080
      9          7           0       -0.085259    0.055393   -1.445262
     10          1           0       -0.201107   -0.736226   -2.065190
     11          1           0       -1.003583    0.431207   -1.169861
     12          6           0        1.358977    1.926052    0.345709
     13          7           0        1.995687    2.870481    0.064221
     14         17           0       -2.747771    0.972887    0.065775
 ---------------------------------------------------------------------

 SCF Done:  E(RHF) =  -988.580308842     A.U. after    2 cycles

 The electronic state is 1-A.
 Alpha  occ. eigenvalues -- -105.30230 -26.38833 -20.49953 -20.49860 -15.68352
 Alpha  occ. eigenvalues --  -15.41697 -15.39927 -11.33598 -11.19234 -11.18642
 Alpha  occ. eigenvalues --  -10.34858  -7.51633  -7.51594  -7.51574  -1.56951
 Alpha  occ. eigenvalues --   -1.51752  -1.40884  -1.14621  -1.11985  -0.98722
 Alpha  occ. eigenvalues --   -0.92704  -0.76788  -0.75495  -0.71551  -0.67883
 Alpha  occ. eigenvalues --   -0.66179  -0.63267  -0.62079  -0.59427  -0.56077
 Alpha  occ. eigenvalues --   -0.53230  -0.51798  -0.50213  -0.48576  -0.43224
 Alpha  occ. eigenvalues --   -0.39855  -0.38639  -0.38529  -0.36249  -0.35264
 Alpha  occ. eigenvalues --   -0.23277  -0.22727  -0.22534
 Alpha virt. eigenvalues --    0.13061   0.14033   0.15685   0.16753   0.17042
 Alpha virt. eigenvalues --    0.17743   0.19251   0.21441   0.22035   0.23588
 Alpha virt. eigenvalues --    0.23892   0.24564   0.25490   0.25563   0.25945

 Mulliken charges:
               1
     1  C   -0.560951
     2  C    0.308623
     3  F   -1.028550
     4  H    0.256689
     5  H    0.266437
     6  N    3.071247
     7  O   -1.517841
     8  O   -1.514918
     9  N    0.624320
    10  H    0.401196
    11  H    0.232599
    12  C   -1.449376
    13  N    0.859102
    14  Cl  -0.948577
 Sum of Mulliken charges =  -1.00000

 Dipole moment (field-independent basis, Debye):
    X=              5.9846    Y=             -4.6758    Z=              0.2406  Tot=              7.5984

 Test job not archived.
 1\1\GINC-SE362\SP\RHF\Aug-CC-pVDZ\C3H4Cl1F1N3O2(1-)\OHZDE\09-Apr-2025\
 0\\#t hf aug-cc-pvdz iop(5/13=1,5/36=2,99/5=2) pseudo=read geom=check
 guess=(read,tcheck) scf=(maxcycle=1)\\title\\-1,1\C,0,-0.00948,0.00940
 9,0.009459\C,0,-0.521011,0.435404,-1.350517\F,0,1.371904,-0.097312,-0.
 000531\H,0,-1.618288,0.456654,-1.300302\H,0,-0.149147,1.433546,-1.5800
 4\N,0,-0.175348,1.21662,1.007369\O,0,-0.171194,2.359348,0.560222\O,0,-
 0.21887,0.917089,2.19624\N,0,-0.588371,-1.156077,0.467004\H,0,-0.36313
 ,-1.309712,1.441712\H,0,-1.609049,-1.108454,0.339141\C,0,-0.073859,-0.

 Normal termination of Gaussian 16 at Wed Apr  9 02:45:24 2025.
