 Gaussian 16, Revision C.01,

 ----------------------------------------------------------------------
 #t hf aug-cc-pvdz symm=none int=(grid=ultrafine) guess=(read,tcheck) s
 table=(opt,rrhf)
 ----------------------------------------------------------------------
 -----
 title
 -----
 Symbolic Z-matrix:
 Charge = -1 Multiplicity = 1

 SCF Done:  E(RHF) =  -627.815420909     A.U. after   16 cycles
 Normal termination of Gaussian 16 at Wed Apr  9 02:51:16 2025.
 Gaussian 16:  ES64L-G16RevC.01  3-Jul-2019

 ----------------------------------------------------------------------
 #t hf aug-cc-pvdz iop(5/13=1,5/36=2,99/5=2) pseudo=read geom=check gue
 ss=(read,tcheck) scf=(maxcycle=1)
 ----------------------------------------------------------------------
 -----
 title
 -----
 Structure from the checkpoint file:  "E2SN2_291_mol1.chk"
 Charge = -1 Multiplicity = 1

                         Standard orientation:
 ---------------------------------------------------------------------
 Center     Atomic      Atomic             Coordinates (Angstroms)
 Number     Number       Type             X           Y           Z
 ---------------------------------------------------------------------
      1          6           0       -0.759128   -0.357909    0.047209
      2          1           0        0.430249   -0.620258   -1.733550
      3          9           0        0.140280   -0.164580    1.580733
      4          9           0       -1.666282   -0.485599   -1.465316
      5          6           0        0.530182   -0.745079   -0.658849
      6          1           0        0.742220   -1.773134   -0.381926
      7          6           0       -1.177099    1.039301    0.151845
      8          7           0       -1.595407    2.128225    0.292405
      9          7           0       -1.546476   -1.409622    0.632346
     10          1           0       -2.460834   -1.366702    0.207406
     11          1           0       -1.578924   -1.235032    1.626146
     12          7           0        1.718453    0.057355   -0.267246
     13          8           0        2.711445   -0.543049    0.139902
     14          8           0        1.663754    1.267691   -0.464976
 ---------------------------------------------------------------------

 SCF Done:  E(RHF) =  -628.415186109     A.U. after    2 cycles

 The electronic state is 1-A.
 Alpha  occ. eigenvalues --  -26.20537 -26.19573 -20.45796 -20.45637 -15.65446
 Alpha  occ. eigenvalues --  -15.37743 -15.37468 -11.29540 -11.18138 -11.15577
 Alpha  occ. eigenvalues --   -1.52947  -1.36771  -1.30233  -1.28310  -1.08459
 Alpha  occ. eigenvalues --   -1.06750  -1.00075  -0.84162  -0.75097  -0.66847
 Alpha  occ. eigenvalues --   -0.62513  -0.61982  -0.59627  -0.58687  -0.51346
 Alpha  occ. eigenvalues --   -0.49125  -0.46986  -0.44519  -0.39395  -0.37703
 Alpha  occ. eigenvalues --   -0.36735  -0.36237  -0.35531  -0.34714  -0.34456
 Alpha  occ. eigenvalues --   -0.34342  -0.32812  -0.31476  -0.30988
 Alpha virt. eigenvalues --    0.13448   0.14429   0.15211   0.16174   0.18939
 Alpha virt. eigenvalues --    0.19633   0.21615   0.22137   0.23237   0.24405
 Alpha virt. eigenvalues --    0.25256   0.25998   0.26497   0.27113   0.27242

 Mulliken charges:
               1
     1  C    0.477616
     2  H    0.262207
     3  F   -0.897547
     4  F   -0.894867
     5  C   -0.155810
     6  H    0.179340
     7  C   -2.303469
     8  N    1.092542
     9  N    0.594960
    10  H    0.307520
    11  H    0.357532
    12  N    2.888804
    13  O   -1.472069
    14  O   -1.436759
 Sum of Mulliken charges =  -1.00000

 Dipole moment (field-independent basis, Debye):
    X=              0.6003    Y=             -3.8846    Z=             -1.0040  Tot=              4.0569

 Test job not archived.
 1\1\GINC-SE054\SP\RHF\Aug-CC-pVDZ\C3H4F2N3O2(1-)\OHZDE\09-Apr-2025\0\\
 #t hf aug-cc-pvdz iop(5/13=1,5/36=2,99/5=2) pseudo=read geom=check gue
 ss=(read,tcheck) scf=(maxcycle=1)\\title\\-1,1\C,0,0.73247076,-0.07281
 179,-0.0261473\H,0,1.84923332,1.72592401,-0.44080414\F,0,-1.0482465,0.
 05814001,-0.12567225\F,0,2.49240456,-0.2392206,0.0175188\C,0,0.8483445
 8,1.43931846,-0.1299506\H,0,0.58942079,1.84079552,0.84489254\C,0,0.706
 53966,-0.91579948,-1.22052734\N,0,0.67270586,-1.67578529,-2.11594401\N
 ,0,0.62461184,-0.64967452,1.28686336\H,0,1.39451052,-1.29366906,1.3917

 Normal termination of Gaussian 16 at Wed Apr  9 02:51:22 2025.
