 Gaussian 16, Revision C.01,

 ----------------------------------------------------------------------
 #t hf aug-cc-pvdz symm=none int=(grid=ultrafine) guess=(read,tcheck) s
 table=(opt,rrhf)
 ----------------------------------------------------------------------
 -----
 title
 -----
 Symbolic Z-matrix:
 Charge = -1 Multiplicity = 1

 SCF Done:  E(RHF) =  -516.031260331     A.U. after   16 cycles
 Normal termination of Gaussian 16 at Wed Apr  9 02:48:03 2025.
 Gaussian 16:  ES64L-G16RevC.01  3-Jul-2019

 ----------------------------------------------------------------------
 #t hf aug-cc-pvdz iop(5/13=1,5/36=2,99/5=2) pseudo=read geom=check gue
 ss=(read,tcheck) scf=(maxcycle=1)
 ----------------------------------------------------------------------
 -----
 title
 -----
 Structure from the checkpoint file:  "E2SN2_267_mol1.chk"
 Charge = -1 Multiplicity = 1

                         Standard orientation:
 ---------------------------------------------------------------------
 Center     Atomic      Atomic             Coordinates (Angstroms)
 Number     Number       Type             X           Y           Z
 ---------------------------------------------------------------------
      1          6           0        0.139286   -0.032137    0.051658
      2          1           0       -0.745279   -0.835744    1.807067
      3          9           0       -0.288927   -0.620407   -1.545545
      4          9           0        0.748036    0.673223    1.625525
      5          6           0       -0.797781   -1.018324    0.737369
      6          1           0       -0.392844   -2.015569    0.513135
      7          6           0       -0.308086    1.308014   -0.282227
      8          7           0       -0.667127    2.383411   -0.588240
      9          6           0        1.524492   -0.400611   -0.182873
     10          7           0        2.626865   -0.751026   -0.386426
     11          7           0       -2.164073   -0.815407    0.266668
     12          1           0       -2.766336   -1.502291    0.704024
     13          1           0       -2.144635   -0.982235   -0.731621
 ---------------------------------------------------------------------

 SCF Done:  E(RHF) =  -516.523381829     A.U. after    2 cycles

 The electronic state is 1-A.
 Alpha  occ. eigenvalues --  -26.22261 -26.18732 -15.38496 -15.38130 -15.37042
 Alpha  occ. eigenvalues --  -11.29005 -11.16922 -11.16462 -11.15674  -1.31149
 Alpha  occ. eigenvalues --   -1.27077  -1.09010  -1.08301  -1.07041  -0.93444
 Alpha  occ. eigenvalues --   -0.78744  -0.69812  -0.60320  -0.52365  -0.51957
 Alpha  occ. eigenvalues --   -0.49822  -0.47818  -0.47138  -0.44820  -0.42087
 Alpha  occ. eigenvalues --   -0.37879  -0.36603  -0.36193  -0.35978  -0.35688
 Alpha  occ. eigenvalues --   -0.33882  -0.32412  -0.31785  -0.30172
 Alpha virt. eigenvalues --    0.11958   0.14371   0.14930   0.16374   0.18352
 Alpha virt. eigenvalues --    0.19716   0.21090   0.22451   0.23434   0.23842
 Alpha virt. eigenvalues --    0.24642   0.25430   0.25973   0.26373   0.27332

 Mulliken charges:
               1
     1  C    2.404926
     2  H    0.117515
     3  F   -0.835093
     4  F   -0.827698
     5  C   -0.052062
     6  H    0.170662
     7  C   -2.175003
     8  N    1.052075
     9  C   -2.370195
    10  N    1.024516
    11  N    0.148640
    12  H    0.134133
    13  H    0.207585
 Sum of Mulliken charges =  -1.00000

 Dipole moment (field-independent basis, Debye):
    X=             -3.9583    Y=             -4.7525    Z=              1.2173  Tot=              6.3036

 Test job not archived.
 1\1\GINC-SE424\SP\RHF\Aug-CC-pVDZ\C4H4F2N3(1-)\OHZDE\09-Apr-2025\0\\#t
  hf aug-cc-pvdz iop(5/13=1,5/36=2,99/5=2) pseudo=read geom=check guess
 =(read,tcheck) scf=(maxcycle=1)\\title\\-1,1\C,0,0.63232631,-0.0165355
 5,-0.02792327\H,0,1.77236411,1.77488227,-0.05680466\F,0,-1.12259575,0.
 0104696,-0.03054009\F,0,2.4461348,-0.24468184,0.02875675\C,0,0.7205798
 7,1.50434232,-0.02673175\H,0,0.28452477,1.82494701,0.93025367\C,0,0.65
 892271,-0.76099607,-1.27399505\N,0,0.64535695,-1.37349999,-2.27583785\
 C,0,0.62038692,-0.73711648,1.23310545\N,0,0.5767565,-1.27916606,2.2741

 Normal termination of Gaussian 16 at Wed Apr  9 02:48:08 2025.
