 Gaussian 16, Revision C.01,

 ----------------------------------------------------------------------
 #t hf aug-cc-pvdz symm=none int=(grid=ultrafine) guess=(read,tcheck) s
 table=(opt,rrhf)
 ----------------------------------------------------------------------
 -----
 title
 -----
 Symbolic Z-matrix:
 Charge = -1 Multiplicity = 1

 SCF Done:  E(RHF) =  -611.858487528     A.U. after   16 cycles
 Normal termination of Gaussian 16 at Wed Apr  9 02:47:21 2025.
 Gaussian 16:  ES64L-G16RevC.01  3-Jul-2019

 ----------------------------------------------------------------------
 #t hf aug-cc-pvdz iop(5/13=1,5/36=2,99/5=2) pseudo=read geom=check gue
 ss=(read,tcheck) scf=(maxcycle=1)
 ----------------------------------------------------------------------
 -----
 title
 -----
 Structure from the checkpoint file:  "E2SN2_255_mol2.chk"
 Charge = -1 Multiplicity = 1

                         Standard orientation:
 ---------------------------------------------------------------------
 Center     Atomic      Atomic             Coordinates (Angstroms)
 Number     Number       Type             X           Y           Z
 ---------------------------------------------------------------------
      1          6           0       -0.734596    0.508471    0.337268
      2          6           0       -0.022701   -0.622228   -0.389075
      3          9           0       -0.620308    0.361876    1.723824
      4          1           0       -0.244691   -0.481451   -1.445673
      5          1           0       -1.806007    0.335954   -0.021377
      6          6           0       -0.209979    1.826916   -0.020927
      7          7           0        0.171061    2.901520   -0.306057
      8          6           0       -0.523959   -1.968562    0.087194
      9          1           0       -1.597551   -1.924968   -0.123346
     10          1           0       -0.046981   -2.777133   -0.473538
     11          1           0       -0.325543   -2.099255    1.149994
     12          7           0        1.463804   -0.502391   -0.252833
     13          8           0        1.974899   -0.846405    0.813105
     14          8           0        2.089419   -0.041122   -1.211294
     15          9           0       -2.823071   -0.496812   -0.843278
 ---------------------------------------------------------------------

 SCF Done:  E(RHF) =  -612.443087594     A.U. after    2 cycles

 The electronic state is 1-A.
 Alpha  occ. eigenvalues --  -26.34333 -26.11558 -20.47910 -20.47811 -15.66758
 Alpha  occ. eigenvalues --  -15.41080 -11.22632 -11.19474 -11.17736 -11.11389
 Alpha  occ. eigenvalues --   -1.54578  -1.46373  -1.38447  -1.18139  -1.11169
 Alpha  occ. eigenvalues --   -1.04159  -0.88538  -0.85804  -0.72744  -0.66875
 Alpha  occ. eigenvalues --   -0.64676  -0.63016  -0.61161  -0.57079  -0.54805
 Alpha  occ. eigenvalues --   -0.50683  -0.47612  -0.45718  -0.44709  -0.43360
 Alpha  occ. eigenvalues --   -0.41547  -0.38841  -0.38344  -0.37075  -0.36119
 Alpha  occ. eigenvalues --   -0.33537  -0.27987  -0.27636  -0.25942
 Alpha virt. eigenvalues --    0.12810   0.14277   0.15789   0.16640   0.16890
 Alpha virt. eigenvalues --    0.17354   0.19509   0.21630   0.22255   0.22891
 Alpha virt. eigenvalues --    0.23769   0.24286   0.24877   0.25469   0.26466

 Mulliken charges:
               1
     1  C    2.006138
     2  C   -1.420575
     3  F   -0.889791
     4  H    0.130357
     5  H    0.448204
     6  C   -2.025824
     7  N    0.951523
     8  C    0.081765
     9  H    0.308808
    10  H    0.162505
    11  H    0.267252
    12  N    2.834977
    13  O   -1.444670
    14  O   -1.411374
    15  F   -0.999295
 Sum of Mulliken charges =  -1.00000

 Dipole moment (field-independent basis, Debye):
    X=              4.1971    Y=             -3.0176    Z=              1.8890  Tot=              5.5036

 Test job not archived.
 1\1\GINC-SE332\SP\RHF\Aug-CC-pVDZ\C4H5F2N2O2(1-)\OHZDE\09-Apr-2025\0\\
 #t hf aug-cc-pvdz iop(5/13=1,5/36=2,99/5=2) pseudo=read geom=check gue
 ss=(read,tcheck) scf=(maxcycle=1)\\title\\-1,1\C,0,-0.156833,0.027329,
 0.039471\C,0,-0.512323,0.295921,-1.414604\F,0,1.001619,-0.751084,0.135
 138\H,0,-1.467688,0.817803,-1.394279\H,0,-1.085572,-0.550433,0.371052\
 C,0,0.062495,1.256813,0.802417\N,0,0.220119,2.225229,1.449403\C,0,-0.6
 27632,-0.999201,-2.189246\H,0,-1.404372,-1.547571,-1.646299\H,0,-0.933
 47,-0.804642,-3.220908\H,0,0.320828,-1.534378,-2.187858\N,0,0.466535,1

 Normal termination of Gaussian 16 at Wed Apr  9 02:47:27 2025.
