 Gaussian 16, Revision C.01,

 ----------------------------------------------------------------------
 #t hf aug-cc-pvdz symm=none int=(grid=ultrafine) guess=(read,tcheck) s
 table=(opt,rrhf)
 ----------------------------------------------------------------------
 -----
 title
 -----
 Symbolic Z-matrix:
 Charge = -1 Multiplicity = 1

 SCF Done:  E(RHF) =  -971.938413864     A.U. after   17 cycles
 Normal termination of Gaussian 16 at Wed Apr  9 02:48:53 2025.
 Gaussian 16:  ES64L-G16RevC.01  3-Jul-2019

 ----------------------------------------------------------------------
 #t hf aug-cc-pvdz iop(5/13=1,5/36=2,99/5=2) pseudo=read geom=check gue
 ss=(read,tcheck) scf=(maxcycle=1)
 ----------------------------------------------------------------------
 -----
 title
 -----
 Structure from the checkpoint file:  "E2SN2_263_mol2.chk"
 Charge = -1 Multiplicity = 1

                         Standard orientation:
 ---------------------------------------------------------------------
 Center     Atomic      Atomic             Coordinates (Angstroms)
 Number     Number       Type             X           Y           Z
 ---------------------------------------------------------------------
      1          6           0       -0.725690    0.129154    0.049221
      2          6           0       -0.729875   -0.741439   -1.178129
      3          9           0       -2.036367    0.537637    0.312889
      4          1           0       -1.318569   -0.205105   -1.926447
      5          1           0        0.302312   -0.822367   -1.515347
      6          6           0       -0.245615   -0.499423    1.283741
      7          7           0       -0.168543   -1.025971    2.332103
      8          7           0       -0.012654    1.458332   -0.173560
      9          8           0        0.035844    1.866568   -1.326804
     10          8           0        0.317975    2.072197    0.832385
     11          6           0       -1.313358   -2.116793   -0.876202
     12          1           0       -1.434196   -2.678938   -1.805278
     13          1           0       -0.637801   -2.677771   -0.228292
     14          1           0       -2.290179   -2.045446   -0.390820
     15         17           0        2.366517   -0.680868   -0.222121
 ---------------------------------------------------------------------

 SCF Done:  E(RHF) =  -972.508811709     A.U. after    2 cycles

 The electronic state is 1-A.
 Alpha  occ. eigenvalues -- -105.28085 -26.39239 -20.48805 -20.48780 -15.68529
 Alpha  occ. eigenvalues --  -15.41684 -11.32821 -11.18744 -11.14132 -11.13535
 Alpha  occ. eigenvalues --  -10.32719  -7.49492  -7.49450  -7.49442  -1.56397
 Alpha  occ. eigenvalues --   -1.51402  -1.40207  -1.11643  -1.03906  -0.93968
 Alpha  occ. eigenvalues --   -0.82153  -0.77594  -0.73831  -0.71084  -0.67276
 Alpha  occ. eigenvalues --   -0.64194  -0.61723  -0.58139  -0.54872  -0.52860
 Alpha  occ. eigenvalues --   -0.50233  -0.49101  -0.45536  -0.42415  -0.41360
 Alpha  occ. eigenvalues --   -0.40098  -0.39075  -0.37846  -0.37379  -0.33944
 Alpha  occ. eigenvalues --   -0.21007  -0.20572  -0.20422
 Alpha virt. eigenvalues --    0.11318   0.13026   0.13210   0.16161   0.16552
 Alpha virt. eigenvalues --    0.17912   0.18568   0.19700   0.21537   0.22820
 Alpha virt. eigenvalues --    0.22940   0.23919   0.24270   0.24603   0.25041

 Mulliken charges:
               1
     1  C    1.064023
     2  C   -0.070693
     3  F   -1.006085
     4  H    0.254223
     5  H    0.279150
     6  C   -1.923655
     7  N    1.135764
     8  N    3.079160
     9  O   -1.539402
    10  O   -1.485169
    11  C   -0.357376
    12  H    0.074312
    13  H    0.266901
    14  H    0.213544
    15  Cl  -0.984697
 Sum of Mulliken charges =  -1.00000

 Dipole moment (field-independent basis, Debye):
    X=             -9.0132    Y=              0.6084    Z=             -2.9688  Tot=              9.5091

 Test job not archived.
 1\1\GINC-SE127\SP\RHF\Aug-CC-pVDZ\C4H5Cl1F1N2O2(1-)\OHZDE\09-Apr-2025\
 0\\#t hf aug-cc-pvdz iop(5/13=1,5/36=2,99/5=2) pseudo=read geom=check
 guess=(read,tcheck) scf=(maxcycle=1)\\title\\-1,1\C,0,-0.068751,-0.003
 771,-0.006509\C,0,-0.488242,0.258565,-1.427615\F,0,1.327818,-0.002866,
 0.055513\H,0,0.107804,-0.415732,-2.047493\H,0,-1.540704,-0.009985,-1.5
 04297\C,0,-0.514908,0.976163,0.988626\N,0,-0.577914,1.865907,1.754552\
 N,0,-0.410934,-1.415144,0.457929\O,0,-0.515481,-2.267849,-0.414392\O,0
 ,-0.405334,-1.604981,1.667062\C,0,-0.270063,1.718858,-1.80597\H,0,-0.4

 Normal termination of Gaussian 16 at Wed Apr  9 02:49:01 2025.
