 Gaussian 16, Revision C.01,

 ----------------------------------------------------------------------
 #t hf aug-cc-pvdz symm=none int=(grid=ultrafine) guess=(read,tcheck) s
 table=(opt,rrhf)
 ----------------------------------------------------------------------
 -----
 title
 -----
 Symbolic Z-matrix:
 Charge = -1 Multiplicity = 1

 SCF Done:  E(RHF) =  -364.427383063     A.U. after   15 cycles
 Normal termination of Gaussian 16 at Wed Apr  9 02:46:45 2025.
 Gaussian 16:  ES64L-G16RevC.01  3-Jul-2019

 ----------------------------------------------------------------------
 #t hf aug-cc-pvdz iop(5/13=1,5/36=2,99/5=2) pseudo=read geom=check gue
 ss=(read,tcheck) scf=(maxcycle=1)
 ----------------------------------------------------------------------
 -----
 title
 -----
 Structure from the checkpoint file:  "E2SN2_257_mol2.chk"
 Charge = -1 Multiplicity = 1

                         Standard orientation:
 ---------------------------------------------------------------------
 Center     Atomic      Atomic             Coordinates (Angstroms)
 Number     Number       Type             X           Y           Z
 ---------------------------------------------------------------------
      1          6           0       -0.374368    0.365192    0.611358
      2          6           0        1.036296    0.182689    0.075877
      3          9           0       -0.829829    1.665945    0.352685
      4          1           0        1.622950    0.954911    0.601903
      5          1           0       -0.311336    0.213517    1.700489
      6          6           0       -1.328297   -0.566058   -0.008439
      7          7           0       -2.136328   -1.248933   -0.518016
      8          6           0        1.124848    0.388092   -1.426228
      9          1           0        0.560442   -0.390804   -1.945808
     10          1           0        2.168118    0.328278   -1.754311
     11          1           0        0.733706    1.367868   -1.711947
     12          7           0        1.406359   -1.167554    0.472125
     13          1           0        1.443890   -1.115504    1.515096
     14          1           0        2.357880   -1.341071    0.159336
     15          1           0        1.251716   -0.314769    3.066913
 ---------------------------------------------------------------------

 SCF Done:  E(RHF) =  -364.796936458     A.U. after    2 cycles

 The electronic state is 1-A.
 Alpha  occ. eigenvalues --  -26.34145 -15.40088 -15.34099 -11.22234 -11.17024
 Alpha  occ. eigenvalues --  -11.14544 -11.11746  -1.46093  -1.10439  -1.06407
 Alpha  occ. eigenvalues --   -0.91172  -0.85750  -0.71694  -0.62396  -0.58902
 Alpha  occ. eigenvalues --   -0.56592  -0.53342  -0.51888  -0.49562  -0.46493
 Alpha  occ. eigenvalues --   -0.44288  -0.42464  -0.40621  -0.40181  -0.37747
 Alpha  occ. eigenvalues --   -0.35371  -0.30204  -0.09795
 Alpha virt. eigenvalues --    0.11921   0.13243   0.14101   0.15518   0.16195
 Alpha virt. eigenvalues --    0.17130   0.18354   0.20585   0.21606   0.23074
 Alpha virt. eigenvalues --    0.23137   0.24240   0.24674   0.25564   0.26011

 Mulliken charges:
               1
     1  C    1.877665
     2  C   -2.124728
     3  F   -0.857316
     4  H    0.142855
     5  H    0.198147
     6  C   -1.750075
     7  N    0.890103
     8  C   -0.084943
     9  H    0.283158
    10  H    0.097222
    11  H    0.210603
    12  N    0.600190
    13  H    0.136617
    14  H    0.193988
    15  H   -0.813484
 Sum of Mulliken charges =  -1.00000

 Dipole moment (field-independent basis, Debye):
    X=             -0.0485    Y=              3.3101    Z=             -9.3585  Tot=              9.9267

 Test job not archived.
 1\1\GINC-SE367\SP\RHF\Aug-CC-pVDZ\C4H8F1N2(1-)\OHZDE\09-Apr-2025\0\\#t
  hf aug-cc-pvdz iop(5/13=1,5/36=2,99/5=2) pseudo=read geom=check guess
 =(read,tcheck) scf=(maxcycle=1)\\title\\-1,1\C,0,-0.227559,0.322711,0.
 078796\C,0,-0.631015,-0.091348,-1.326835\F,0,1.163625,0.478082,0.16115
 4\H,0,-0.08362,-1.034497,-1.494228\H,0,-0.540049,-0.498913,0.742475\C,
 0,-0.836967,1.599707,0.477867\N,0,-1.252904,2.643902,0.8178\C,0,-0.241
 253,0.935526,-2.375628\H,0,-0.800764,1.861858,-2.220542\H,0,-0.476478,
 0.559789,-3.377187\H,0,0.829641,1.150361,-2.335382\N,0,-2.071012,-0.28

 Normal termination of Gaussian 16 at Wed Apr  9 02:46:49 2025.
