 Gaussian 16, Revision C.01,

 ----------------------------------------------------------------------
 #t hf aug-cc-pvdz symm=none int=(grid=ultrafine) guess=(read,tcheck) s
 table=(opt,rrhf)
 ----------------------------------------------------------------------
 -----
 title
 -----
 Symbolic Z-matrix:
 Charge = -1 Multiplicity = 1

 SCF Done:  E(RHF) =  -825.752730435     A.U. after   15 cycles
 Normal termination of Gaussian 16 at Wed Apr  9 02:38:21 2025.
 Gaussian 16:  ES64L-G16RevC.01  3-Jul-2019

 ----------------------------------------------------------------------
 #t hf aug-cc-pvdz iop(5/13=1,5/36=2,99/5=2) pseudo=read geom=check gue
 ss=(read,tcheck) scf=(maxcycle=1)
 ----------------------------------------------------------------------
 -----
 title
 -----
 Structure from the checkpoint file:  "E2SN2_159_mol1.chk"
 Charge = -1 Multiplicity = 1

                         Standard orientation:
 ---------------------------------------------------------------------
 Center     Atomic      Atomic             Coordinates (Angstroms)
 Number     Number       Type             X           Y           Z
 ---------------------------------------------------------------------
      1          6           0       -0.169204   -0.505283    0.042447
      2          6           0        0.619374    0.682064    0.159169
      3         17           0       -2.213021    0.075008   -0.228421
      4          9           0        2.752601   -0.710426   -0.074542
      5          1           0        1.848731   -0.051701    0.151731
      6          7           0        0.030950   -1.322733   -1.136548
      7          1           0        1.039173   -1.482563   -1.153091
      8          1           0       -0.205901   -0.771662   -1.952477
      9          6           0       -0.274383   -1.368523    1.273102
     10          1           0       -0.991079   -2.168560    1.092167
     11          1           0        0.720211   -1.798259    1.439789
     12          1           0       -0.554863   -0.778678    2.141604
     13          7           0        0.360772    1.408956    1.393548
     14          1           0       -0.515576    1.922159    1.284834
     15          1           0        1.097625    2.090182    1.536179
     16          6           0        0.722944    1.555127   -1.077507
     17          1           0       -0.257298    1.978813   -1.346320
     18          1           0        1.413202    2.383881   -0.883905
     19          1           0        1.119284    1.011226   -1.938756
 ---------------------------------------------------------------------

 SCF Done:  E(RHF) =  -826.216949059     A.U. after    2 cycles

 The electronic state is 1-A.
 Alpha  occ. eigenvalues -- -105.34234 -26.18768 -15.35002 -15.33924 -11.18767
 Alpha  occ. eigenvalues --  -11.08331 -11.08263 -11.06502 -10.39015  -7.55857
 Alpha  occ. eigenvalues --   -7.55670  -7.55668  -1.27652  -1.07719  -1.02604
 Alpha  occ. eigenvalues --   -0.88021  -0.84320  -0.80372  -0.72991  -0.60633
 Alpha  occ. eigenvalues --   -0.56706  -0.54406  -0.50960  -0.48573  -0.46544
 Alpha  occ. eigenvalues --   -0.43534  -0.41811  -0.41481  -0.40557  -0.37365
 Alpha  occ. eigenvalues --   -0.35629  -0.35334  -0.32069  -0.31025  -0.28146
 Alpha  occ. eigenvalues --   -0.26222  -0.25888  -0.16377
 Alpha virt. eigenvalues --    0.12878   0.13699   0.14213   0.15183   0.15225
 Alpha virt. eigenvalues --    0.15713   0.16084   0.17135   0.18096   0.18600
 Alpha virt. eigenvalues --    0.19471   0.22691   0.22833   0.25211   0.26079

 Mulliken charges:
               1
     1  C   -2.570661
     2  C   -1.725939
     3  Cl  -0.532286
     4  F   -1.094690
     5  H    1.318073
     6  N    0.842222
     7  H    0.192555
     8  H    0.281997
     9  C    0.133601
    10  H    0.157617
    11  H    0.238609
    12  H    0.279336
    13  N    0.693336
    14  H    0.197803
    15  H    0.183545
    16  C   -0.007722
    17  H    0.209947
    18  H    0.083648
    19  H    0.119012
 Sum of Mulliken charges =  -1.00000

 Dipole moment (field-independent basis, Debye):
    X=             -0.0937    Y=              1.9847    Z=             -0.2582  Tot=              2.0036

 Test job not archived.
 1\1\GINC-SE423\SP\RHF\Aug-CC-pVDZ\C4H11Cl1F1N2(1-)\OHZDE\09-Apr-2025\0
 \\#t hf aug-cc-pvdz iop(5/13=1,5/36=2,99/5=2) pseudo=read geom=check g
 uess=(read,tcheck) scf=(maxcycle=1)\\title\\-1,1\C,0,-0.29936666,0.051
 73653,-0.27377985\C,0,-0.26299919,0.09036677,1.15536572\Cl,0,1.7181838
 6,0.02456696,-0.99214245\F,0,-2.77190379,-0.40316723,1.23364876\H,0,-1
 .6819045,-0.06687874,1.26383616\N,0,-0.8156767,-1.15166421,-0.89310706
 \H,0,-1.72275283,-1.2859823,-0.44421272\H,0,-0.22329694,-1.92859322,-0
 .62667508\C,0,-0.83698724,1.27643893,-0.96791685\H,0,-0.70114642,1.170

 Normal termination of Gaussian 16 at Wed Apr  9 02:38:30 2025.
