 Gaussian 16, Revision C.01,

 ----------------------------------------------------------------------
 #t hf aug-cc-pvdz symm=none int=(grid=ultrafine) guess=(read,tcheck) s
 table=(opt,rrhf)
 ----------------------------------------------------------------------
 -----
 title
 -----
 Symbolic Z-matrix:
 Charge = -1 Multiplicity = 1

 SCF Done:  E(RHF) =  -1024.58133226     A.U. after   17 cycles
 Normal termination of Gaussian 16 at Wed Apr  9 02:43:24 2025.
 Gaussian 16:  ES64L-G16RevC.01  3-Jul-2019

 ----------------------------------------------------------------------
 #t hf aug-cc-pvdz iop(5/13=1,5/36=2,99/5=2) pseudo=read geom=check gue
 ss=(read,tcheck) scf=(maxcycle=1)
 ----------------------------------------------------------------------
 -----
 title
 -----
 Structure from the checkpoint file:  "E2SN2_215_mol1.chk"
 Charge = -1 Multiplicity = 1

                         Standard orientation:
 ---------------------------------------------------------------------
 Center     Atomic      Atomic             Coordinates (Angstroms)
 Number     Number       Type             X           Y           Z
 ---------------------------------------------------------------------
      1          6           0       -0.374310    0.417343   -0.380592
      2          1           0        0.681842    0.949370    1.345512
      3         17           0       -0.306780   -1.473066   -1.362338
      4          9           0       -0.520046    2.173970    0.245922
      5          6           0        0.885989    0.328363    0.471130
      6          1           0       -0.431076    0.918508   -1.325571
      7          7           0       -1.644930    0.182725    0.327450
      8          8           0       -1.564198   -0.223753    1.483805
      9          8           0       -2.676058    0.407516   -0.288595
     10          6           0        1.980683    0.964329   -0.265307
     11          7           0        2.876392    1.472991   -0.827692
     12          6           0        1.307016   -0.994418    0.952004
     13          7           0        1.735779   -1.963616    1.457587
 ---------------------------------------------------------------------

 SCF Done:  E(RHF) =  -1025.19029986     A.U. after    2 cycles

 The electronic state is 1-A.
 Alpha  occ. eigenvalues -- -105.39728 -26.20003 -20.48305 -20.48244 -15.68994
 Alpha  occ. eigenvalues --  -15.43251 -15.42365 -11.31210 -11.24600 -11.20696
 Alpha  occ. eigenvalues --  -11.20004 -10.44559  -7.61416  -7.61183  -7.61172
 Alpha  occ. eigenvalues --   -1.55960  -1.39891  -1.28356  -1.14118  -1.12420
 Alpha  occ. eigenvalues --   -1.06044  -0.97077  -0.86611  -0.76400  -0.71190
 Alpha  occ. eigenvalues --   -0.66100  -0.65346  -0.63500  -0.61424  -0.56345
 Alpha  occ. eigenvalues --   -0.51993  -0.51083  -0.42746  -0.42061  -0.41283
 Alpha  occ. eigenvalues --   -0.40015  -0.39666  -0.38803  -0.37971  -0.36213
 Alpha  occ. eigenvalues --   -0.35935  -0.33864  -0.31515  -0.30949  -0.28973
 Alpha virt. eigenvalues --    0.13945   0.14811   0.15491   0.17219   0.17995
 Alpha virt. eigenvalues --    0.19463   0.20992   0.21506   0.22686   0.23116
 Alpha virt. eigenvalues --    0.23693   0.24143   0.24714   0.24923   0.25354

 Mulliken charges:
               1
     1  C   -0.036739
     2  H    0.587576
     3  Cl  -0.456545
     4  F   -0.877993
     5  C    0.765267
     6  H   -0.044255
     7  N    3.215584
     8  O   -1.460282
     9  O   -1.549104
    10  C   -1.519155
    11  N    0.994693
    12  C   -1.619862
    13  N    1.000815
 Sum of Mulliken charges =  -1.00000

 Dipole moment (field-independent basis, Debye):
    X=             -0.7681    Y=              0.1800    Z=              0.4709  Tot=              0.9187

 Test job not archived.
 1\1\GINC-SE208\SP\RHF\Aug-CC-pVDZ\C4H2Cl1F1N3O2(1-)\OHZDE\09-Apr-2025\
 0\\#t hf aug-cc-pvdz iop(5/13=1,5/36=2,99/5=2) pseudo=read geom=check
 guess=(read,tcheck) scf=(maxcycle=1)\\title\\-1,1\C,0,0.37109203,-0.06
 573999,-0.0592529\H,0,1.66226434,1.53862332,-0.42916717\Cl,0,-1.694050
 93,-0.16176952,-0.57693596\F,0,2.12734183,-0.17199903,0.57619403\C,0,0
 .60899915,1.43584537,-0.16095507\H,0,0.17710784,-0.58632574,0.85657219
 \N,0,0.85636405,-0.87041914,-1.19408577\O,0,1.24966098,-0.25174014,-2.
 17970894\O,0,0.82795629,-2.08558606,-1.0682639\C,0,0.44371467,2.015818

 Normal termination of Gaussian 16 at Wed Apr  9 02:43:32 2025.
