 Gaussian 16, Revision C.01,

 ----------------------------------------------------------------------
 #t hf aug-cc-pvdz symm=none int=(grid=ultrafine) guess=(read,tcheck) s
 table=(opt,rrhf)
 ----------------------------------------------------------------------
 -----
 title
 -----
 Symbolic Z-matrix:
 Charge = -1 Multiplicity = 1

 SCF Done:  E(RHF) =  -987.861386156     A.U. after   16 cycles
 Normal termination of Gaussian 16 at Wed Apr  9 02:47:26 2025.
 Gaussian 16:  ES64L-G16RevC.01  3-Jul-2019

 ----------------------------------------------------------------------
 #t hf aug-cc-pvdz iop(5/13=1,5/36=2,99/5=2) pseudo=read geom=check gue
 ss=(read,tcheck) scf=(maxcycle=1)
 ----------------------------------------------------------------------
 -----
 title
 -----
 Structure from the checkpoint file:  "E2SN2_25_mol1.chk"
 Charge = -1 Multiplicity = 1

                         Standard orientation:
 ---------------------------------------------------------------------
 Center     Atomic      Atomic             Coordinates (Angstroms)
 Number     Number       Type             X           Y           Z
 ---------------------------------------------------------------------
      1          6           0       -0.367660    0.137553   -0.229504
      2          6           0        0.873283   -0.247684   -0.918839
      3         17           0       -1.877771   -0.858817   -0.673202
      4          9           0        3.188771    0.414183   -0.353641
      5          1           0        1.982940    0.359789   -0.536873
      6          1           0        0.760071   -0.005047   -1.985588
      7          7           0       -0.189926   -0.021994    1.292191
      8          8           0        0.384683    0.919424    1.829575
      9          8           0       -0.558139   -1.050039    1.832889
     10          7           0        1.245660   -1.615571   -0.611461
     11          1           0        2.255913   -1.610438   -0.539693
     12          1           0        0.954140   -2.267081   -1.329004
     13          6           0       -0.735260    1.524871   -0.496585
     14          7           0       -1.050650    2.630638   -0.739558
 ---------------------------------------------------------------------

 SCF Done:  E(RHF) =  -988.445894893     A.U. after    2 cycles

 The electronic state is 1-A.
 Alpha  occ. eigenvalues -- -105.46312 -26.15446 -20.48313 -20.47839 -15.67914
 Alpha  occ. eigenvalues --  -15.42743 -15.35173 -11.29154 -11.19804 -11.10338
 Alpha  occ. eigenvalues --  -10.51099  -7.68030  -7.67650  -7.67647  -1.55528
 Alpha  occ. eigenvalues --   -1.39613  -1.23557  -1.13246  -1.08081  -1.02229
 Alpha  occ. eigenvalues --   -0.91779  -0.83407  -0.74910  -0.69839  -0.63604
 Alpha  occ. eigenvalues --   -0.62224  -0.58294  -0.53598  -0.51693  -0.49638
 Alpha  occ. eigenvalues --   -0.48259  -0.43291  -0.41334  -0.40080  -0.39085
 Alpha  occ. eigenvalues --   -0.37939  -0.35935  -0.34899  -0.33549  -0.32261
 Alpha  occ. eigenvalues --   -0.31946  -0.30282  -0.21698
 Alpha virt. eigenvalues --    0.13244   0.14443   0.16117   0.16760   0.17242
 Alpha virt. eigenvalues --    0.18469   0.19642   0.21709   0.21943   0.22696
 Alpha virt. eigenvalues --    0.23508   0.23907   0.24589   0.25272   0.26149

 Mulliken charges:
               1
     1  C   -0.399557
     2  C   -0.814660
     3  Cl   0.057664
     4  F   -1.069414
     5  H    0.863040
     6  H    0.057087
     7  N    3.048491
     8  O   -1.452128
     9  O   -1.464850
    10  N    0.227811
    11  H    0.236686
    12  H    0.151823
    13  C   -1.425890
    14  N    0.983897
 Sum of Mulliken charges =  -1.00000

 Dipole moment (field-independent basis, Debye):
    X=             -5.5640    Y=             -3.6394    Z=             -1.3356  Tot=              6.7814

 Test job not archived.
 1\1\GINC-SE459\SP\RHF\Aug-CC-pVDZ\C3H4Cl1F1N3O2(1-)\OHZDE\09-Apr-2025\
 0\\#t hf aug-cc-pvdz iop(5/13=1,5/36=2,99/5=2) pseudo=read geom=check
 guess=(read,tcheck) scf=(maxcycle=1)\\title\\-1,1\C,0,-0.07616289,0.07
 773684,-0.37258675\C,0,-0.34425148,0.01871585,1.07246485\Cl,0,1.715683
 3,-0.05215886,-0.86499798\F,0,-2.5198652,-0.32933916,2.19699451\H,0,-1
 .61178414,-0.01290461,1.44478466\H,0,0.07293991,0.92574118,1.53387602\
 N,0,-0.79379931,-1.08483542,-1.08393987\O,0,-1.98146344,-0.87566247,-1
 .30960883\O,0,-0.18322612,-2.11422653,-1.31277523\N,0,0.09072051,-1.24

 Normal termination of Gaussian 16 at Wed Apr  9 02:47:33 2025.
