 Gaussian 16, Revision C.01,

 ----------------------------------------------------------------------
 #t hf aug-cc-pvdz symm=none int=(grid=ultrafine) guess=(read,tcheck) s
 table=(opt,rrhf)
 ----------------------------------------------------------------------
 -----
 title
 -----
 Symbolic Z-matrix:
 Charge = -1 Multiplicity = 1

 SCF Done:  E(RHF) =  -403.466901165     A.U. after   16 cycles
 Normal termination of Gaussian 16 at Wed Apr  9 02:50:15 2025.
 Gaussian 16:  ES64L-G16RevC.01  3-Jul-2019

 ----------------------------------------------------------------------
 #t hf aug-cc-pvdz iop(5/13=1,5/36=2,99/5=2) pseudo=read geom=check gue
 ss=(read,tcheck) scf=(maxcycle=1)
 ----------------------------------------------------------------------
 -----
 title
 -----
 Structure from the checkpoint file:  "E2SN2_285_mol2.chk"
 Charge = -1 Multiplicity = 1

                         Standard orientation:
 ---------------------------------------------------------------------
 Center     Atomic      Atomic             Coordinates (Angstroms)
 Number     Number       Type             X           Y           Z
 ---------------------------------------------------------------------
      1          6           0        0.334914   -0.445067    0.048656
      2          6           0       -0.811730    0.379201   -0.587675
      3          9           0        0.520986   -1.608893   -0.736451
      4          1           0       -0.562157    0.407782   -1.659548
      5          6           0        1.591450    0.319667   -0.090147
      6          7           0        2.591907    0.917958   -0.234680
      7          6           0        0.098699   -0.852661    1.484453
      8          1           0       -0.293712   -0.001974    2.067299
      9          1           0        1.016959   -1.244819    1.929454
     10          1           0       -0.659126   -1.638692    1.493981
     11          7           0       -0.934526    1.730044   -0.087114
     12          1           0       -0.060318    2.234813   -0.187461
     13          1           0       -1.187660    1.723310    0.924299
     14          6           0       -2.145066   -0.333806   -0.401162
     15          1           0       -2.081308   -1.389398   -0.679017
     16          1           0       -2.464306   -0.236131    0.638674
     17          1           0       -2.891483    0.158090   -1.028499
     18          1           0       -1.517026    1.527046    2.656676
 ---------------------------------------------------------------------

 SCF Done:  E(RHF) =  -403.879690721     A.U. after    2 cycles

 The electronic state is 1-A.
 Alpha  occ. eigenvalues --  -26.35048 -15.41736 -15.33886 -11.24710 -11.18278
 Alpha  occ. eigenvalues --  -11.15571 -11.11121 -11.10719  -1.46945  -1.12048
 Alpha  occ. eigenvalues --   -1.06449  -0.94997  -0.87267  -0.80733  -0.70639
 Alpha  occ. eigenvalues --   -0.62961  -0.58374  -0.57578  -0.54920  -0.51731
 Alpha  occ. eigenvalues --   -0.49081  -0.47826  -0.45251  -0.43998  -0.42683
 Alpha  occ. eigenvalues --   -0.41683  -0.40965  -0.39238  -0.38447  -0.37375
 Alpha  occ. eigenvalues --   -0.29490  -0.09205
 Alpha virt. eigenvalues --    0.12249   0.12609   0.13296   0.14368   0.15714
 Alpha virt. eigenvalues --    0.16236   0.17747   0.18386   0.19417   0.21390
 Alpha virt. eigenvalues --    0.21744   0.22429   0.22861   0.23832   0.24662

 Mulliken charges:
               1
     1  C    1.617821
     2  C   -1.943275
     3  F   -1.013210
     4  H   -0.038510
     5  C   -2.281228
     6  N    1.089080
     7  C    0.041056
     8  H    0.174150
     9  H    0.118572
    10  H    0.227926
    11  N    0.870742
    12  H    0.262911
    13  H    0.021787
    14  C    0.177597
    15  H    0.154359
    16  H    0.206186
    17  H    0.089289
    18  H   -0.775252
 Sum of Mulliken charges =  -1.00000

 Dipole moment (field-independent basis, Debye):
    X=              2.3663    Y=             -7.3355    Z=             -7.9140  Tot=             11.0472

 Test job not archived.
 1\1\GINC-SE164\SP\RHF\Aug-CC-pVDZ\C5H10F1N2(1-)\OHZDE\09-Apr-2025\0\\#
 t hf aug-cc-pvdz iop(5/13=1,5/36=2,99/5=2) pseudo=read geom=check gues
 s=(read,tcheck) scf=(maxcycle=1)\\title\\-1,1\C,0,0.067227,0.046413,-0
 .005054\C,0,-0.356511,0.075022,-1.494602\F,0,1.455562,-0.228113,0.0465
 94\H,0,0.402339,0.707978,-1.979916\C,0,-0.078038,1.409072,0.547239\N,0
 ,-0.163422,2.501717,0.96984\C,0,-0.66671,-0.96769,0.841336\H,0,-1.7484
 2,-0.939441,0.625769\H,0,-0.472104,-0.796009,1.903254\H,0,-0.301266,-1
 .961266,0.57396\N,0,-1.670068,0.627734,-1.738516\H,0,-1.749446,1.56031

 Normal termination of Gaussian 16 at Wed Apr  9 02:50:23 2025.
