 Gaussian 16, Revision C.01,

 ----------------------------------------------------------------------
 #t hf aug-cc-pvdz symm=none int=(grid=ultrafine) guess=(read,tcheck) s
 table=(opt,rrhf)
 ----------------------------------------------------------------------
 -----
 title
 -----
 Symbolic Z-matrix:
 Charge = -1 Multiplicity = 1

 SCF Done:  E(RHF) =  -366.703098708     A.U. after   16 cycles
 Normal termination of Gaussian 16 at Wed Apr  9 02:55:20 2025.
 Gaussian 16:  ES64L-G16RevC.01  3-Jul-2019

 ----------------------------------------------------------------------
 #t hf aug-cc-pvdz iop(5/13=1,5/36=2,99/5=2) pseudo=read geom=check gue
 ss=(read,tcheck) scf=(maxcycle=1)
 ----------------------------------------------------------------------
 -----
 title
 -----
 Structure from the checkpoint file:  "E2SN2_352_mol1.chk"
 Charge = -1 Multiplicity = 1

                         Standard orientation:
 ---------------------------------------------------------------------
 Center     Atomic      Atomic             Coordinates (Angstroms)
 Number     Number       Type             X           Y           Z
 ---------------------------------------------------------------------
      1          6           0       -0.593655    0.182874    0.185821
      2          1           0        0.985497   -0.150111    1.568070
      3          9           0       -0.708609   -0.980354   -1.093624
      4          1           0       -0.373433    1.463242    1.606488
      5          6           0        0.924602   -0.028454    0.480821
      6          6           0       -1.594084   -0.495894    1.107050
      7          1           0       -2.087646   -1.307721    0.562591
      8          1           0       -1.090163   -0.901110    1.988406
      9          1           0       -2.340731    0.212906    1.461478
     10          6           0       -1.112215    1.279928   -0.735955
     11          1           0       -1.424274    2.159746   -0.180050
     12          1           0       -0.319566    1.555152   -1.433459
     13          1           0       -1.950422    0.877979   -1.311557
     14          7           0        1.668306    1.133436    0.009706
     15          1           0        2.632819    0.987849    0.289291
     16          1           0        1.282491    1.905715    0.551193
     17          7           0        1.597309   -1.194836   -0.101858
     18          1           0        1.354064   -1.171560   -1.086166
     19          1           0        1.101650   -2.009827    0.244967
 ---------------------------------------------------------------------

 SCF Done:  E(RHF) =  -367.090524025     A.U. after    2 cycles

 The electronic state is 1-A.
 Alpha  occ. eigenvalues --  -26.17442 -15.32577 -15.32123 -11.16797 -11.12990
 Alpha  occ. eigenvalues --  -11.07405 -11.06383  -1.26272  -1.06450  -0.97124
 Alpha  occ. eigenvalues --   -0.89477  -0.78951  -0.72771  -0.60128  -0.55774
 Alpha  occ. eigenvalues --   -0.53927  -0.47243  -0.46281  -0.44172  -0.42173
 Alpha  occ. eigenvalues --   -0.42056  -0.39104  -0.38721  -0.35597  -0.33333
 Alpha  occ. eigenvalues --   -0.31656  -0.31245  -0.28721  -0.27142  -0.09636
 Alpha virt. eigenvalues --    0.13606   0.13867   0.14324   0.15186   0.15384
 Alpha virt. eigenvalues --    0.16091   0.16285   0.16637   0.18332   0.19029
 Alpha virt. eigenvalues --    0.19586   0.21694   0.23821   0.24702   0.25985

 Mulliken charges:
               1
     1  C   -0.666642
     2  H   -0.063846
     3  F   -0.974757
     4  H   -0.481781
     5  C   -2.493747
     6  C    0.140150
     7  H    0.297958
     8  H    0.168494
     9  H    0.182710
    10  C   -0.039726
    11  H    0.150833
    12  H    0.307224
    13  H    0.234444
    14  N    0.667097
    15  H    0.160101
    16  H    0.270892
    17  N    0.614796
    18  H    0.351659
    19  H    0.174142
 Sum of Mulliken charges =  -1.00000

 Dipole moment (field-independent basis, Debye):
    X=              0.0133    Y=             -2.3375    Z=             -1.3132  Tot=              2.6812

 Test job not archived.
 1\1\GINC-SE040\SP\RHF\Aug-CC-pVDZ\C4H12F1N2(1-)\OHZDE\09-Apr-2025\0\\#
 t hf aug-cc-pvdz iop(5/13=1,5/36=2,99/5=2) pseudo=read geom=check gues
 s=(read,tcheck) scf=(maxcycle=1)\\title\\-1,1\C,0,0.46245047,0.0078670
 5,-0.01259773\H,0,1.45837372,1.7062367,-0.81190154\F,0,-1.24239066,-0.
 05586317,-0.31714436\H,0,2.34997086,0.17167467,0.32881916\C,0,0.606668
 53,1.55707519,-0.13887333\C,0,0.86831277,-0.83972004,-1.20721819\H,0,-
 0.03015761,-1.26979062,-1.66207124\H,0,1.39662529,-0.23221533,-1.94664
 27\H,0,1.5437403,-1.63901308,-0.90650753\C,0,0.27190288,-0.69882572,1.

 Normal termination of Gaussian 16 at Wed Apr  9 02:55:28 2025.
