 Gaussian 16, Revision C.01,

 ----------------------------------------------------------------------
 #t hf aug-cc-pvdz symm=none int=(grid=ultrafine) guess=(read,tcheck) s
 table=(opt,rrhf)
 ----------------------------------------------------------------------
 -----
 title
 -----
 Symbolic Z-matrix:
 Charge = -1 Multiplicity = 1

 SCF Done:  E(RHF) =  -987.894915455     A.U. after   17 cycles
 Normal termination of Gaussian 16 at Wed Apr  9 02:40:22 2025.
 Gaussian 16:  ES64L-G16RevC.01  3-Jul-2019

 ----------------------------------------------------------------------
 #t hf aug-cc-pvdz iop(5/13=1,5/36=2,99/5=2) pseudo=read geom=check gue
 ss=(read,tcheck) scf=(maxcycle=1)
 ----------------------------------------------------------------------
 -----
 title
 -----
 Structure from the checkpoint file:  "E2SN2_180_mol1.chk"
 Charge = -1 Multiplicity = 1

                         Standard orientation:
 ---------------------------------------------------------------------
 Center     Atomic      Atomic             Coordinates (Angstroms)
 Number     Number       Type             X           Y           Z
 ---------------------------------------------------------------------
      1          6           0       -0.679888   -0.157393   -0.517333
      2          1           0        0.269464   -1.801545    0.356354
      3         17           0       -0.058215    1.895127   -0.456427
      4          9           0       -1.398937   -1.968046   -0.697032
      5          6           0        0.349546   -0.722686    0.462224
      6          1           0       -0.519929   -0.254060   -1.575315
      7          6           0       -2.005621    0.077428   -0.005331
      8          7           0       -3.055245    0.342366    0.453911
      9          7           0        0.221583   -0.343854    1.828907
     10          1           0       -0.612209   -0.783774    2.197819
     11          1           0        0.115959    0.662653    1.893340
     12          7           0        1.735631   -0.390512   -0.050764
     13          8           0        2.549735    0.129057    0.700765
     14          8           0        1.953866   -0.725072   -1.213437
 ---------------------------------------------------------------------

 SCF Done:  E(RHF) =  -988.480782480     A.U. after    2 cycles

 The electronic state is 1-A.
 Alpha  occ. eigenvalues -- -105.38695 -26.16707 -20.47736 -20.47031 -15.66746
 Alpha  occ. eigenvalues --  -15.39853 -15.39294 -11.26398 -11.23116 -11.17898
 Alpha  occ. eigenvalues --  -10.43515  -7.60369  -7.60152  -7.60139  -1.54651
 Alpha  occ. eigenvalues --   -1.38592  -1.24466  -1.13200  -1.09562  -0.98001
 Alpha  occ. eigenvalues --   -0.91972  -0.83087  -0.74805  -0.67517  -0.65102
 Alpha  occ. eigenvalues --   -0.63868  -0.61195  -0.58742  -0.56148  -0.50013
 Alpha  occ. eigenvalues --   -0.48226  -0.43641  -0.38730  -0.38514  -0.36946
 Alpha  occ. eigenvalues --   -0.35799  -0.35216  -0.33352  -0.32483  -0.31671
 Alpha  occ. eigenvalues --   -0.30500  -0.29890  -0.27923
 Alpha virt. eigenvalues --    0.13663   0.14622   0.15391   0.16247   0.17761
 Alpha virt. eigenvalues --    0.18615   0.19485   0.21857   0.22668   0.23150
 Alpha virt. eigenvalues --    0.23831   0.24886   0.25130   0.25920   0.26575

 Mulliken charges:
               1
     1  C    1.310690
     2  H    0.283642
     3  Cl  -0.551747
     4  F   -0.875775
     5  C   -1.712080
     6  H   -0.047167
     7  C   -1.706883
     8  N    0.914680
     9  N    0.707036
    10  H    0.328085
    11  H    0.296747
    12  N    2.973064
    13  O   -1.402075
    14  O   -1.518217
 Sum of Mulliken charges =  -1.00000

 Dipole moment (field-independent basis, Debye):
    X=              3.1459    Y=              0.1859    Z=              1.4953  Tot=              3.4882

 Test job not archived.
 1\1\GINC-SE367\SP\RHF\Aug-CC-pVDZ\C3H4Cl1F1N3O2(1-)\OHZDE\09-Apr-2025\
 0\\#t hf aug-cc-pvdz iop(5/13=1,5/36=2,99/5=2) pseudo=read geom=check
 guess=(read,tcheck) scf=(maxcycle=1)\\title\\-1,1\C,0,0.56160761,0.008
 65714,0.04905803\H,0,1.75110179,1.68532072,-0.32742245\Cl,0,-1.5794556
 ,-0.07730526,0.15622027\F,0,2.51268688,-0.11705523,-0.0235566\C,0,0.71
 054038,1.52708925,-0.05584799\H,0,0.61785795,-0.59616516,-0.83710361\C
 ,0,0.79526981,-0.58081971,1.34241553\N,0,0.90515697,-1.03089816,2.4232
 2996\N,0,0.37250463,2.29366943,1.09558518\H,0,1.06879418,2.11104257,1.

 Normal termination of Gaussian 16 at Wed Apr  9 02:40:28 2025.
