 Gaussian 16, Revision C.01,

 ----------------------------------------------------------------------
 #t hf aug-cc-pvdz symm=none int=(grid=ultrafine) guess=(read,tcheck) s
 table=(opt,rrhf)
 ----------------------------------------------------------------------
 -----
 title
 -----
 Symbolic Z-matrix:
 Charge = -1 Multiplicity = 1

 SCF Done:  E(RHF) =  -951.237378716     A.U. after   15 cycles
 Normal termination of Gaussian 16 at Wed Apr  9 02:42:14 2025.
 Gaussian 16:  ES64L-G16RevC.01  3-Jul-2019

 ----------------------------------------------------------------------
 #t hf aug-cc-pvdz iop(5/13=1,5/36=2,99/5=2) pseudo=read geom=check gue
 ss=(read,tcheck) scf=(maxcycle=1)
 ----------------------------------------------------------------------
 -----
 title
 -----
 Structure from the checkpoint file:  "E2SN2_205_mol2.chk"
 Charge = -1 Multiplicity = 1

                         Standard orientation:
 ---------------------------------------------------------------------
 Center     Atomic      Atomic             Coordinates (Angstroms)
 Number     Number       Type             X           Y           Z
 ---------------------------------------------------------------------
      1          6           0       -0.527491    0.748821   -0.140591
      2          6           0        0.071359   -0.569351   -0.645784
      3         17           0        0.806870    2.019752   -0.291617
      4          1           0        0.499214   -0.421592   -1.642206
      5          1           0       -1.275528    1.029029   -0.880325
      6          7           0       -1.150057    0.758956    1.121559
      7          1           0       -0.651351    0.156343    1.761646
      8          1           0       -2.100284    0.388347    0.916517
      9          7           0       -0.881976   -1.613604   -0.528273
     10          1           0       -0.872467   -2.192001   -1.356001
     11          1           0       -1.848865   -1.223219   -0.365106
     12          7           0        1.322736   -0.933938    0.162535
     13          8           0        2.351559   -1.174767   -0.472258
     14          8           0        1.229039   -1.008455    1.385165
     15          9           0       -3.156713   -0.351516   -0.150310
 ---------------------------------------------------------------------

 SCF Done:  E(RHF) =  -951.799987709     A.U. after    2 cycles

 The electronic state is 1-A.
 Alpha  occ. eigenvalues -- -105.42366 -26.12631 -20.46834 -20.46570 -15.65112
 Alpha  occ. eigenvalues --  -15.35525 -15.33781 -11.21151 -11.20869 -10.47258
 Alpha  occ. eigenvalues --   -7.64175  -7.63849  -7.63838  -1.53412  -1.37382
 Alpha  occ. eigenvalues --   -1.19728  -1.11301  -1.05241  -0.94841  -0.91014
 Alpha  occ. eigenvalues --   -0.78430  -0.71523  -0.63677  -0.62304  -0.61639
 Alpha  occ. eigenvalues --   -0.58735  -0.56826  -0.53850  -0.47979  -0.46164
 Alpha  occ. eigenvalues --   -0.42738  -0.37238  -0.36327  -0.34182  -0.32843
 Alpha  occ. eigenvalues --   -0.32320  -0.32261  -0.31465  -0.29102  -0.28332
 Alpha  occ. eigenvalues --   -0.27109
 Alpha virt. eigenvalues --    0.13276   0.14610   0.15938   0.16188   0.18025
 Alpha virt. eigenvalues --    0.18509   0.19024   0.19421   0.22055   0.23767
 Alpha virt. eigenvalues --    0.24789   0.24885   0.26025   0.27224   0.27763

 Mulliken charges:
               1
     1  C   -0.950824
     2  C   -1.219657
     3  Cl  -0.187006
     4  H   -0.005649
     5  H    0.194115
     6  N    0.441946
     7  H    0.202307
     8  H    0.349171
     9  N    0.736174
    10  H    0.260058
    11  H    0.224759
    12  N    2.900308
    13  O   -1.467269
    14  O   -1.457579
    15  F   -1.020853
 Sum of Mulliken charges =  -1.00000

 Dipole moment (field-independent basis, Debye):
    X=              4.7847    Y=             -0.1368    Z=             -2.3284  Tot=              5.3229

 Test job not archived.
 1\1\GINC-SE188\SP\RHF\Aug-CC-pVDZ\C2H6Cl1F1N3O2(1-)\OHZDE\09-Apr-2025\
 0\\#t hf aug-cc-pvdz iop(5/13=1,5/36=2,99/5=2) pseudo=read geom=check
 guess=(read,tcheck) scf=(maxcycle=1)\\title\\-1,1\C,0,-0.045961,-0.049
 307,-0.065117\C,0,-0.223183,-0.302272,-1.567122\Cl,0,1.773798,0.095382
 ,0.228373\H,0,0.306836,0.468301,-2.135492\H,0,-0.444838,0.948582,0.109
 233\N,0,-0.676212,-0.925188,0.838393\H,0,-0.651917,-1.870826,0.482387\
 H,0,-1.649922,-0.560829,0.876558\N,0,-1.598869,-0.464181,-1.874361\H,0
 ,-1.830328,0.035269,-2.720968\H,0,-2.203925,-0.132073,-1.075919\N,0,0.

 Normal termination of Gaussian 16 at Wed Apr  9 02:42:21 2025.
