 Gaussian 16, Revision C.01,

 ----------------------------------------------------------------------
 #t hf aug-cc-pvdz symm=none int=(grid=ultrafine) guess=(read,tcheck) s
 table=(opt,rrhf)
 ----------------------------------------------------------------------
 -----
 title
 -----
 Symbolic Z-matrix:
 Charge = -1 Multiplicity = 1

 SCF Done:  E(RHF) =  -1332.02550180     A.U. after   17 cycles
 Normal termination of Gaussian 16 at Wed Apr  9 02:50:08 2025.
 Gaussian 16:  ES64L-G16RevC.01  3-Jul-2019

 ----------------------------------------------------------------------
 #t hf aug-cc-pvdz iop(5/13=1,5/36=2,99/5=2) pseudo=read geom=check gue
 ss=(read,tcheck) scf=(maxcycle=1)
 ----------------------------------------------------------------------
 -----
 title
 -----
 Structure from the checkpoint file:  "E2SN2_277_mol2.chk"
 Charge = -1 Multiplicity = 1

                         Standard orientation:
 ---------------------------------------------------------------------
 Center     Atomic      Atomic             Coordinates (Angstroms)
 Number     Number       Type             X           Y           Z
 ---------------------------------------------------------------------
      1          6           0        0.388410   -0.759625   -0.203743
      2          6           0       -0.148516    0.642201   -0.428068
      3         17           0        2.072384   -0.855801   -0.880137
      4          1           0       -1.171476    0.713763   -0.018366
      5          1           0       -0.188887    0.850463   -1.495411
      6          6           0        0.475318   -1.152124    1.204417
      7          7           0        0.531564   -1.582593    2.295882
      8          6           0       -0.499840   -1.748420   -0.951040
      9          1           0       -0.469306   -1.524732   -2.019081
     10          1           0       -1.528206   -1.625681   -0.598674
     11          1           0       -0.146741   -2.767348   -0.786012
     12          7           0        0.699638    1.703385    0.169235
     13          8           0        1.121765    1.529255    1.309997
     14          8           0        0.895864    2.709258   -0.511644
     15         17           0       -3.398682    0.132724   -0.087774
 ---------------------------------------------------------------------

 SCF Done:  E(RHF) =  -1332.58188469     A.U. after    2 cycles

 The electronic state is 1-A.
 Alpha  occ. eigenvalues -- -105.48652-105.29399 -20.49472 -20.49382 -15.68949
 Alpha  occ. eigenvalues --  -15.42731 -11.27582 -11.20985 -11.19820 -11.15503
 Alpha  occ. eigenvalues --  -10.53503 -10.33988  -7.70441  -7.70068  -7.70059
 Alpha  occ. eigenvalues --   -7.50758  -7.50726  -7.50712  -1.56520  -1.40426
 Alpha  occ. eigenvalues --   -1.13677  -1.09093  -1.00071  -0.92421  -0.82108
 Alpha  occ. eigenvalues --   -0.77988  -0.74701  -0.69265  -0.65959  -0.65445
 Alpha  occ. eigenvalues --   -0.58803  -0.55036  -0.52608  -0.51113  -0.48797
 Alpha  occ. eigenvalues --   -0.47112  -0.45079  -0.41297  -0.40095  -0.39072
 Alpha  occ. eigenvalues --   -0.38314  -0.37573  -0.37135  -0.35097  -0.21964
 Alpha  occ. eigenvalues --   -0.21732  -0.21615
 Alpha virt. eigenvalues --    0.11881   0.13036   0.14690   0.15522   0.15863
 Alpha virt. eigenvalues --    0.17294   0.18039   0.18996   0.20802   0.21531
 Alpha virt. eigenvalues --    0.22458   0.23191   0.23990   0.24246   0.24970

 Mulliken charges:
               1
     1  C   -1.118018
     2  C    0.031840
     3  Cl  -0.055526
     4  H    0.256321
     5  H    0.116001
     6  C   -1.396865
     7  N    1.033251
     8  C    0.418054
     9  H    0.157329
    10  H    0.294828
    11  H    0.194087
    12  N    2.866860
    13  O   -1.415308
    14  O   -1.440133
    15  Cl  -0.942722
 Sum of Mulliken charges =  -1.00000

 Dipole moment (field-independent basis, Debye):
    X=              8.9218    Y=             -1.8553    Z=             -4.4715  Tot=             10.1506

 Test job not archived.
 1\1\GINC-SE227\SP\RHF\Aug-CC-pVDZ\C4H5Cl2N2O2(1-)\OHZDE\09-Apr-2025\0\
 \#t hf aug-cc-pvdz iop(5/13=1,5/36=2,99/5=2) pseudo=read geom=check gu
 ess=(read,tcheck) scf=(maxcycle=1)\\title\\-1,1\C,0,0.040331,0.021538,
 0.019768\C,0,-0.605111,-0.205778,-1.335024\Cl,0,1.832705,-0.234537,-0.
 136274\H,0,-1.695324,-0.050252,-1.25335\H,0,-0.425739,-1.229715,-1.656
 898\C,0,-0.148833,1.370548,0.557272\N,0,-0.290076,2.402768,1.099798\C,
 0,-0.519175,-0.999041,1.004922\H,0,-0.273193,-2.005248,0.660363\H,0,-1
 .607978,-0.895905,1.030124\H,0,-0.08635,-0.840867,1.993745\N,0,-0.0591

 Normal termination of Gaussian 16 at Wed Apr  9 02:50:16 2025.
