 Gaussian 16, Revision C.01,

 ----------------------------------------------------------------------
 #t hf aug-cc-pvdz symm=none int=(grid=ultrafine) guess=(read,tcheck) s
 table=(opt,rrhf)
 ----------------------------------------------------------------------
 -----
 title
 -----
 Symbolic Z-matrix:
 Charge = -1 Multiplicity = 1

 SCF Done:  E(RHF) =  -915.245902446     A.U. after   15 cycles
 Normal termination of Gaussian 16 at Wed Apr  9 02:49:57 2025.
 Gaussian 16:  ES64L-G16RevC.01  3-Jul-2019

 ----------------------------------------------------------------------
 #t hf aug-cc-pvdz iop(5/13=1,5/36=2,99/5=2) pseudo=read geom=check gue
 ss=(read,tcheck) scf=(maxcycle=1)
 ----------------------------------------------------------------------
 -----
 title
 -----
 Structure from the checkpoint file:  "E2SN2_283_mol2.chk"
 Charge = -1 Multiplicity = 1

                         Standard orientation:
 ---------------------------------------------------------------------
 Center     Atomic      Atomic             Coordinates (Angstroms)
 Number     Number       Type             X           Y           Z
 ---------------------------------------------------------------------
      1          6           0        0.684275   -0.721124   -0.396762
      2          6           0        0.443617    0.810913   -0.325492
      3          9           0        1.708867   -0.952078   -1.323327
      4          1           0        0.028312    1.090512   -1.301099
      5          6           0        1.174238   -1.190339    0.913038
      6          7           0        1.557198   -1.549856    1.963499
      7          6           0       -0.545216   -1.478599   -0.840237
      8          1           0       -0.777117   -1.178722   -1.864382
      9          1           0       -1.416651   -1.239189   -0.227959
     10          1           0       -0.345689   -2.551789   -0.816370
     11          6           0        1.749311    1.484833   -0.188126
     12          7           0        2.782249    2.028781   -0.065009
     13          7           0       -0.466468    1.268903    0.691562
     14          1           0       -0.198220    0.921259    1.604817
     15          1           0       -1.424616    0.966052    0.478312
     16         17           0       -3.493766    0.287746    0.054809
 ---------------------------------------------------------------------

 SCF Done:  E(RHF) =  -915.768626793     A.U. after    2 cycles

 The electronic state is 1-A.
 Alpha  occ. eigenvalues -- -105.29599 -26.38635 -15.44766 -15.42690 -15.38811
 Alpha  occ. eigenvalues --  -11.29221 -11.23228 -11.20949 -11.19500 -11.14771
 Alpha  occ. eigenvalues --  -10.34199  -7.50973  -7.50933  -7.50924  -1.51007
 Alpha  occ. eigenvalues --   -1.15121  -1.13689  -1.10612  -0.99146  -0.89106
 Alpha  occ. eigenvalues --   -0.81742  -0.75052  -0.68671  -0.64734  -0.63339
 Alpha  occ. eigenvalues --   -0.59726  -0.56428  -0.54411  -0.52384  -0.51531
 Alpha  occ. eigenvalues --   -0.50057  -0.47486  -0.46656  -0.45772  -0.42413
 Alpha  occ. eigenvalues --   -0.41569  -0.40283  -0.39850  -0.34496  -0.22492
 Alpha  occ. eigenvalues --   -0.21936  -0.21876
 Alpha virt. eigenvalues --    0.12039   0.12912   0.14086   0.15758   0.16451
 Alpha virt. eigenvalues --    0.17341   0.17631   0.18727   0.19330   0.21377
 Alpha virt. eigenvalues --    0.21832   0.22296   0.22485   0.22952   0.23166

 Mulliken charges:
               1
     1  C    1.248304
     2  C   -0.698284
     3  F   -0.967085
     4  H    0.123117
     5  C   -2.057419
     6  N    1.063028
     7  C    0.163974
     8  H    0.152055
     9  H    0.304298
    10  H    0.182897
    11  C   -1.687439
    12  N    0.996894
    13  N    0.815999
    14  H    0.307742
    15  H    0.013766
    16  Cl  -0.961847
 Sum of Mulliken charges =  -1.00000

 Dipole moment (field-independent basis, Debye):
    X=              6.0881    Y=             -3.1164    Z=             -3.3621  Tot=              7.6210

 Test job not archived.
 1\1\GINC-SE461\SP\RHF\Aug-CC-pVDZ\C5H6Cl1F1N3(1-)\OHZDE\09-Apr-2025\0\
 \#t hf aug-cc-pvdz iop(5/13=1,5/36=2,99/5=2) pseudo=read geom=check gu
 ess=(read,tcheck) scf=(maxcycle=1)\\title\\-1,1\C,0,0.04144,0.017868,-
 0.032553\C,0,-0.455147,-0.020867,-1.502938\F,0,1.369397,-0.427004,-0.0
 16075\H,0,-0.495894,-1.082825,-1.773209\C,0,0.050266,1.417441,0.433192
 \N,0,0.045545,2.535853,0.791678\C,0,-0.775017,-0.870862,0.876097\H,0,-
 0.633984,-1.905052,0.554945\H,0,-1.842818,-0.654218,0.80926\H,0,-0.427
 96,-0.763716,1.905751\C,0,0.563622,0.617285,-2.358945\N,0,1.362159,1.1

 Normal termination of Gaussian 16 at Wed Apr  9 02:50:05 2025.
