 Gaussian 16, Revision C.01,

 ----------------------------------------------------------------------
 #t hf aug-cc-pvdz symm=none int=(grid=ultrafine) guess=(read,tcheck) s
 table=(opt,rrhf)
 ----------------------------------------------------------------------
 -----
 title
 -----
 Symbolic Z-matrix:
 Charge = -1 Multiplicity = 1

 SCF Done:  E(RHF) =  -777.179460630     A.U. after   16 cycles
 Normal termination of Gaussian 16 at Wed Apr  9 02:34:45 2025.
 Gaussian 16:  ES64L-G16RevC.01  3-Jul-2019

 ----------------------------------------------------------------------
 #t hf aug-cc-pvdz iop(5/13=1,5/36=2,99/5=2) pseudo=read geom=check gue
 ss=(read,tcheck) scf=(maxcycle=1)
 ----------------------------------------------------------------------
 -----
 title
 -----
 Structure from the checkpoint file:  "E2SN2_122_mol1.chk"
 Charge = -1 Multiplicity = 1

                         Standard orientation:
 ---------------------------------------------------------------------
 Center     Atomic      Atomic             Coordinates (Angstroms)
 Number     Number       Type             X           Y           Z
 ---------------------------------------------------------------------
      1          6           0       -0.521920    0.126527    0.312812
      2          6           0        0.751907   -0.151958    1.069461
      3         17           0       -1.043845   -1.336198   -0.702773
      4          1           0        0.316773    1.735414    2.695218
      5          1           0        0.757730    0.814918    1.854541
      6          1           0        0.598593   -1.008638    1.732595
      7          7           0       -1.617588    0.469409    1.186874
      8          1           0       -1.196521    1.152035    1.850243
      9          1           0       -1.819934   -0.358590    1.741326
     10          6           0        1.940066   -0.312117    0.275476
     11          7           0        2.939313   -0.415855   -0.340452
     12          6           0       -0.326473    1.218632   -0.653053
     13          7           0       -0.174975    2.102692   -1.411416
 ---------------------------------------------------------------------

 SCF Done:  E(RHF) =  -777.573415557     A.U. after    2 cycles

 The electronic state is 1-A.
 Alpha  occ. eigenvalues -- -105.45514 -15.41273 -15.39035 -15.38979 -11.27468
 Alpha  occ. eigenvalues --  -11.18025 -11.16640 -11.13995 -10.50366  -7.67286
 Alpha  occ. eigenvalues --   -7.66933  -7.66920  -1.14233  -1.10167  -1.09249
 Alpha  occ. eigenvalues --   -0.97196  -0.91164  -0.80400  -0.63801  -0.60421
 Alpha  occ. eigenvalues --   -0.57443  -0.52841  -0.49910  -0.49247  -0.47532
 Alpha  occ. eigenvalues --   -0.43765  -0.39341  -0.38690  -0.37957  -0.36095
 Alpha  occ. eigenvalues --   -0.35307  -0.34918  -0.34213  -0.13222
 Alpha virt. eigenvalues --    0.12659   0.14372   0.16467   0.17454   0.17975
 Alpha virt. eigenvalues --    0.18828   0.19246   0.20878   0.22238   0.22557
 Alpha virt. eigenvalues --    0.23483   0.23890   0.24582   0.25484   0.26050

 Mulliken charges:
               1
     1  C   -2.249140
     2  C    1.202047
     3  Cl  -0.009998
     4  H   -0.473949
     5  H    0.284293
     6  H    0.140934
     7  N    0.895464
     8  H    0.206881
     9  H    0.228325
    10  C   -1.857200
    11  N    0.889597
    12  C   -1.184619
    13  N    0.927364
 Sum of Mulliken charges =  -1.00000

 Dipole moment (field-independent basis, Debye):
    X=             -4.1943    Y=             -6.7555    Z=             -1.4634  Tot=              8.0852

 Test job not archived.
 1\1\GINC-SE345\SP\RHF\Aug-CC-pVDZ\C4H5Cl1N3(1-)\OHZDE\09-Apr-2025\0\\#
 t hf aug-cc-pvdz iop(5/13=1,5/36=2,99/5=2) pseudo=read geom=check gues
 s=(read,tcheck) scf=(maxcycle=1)\\title\\-1,1\C,0,-0.19199313,0.019877
 89,-0.34986555\C,0,-0.12551026,0.03532201,1.15613774\Cl,0,1.49116669,-
 0.18681442,-1.10328057\H,0,-2.58382814,-0.51739673,1.37008842\H,0,-1.3
 3360895,-0.09114026,1.43134227\H,0,0.30863906,-0.90515111,1.50852569\N
 ,0,-1.03284729,-1.03935263,-0.85289236\H,0,-1.88143078,-0.9835274,-0.2
 5278969\H,0,-0.58095646,-1.91539874,-0.60332898\C,0,0.52986336,1.16849

 Normal termination of Gaussian 16 at Wed Apr  9 02:34:50 2025.
