 Gaussian 16, Revision C.01,

 ----------------------------------------------------------------------
 #t hf aug-cc-pvdz symm=none int=(grid=ultrafine) guess=(read,tcheck) s
 table=(opt,rrhf)
 ----------------------------------------------------------------------
 -----
 title
 -----
 Symbolic Z-matrix:
 Charge = -1 Multiplicity = 1

 SCF Done:  E(RHF) =  -878.445300844     A.U. after   16 cycles
 Normal termination of Gaussian 16 at Wed Apr  9 02:50:34 2025.
 Gaussian 16:  ES64L-G16RevC.01  3-Jul-2019

 ----------------------------------------------------------------------
 #t hf aug-cc-pvdz iop(5/13=1,5/36=2,99/5=2) pseudo=read geom=check gue
 ss=(read,tcheck) scf=(maxcycle=1)
 ----------------------------------------------------------------------
 -----
 title
 -----
 Structure from the checkpoint file:  "E2SN2_289_mol1.chk"
 Charge = -1 Multiplicity = 1

                         Standard orientation:
 ---------------------------------------------------------------------
 Center     Atomic      Atomic             Coordinates (Angstroms)
 Number     Number       Type             X           Y           Z
 ---------------------------------------------------------------------
      1          6           0       -0.017017    0.360446    0.203471
      2          1           0       -1.425206    0.089129   -1.318975
      3         17           0        1.824955   -0.978184    0.391548
      4          9           0       -1.500800    1.672948    0.066988
      5          6           0       -0.993041   -0.566857   -0.561391
      6          6           0        0.712045    1.310192   -0.602480
      7          7           0        1.308559    2.083047   -1.258884
      8          6           0       -0.038913    0.536977    1.713326
      9          1           0       -0.837955    1.225571    1.971234
     10          1           0       -0.195568   -0.430649    2.183653
     11          1           0        0.918279    0.935452    2.044368
     12          7           0       -2.007610   -0.984710    0.417466
     13          1           0       -2.712021   -1.512528   -0.088844
     14          1           0       -2.438519   -0.108762    0.705292
     15          7           0       -0.399807   -1.671026   -1.280671
     16          1           0       -1.140944   -2.143368   -1.787745
     17          1           0        0.028460   -2.317966   -0.631113
 ---------------------------------------------------------------------

 SCF Done:  E(RHF) =  -878.944388809     A.U. after    2 cycles

 The electronic state is 1-A.
 Alpha  occ. eigenvalues -- -105.33967 -26.15697 -15.37230 -15.36363 -15.36220
 Alpha  occ. eigenvalues --  -11.24968 -11.17834 -11.15419 -11.10367 -10.38785
 Alpha  occ. eigenvalues --   -7.55612  -7.55449  -7.55428  -1.23615  -1.10834
 Alpha  occ. eigenvalues --   -1.07467  -1.01161  -0.94715  -0.80808  -0.79823
 Alpha  occ. eigenvalues --   -0.72299  -0.61809  -0.57691  -0.54181  -0.50914
 Alpha  occ. eigenvalues --   -0.49194  -0.47343  -0.46605  -0.45183  -0.40648
 Alpha  occ. eigenvalues --   -0.39804  -0.34969  -0.33621  -0.32871  -0.31472
 Alpha  occ. eigenvalues --   -0.30843  -0.30229  -0.26133  -0.25390  -0.25353
 Alpha virt. eigenvalues --    0.11815   0.13468   0.14284   0.15136   0.15662
 Alpha virt. eigenvalues --    0.16065   0.16894   0.18583   0.19895   0.21240
 Alpha virt. eigenvalues --    0.21801   0.23042   0.23970   0.24694   0.25634

 Mulliken charges:
               1
     1  C    0.027185
     2  H    0.196674
     3  Cl  -0.565312
     4  F   -0.863152
     5  C   -1.783225
     6  C   -1.957071
     7  N    1.005146
     8  C    0.145877
     9  H    0.390620
    10  H    0.352881
    11  H    0.100452
    12  N    0.488112
    13  H    0.121815
    14  H    0.265895
    15  N    0.649201
    16  H    0.161919
    17  H    0.262983
 Sum of Mulliken charges =  -1.00000

 Dipole moment (field-independent basis, Debye):
    X=             -4.6120    Y=             -4.2727    Z=              1.4844  Tot=              6.4599

 Test job not archived.
 1\1\GINC-SE403\SP\RHF\Aug-CC-pVDZ\C4H8Cl1F1N3(1-)\OHZDE\09-Apr-2025\0\
 \#t hf aug-cc-pvdz iop(5/13=1,5/36=2,99/5=2) pseudo=read geom=check gu
 ess=(read,tcheck) scf=(maxcycle=1)\\title\\-1,1\C,0,0.53453613,-0.0450
 7373,-0.01153245\H,0,1.53516114,1.66234083,-0.68824155\Cl,0,-1.6448635
 1,-0.45879429,-0.55853962\F,0,2.46469873,0.13164316,0.41991648\C,0,0.5
 9890773,1.49551195,-0.15287689\C,0,1.00037106,-0.80227671,-1.14852252\
 N,0,1.37760616,-1.42032935,-2.07572574\C,0,0.33291354,-0.75677972,1.31
 667227\H,0,1.28186108,-0.78436093,1.84381864\H,0,-0.41639557,-0.224055

 Normal termination of Gaussian 16 at Wed Apr  9 02:50:42 2025.
