 Gaussian 16, Revision C.01,

 ----------------------------------------------------------------------
 #t hf aug-cc-pvdz symm=none int=(grid=ultrafine) guess=(read,tcheck) s
 table=(opt,rrhf)
 ----------------------------------------------------------------------
 -----
 title
 -----
 Symbolic Z-matrix:
 Charge = -1 Multiplicity = 1

 SCF Done:  E(RHF) =  -876.157716102     A.U. after   16 cycles
 Normal termination of Gaussian 16 at Wed Apr  9 02:51:12 2025.
 Gaussian 16:  ES64L-G16RevC.01  3-Jul-2019

 ----------------------------------------------------------------------
 #t hf aug-cc-pvdz iop(5/13=1,5/36=2,99/5=2) pseudo=read geom=check gue
 ss=(read,tcheck) scf=(maxcycle=1)
 ----------------------------------------------------------------------
 -----
 title
 -----
 Structure from the checkpoint file:  "E2SN2_295_mol2.chk"
 Charge = -1 Multiplicity = 1

                         Standard orientation:
 ---------------------------------------------------------------------
 Center     Atomic      Atomic             Coordinates (Angstroms)
 Number     Number       Type             X           Y           Z
 ---------------------------------------------------------------------
      1          6           0        0.321080   -0.201829    0.143779
      2          6           0       -0.593848    0.529548   -0.839221
      3         17           0       -0.154463   -1.976862    0.247845
      4          1           0       -0.455324    0.149254   -1.854019
      5          1           0       -0.237010    1.583479   -0.736032
      6          6           0        1.686583   -0.233988   -0.429412
      7          7           0        2.787050   -0.270681   -0.840984
      8          7           0        0.222597    0.417963    1.412565
      9          1           0        0.937992    0.048978    2.029713
     10          1           0        0.424442    1.445294    1.177099
     11          6           0       -1.997419    0.423736   -0.467702
     12          7           0       -3.146984    0.361672   -0.236530
     13          9           0        0.713196    2.634685    0.264428
 ---------------------------------------------------------------------

 SCF Done:  E(RHF) =  -876.636317202     A.U. after    2 cycles

 The electronic state is 1-A.
 Alpha  occ. eigenvalues -- -105.45292 -26.12934 -15.41026 -15.39520 -15.36288
 Alpha  occ. eigenvalues --  -11.26938 -11.17977 -11.17182 -11.15908 -10.50162
 Alpha  occ. eigenvalues --   -7.67087  -7.66727  -7.66721  -1.20219  -1.13342
 Alpha  occ. eigenvalues --   -1.10307  -1.09169  -0.96844  -0.91747  -0.79483
 Alpha  occ. eigenvalues --   -0.63651  -0.60612  -0.56463  -0.53433  -0.50176
 Alpha  occ. eigenvalues --   -0.48779  -0.48124  -0.45320  -0.39798  -0.38917
 Alpha  occ. eigenvalues --   -0.37191  -0.37071  -0.35159  -0.34564  -0.34189
 Alpha  occ. eigenvalues --   -0.29414  -0.28410  -0.28002
 Alpha virt. eigenvalues --    0.13317   0.14292   0.16912   0.17068   0.17342
 Alpha virt. eigenvalues --    0.18497   0.19406   0.21701   0.22401   0.23559
 Alpha virt. eigenvalues --    0.23957   0.24742   0.25136   0.25282   0.26084

 Mulliken charges:
               1
     1  C   -1.864381
     2  C    0.887107
     3  Cl  -0.003102
     4  H    0.191273
     5  H    0.396669
     6  C   -0.947563
     7  N    0.860840
     8  N    0.588210
     9  H    0.192985
    10  H    0.426596
    11  C   -1.629869
    12  N    0.899804
    13  F   -0.998568
 Sum of Mulliken charges =  -1.00000

 Dipole moment (field-independent basis, Debye):
    X=             -0.0027    Y=             -5.6096    Z=             -0.7040  Tot=              5.6537

 Test job not archived.
 1\1\GINC-SE208\SP\RHF\Aug-CC-pVDZ\C4H4Cl1F1N3(1-)\OHZDE\09-Apr-2025\0\
 \#t hf aug-cc-pvdz iop(5/13=1,5/36=2,99/5=2) pseudo=read geom=check gu
 ess=(read,tcheck) scf=(maxcycle=1)\\title\\-1,1\C,0,0.004209,0.021679,
 0.00539\C,0,-0.524241,-0.17764,-1.415634\Cl,0,1.841675,-0.084668,0.016
 379\H,0,-0.199178,0.63641,-2.067772\H,0,-1.629001,-0.162638,-1.248208\
 C,0,-0.27213,1.419179,0.41136\N,0,-0.483544,2.515523,0.778918\N,0,-0.5
 59364,-0.965642,0.848741\H,0,-0.346442,-0.750377,1.8168\H,0,-1.609469,
 -0.848637,0.661166\C,0,-0.10807,-1.451638,-1.983934\N,0,0.20766,-2.453

 Normal termination of Gaussian 16 at Wed Apr  9 02:51:17 2025.
