 Gaussian 16, Revision C.01,

 ----------------------------------------------------------------------
 #t hf aug-cc-pvdz symm=none int=(grid=ultrafine) guess=(read,tcheck) s
 table=(opt,rrhf)
 ----------------------------------------------------------------------
 -----
 title
 -----
 Symbolic Z-matrix:
 Charge = -1 Multiplicity = 1

 SCF Done:  E(RHF) =  -502.450037925     A.U. after   15 cycles
 Normal termination of Gaussian 16 at Wed Apr  9 02:59:49 2025.
 Gaussian 16:  ES64L-G16RevC.01  3-Jul-2019

 ----------------------------------------------------------------------
 #t hf aug-cc-pvdz iop(5/13=1,5/36=2,99/5=2) pseudo=read geom=check gue
 ss=(read,tcheck) scf=(maxcycle=1)
 ----------------------------------------------------------------------
 -----
 title
 -----
 Structure from the checkpoint file:  "E2SN2_406_mol2.chk"
 Charge = -1 Multiplicity = 1

                         Standard orientation:
 ---------------------------------------------------------------------
 Center     Atomic      Atomic             Coordinates (Angstroms)
 Number     Number       Type             X           Y           Z
 ---------------------------------------------------------------------
      1          6           0        0.470224   -0.531613   -0.397090
      2          6           0       -0.479393    0.190738    0.586395
      3          9           0       -0.222598   -1.650819   -0.910835
      4          1           0        0.118131    1.098753    0.822443
      5          7           0        0.861258    0.313325   -1.488012
      6          1           0        0.018011    0.670507   -1.929955
      7          1           0        1.308653    1.109833   -0.982586
      8          6           0        1.719977   -1.008134    0.308556
      9          1           0        1.494433   -1.752415    1.074731
     10          1           0        2.179257   -0.111398    0.731525
     11          1           0        2.378002   -1.451063   -0.441178
     12          6           0       -0.842955   -0.607807    1.840014
     13          1           0       -1.218607   -1.599461    1.573332
     14          1           0        0.035045   -0.719828    2.477674
     15          1           0       -1.612447   -0.090464    2.419120
     16          6           0       -1.697234    0.580305   -0.119681
     17          7           0       -2.691535    0.886757   -0.667102
     18          9           0        1.676794    1.951267    0.469893
 ---------------------------------------------------------------------

 SCF Done:  E(RHF) =  -502.949646105     A.U. after    2 cycles

 The electronic state is 1-A.
 Alpha  occ. eigenvalues --  -26.30544 -26.10307 -15.38323 -15.32891 -11.21188
 Alpha  occ. eigenvalues --  -11.15759 -11.12884 -11.12383 -11.08664  -1.42860
 Alpha  occ. eigenvalues --   -1.16856  -1.09241  -1.05341  -0.94924  -0.85789
 Alpha  occ. eigenvalues --   -0.78849  -0.67544  -0.59818  -0.57595  -0.53851
 Alpha  occ. eigenvalues --   -0.53130  -0.48821  -0.47154  -0.46202  -0.44853
 Alpha  occ. eigenvalues --   -0.42941  -0.41909  -0.41213  -0.40010  -0.37703
 Alpha  occ. eigenvalues --   -0.35603  -0.34991  -0.29812  -0.26481  -0.26248
 Alpha  occ. eigenvalues --   -0.25427
 Alpha virt. eigenvalues --    0.12373   0.12872   0.14001   0.14415   0.16316
 Alpha virt. eigenvalues --    0.16878   0.17660   0.18059   0.19242   0.19805
 Alpha virt. eigenvalues --    0.20722   0.23128   0.24580   0.25211   0.25666

 Mulliken charges:
               1
     1  C   -0.683039
     2  C    0.165358
     3  F   -1.092740
     4  H    0.266599
     5  N    0.627121
     6  H    0.244778
     7  H    0.342644
     8  C   -0.099787
     9  H    0.176871
    10  H    0.294547
    11  H    0.147500
    12  C    0.040394
    13  H    0.265664
    14  H    0.184909
    15  H    0.085295
    16  C   -2.050645
    17  N    1.081606
    18  F   -0.997074
 Sum of Mulliken charges =  -1.00000

 Dipole moment (field-independent basis, Debye):
    X=             -1.2226    Y=             -5.4692    Z=              2.6614  Tot=              6.2040

 Test job not archived.
 1\1\GINC-SE227\SP\RHF\Aug-CC-pVDZ\C5H9F2N2(1-)\OHZDE\09-Apr-2025\0\\#t
  hf aug-cc-pvdz iop(5/13=1,5/36=2,99/5=2) pseudo=read geom=check guess
 =(read,tcheck) scf=(maxcycle=1)\\title\\-1,1\C,0,-0.019621,-0.010631,0
 .006772\C,0,-0.509317,-0.053244,-1.459239\F,0,1.39077,0.071053,-0.0193
 8\H,0,-1.610163,0.007618,-1.312002\N,0,-0.537374,1.123598,0.71557\H,0,
 -0.303875,1.960611,0.187512\H,0,-1.56638,0.973874,0.621912\C,0,-0.4260
 95,-1.263398,0.749905\H,0,0.040043,-2.155314,0.326765\H,0,-1.516288,-1
 .302257,0.687094\H,0,-0.111969,-1.151451,1.789173\C,0,-0.096025,-1.300

 Normal termination of Gaussian 16 at Wed Apr  9 02:59:58 2025.
