 Gaussian 16, Revision C.01,

 ----------------------------------------------------------------------
 #t hf aug-cc-pvdz symm=none int=(grid=ultrafine) guess=(read,tcheck) s
 table=(opt,rrhf)
 ----------------------------------------------------------------------
 -----
 title
 -----
 Symbolic Z-matrix:
 Charge = -1 Multiplicity = 1

 SCF Done:  E(RHF) =  -1044.62512558     A.U. after   16 cycles
 Normal termination of Gaussian 16 at Wed Apr  9 02:43:16 2025.
 Gaussian 16:  ES64L-G16RevC.01  3-Jul-2019

 ----------------------------------------------------------------------
 #t hf aug-cc-pvdz iop(5/13=1,5/36=2,99/5=2) pseudo=read geom=check gue
 ss=(read,tcheck) scf=(maxcycle=1)
 ----------------------------------------------------------------------
 -----
 title
 -----
 Structure from the checkpoint file:  "E2SN2_212_mol1.chk"
 Charge = -1 Multiplicity = 1

                         Standard orientation:
 ---------------------------------------------------------------------
 Center     Atomic      Atomic             Coordinates (Angstroms)
 Number     Number       Type             X           Y           Z
 ---------------------------------------------------------------------
      1          6           0       -0.345251    0.074833   -0.263136
      2          1           0        0.747509    1.096451    1.319580
      3          9           0        0.479946   -1.619593   -0.713296
      4         17           0       -1.359876    1.875204    0.059022
      5          6           0        0.762058    0.169778    0.744783
      6          1           0       -0.186146    0.245084   -1.308500
      7          1           0        0.745303   -0.696215    1.392981
      8          7           0       -1.483676   -0.809289    0.062379
      9          8           0       -1.591706   -1.196137    1.222080
     10          8           0       -2.264002   -1.055961   -0.846651
     11          7           0        2.083934    0.159247    0.057780
     12          8           0        3.008766   -0.389665    0.651084
     13          8           0        2.195574    0.783660   -0.991359
 ---------------------------------------------------------------------

 SCF Done:  E(RHF) =  -1045.25980041     A.U. after    2 cycles

 The electronic state is 1-A.
 Alpha  occ. eigenvalues -- -105.39903 -26.16376 -20.47125 -20.47105 -20.46454
 Alpha  occ. eigenvalues --  -20.46414 -15.67295 -15.66982 -11.28209 -11.20110
 Alpha  occ. eigenvalues --  -10.44713  -7.61579  -7.61333  -7.61322  -1.54547
 Alpha  occ. eigenvalues --   -1.54142  -1.38335  -1.38009  -1.24536  -1.05090
 Alpha  occ. eigenvalues --   -0.97781  -0.86403  -0.79263  -0.72619  -0.67371
 Alpha  occ. eigenvalues --   -0.66125  -0.63669  -0.62855  -0.61472  -0.60976
 Alpha  occ. eigenvalues --   -0.50907  -0.50005  -0.40347  -0.38528  -0.37425
 Alpha  occ. eigenvalues --   -0.36418  -0.35976  -0.33845  -0.33314  -0.32655
 Alpha  occ. eigenvalues --   -0.31843  -0.31240  -0.30580  -0.28174
 Alpha virt. eigenvalues --    0.14137   0.15700   0.15873   0.17133   0.18658
 Alpha virt. eigenvalues --    0.19418   0.21438   0.22602   0.23912   0.25038
 Alpha virt. eigenvalues --    0.25361   0.26370   0.26948   0.27879   0.28341

 Mulliken charges:
               1
     1  C   -0.105071
     2  H    0.175586
     3  F   -0.881320
     4  Cl  -0.446440
     5  C   -0.175727
     6  H    0.061271
     7  H    0.281542
     8  N    3.151799
     9  O   -1.510666
    10  O   -1.514415
    11  N    2.883172
    12  O   -1.457284
    13  O   -1.462447
 Sum of Mulliken charges =  -1.00000

 Dipole moment (field-independent basis, Debye):
    X=              0.4669    Y=              2.5442    Z=              2.1041  Tot=              3.3344

 Test job not archived.
 1\1\GINC-SE083\SP\RHF\Aug-CC-pVDZ\C2H3Cl1F1N2O4(1-)\OHZDE\09-Apr-2025\
 0\\#t hf aug-cc-pvdz iop(5/13=1,5/36=2,99/5=2) pseudo=read geom=check
 guess=(read,tcheck) scf=(maxcycle=1)\\title\\-1,1\C,0,0.7121799,-0.059
 11442,0.0172291\H,0,1.83484275,1.79804885,0.19995822\F,0,-1.18028418,0
 .27863829,-0.22603978\Cl,0,2.70611281,-0.6242645,0.29904398\C,0,0.8185
 8857,1.43732097,0.03738823\H,0,0.33947356,-0.61940434,0.85044717\H,0,0
 .39466224,1.84892256,-0.86884382\N,0,0.5477261,-0.70891899,-1.29971903
 \O,0,0.77323777,-0.03484705,-2.30021841\O,0,0.23876911,-1.89238284,-1.

 Normal termination of Gaussian 16 at Wed Apr  9 02:43:29 2025.
