 Gaussian 16, Revision C.01,

 ----------------------------------------------------------------------
 #t hf aug-cc-pvdz symm=none int=(grid=ultrafine) guess=(read,tcheck) s
 table=(opt,rrhf)
 ----------------------------------------------------------------------
 -----
 title
 -----
 Symbolic Z-matrix:
 Charge = -1 Multiplicity = 1

 SCF Done:  E(RHF) =  -915.158275106     A.U. after   17 cycles
 Normal termination of Gaussian 16 at Wed Apr  9 02:49:48 2025.
 Gaussian 16:  ES64L-G16RevC.01  3-Jul-2019

 ----------------------------------------------------------------------
 #t hf aug-cc-pvdz iop(5/13=1,5/36=2,99/5=2) pseudo=read geom=check gue
 ss=(read,tcheck) scf=(maxcycle=1)
 ----------------------------------------------------------------------
 -----
 title
 -----
 Structure from the checkpoint file:  "E2SN2_283_mol1.chk"
 Charge = -1 Multiplicity = 1

                         Standard orientation:
 ---------------------------------------------------------------------
 Center     Atomic      Atomic             Coordinates (Angstroms)
 Number     Number       Type             X           Y           Z
 ---------------------------------------------------------------------
      1          6           0       -0.298708    0.039770    0.324869
      2          1           0        0.431265   -1.097884   -1.360533
      3          9           0        0.930442    1.488880    0.855156
      4         17           0       -1.824476   -1.436749   -0.405385
      5          6           0        0.741919   -0.233528   -0.772499
      6          6           0       -1.225054    1.132820    0.146846
      7          7           0       -1.974945    2.032538    0.037771
      8          6           0       -0.175115   -0.608338    1.686365
      9          1           0       -1.142879   -0.594276    2.185501
     10          1           0        0.130207   -1.648925    1.575287
     11          1           0        0.562542   -0.052054    2.258615
     12          6           0        2.024473   -0.605080   -0.129480
     13          7           0        3.065540   -0.985948    0.260608
     14          7           0        0.846444    0.907260   -1.662976
     15          1           0        1.538341    0.715245   -2.377439
     16          1           0        1.158285    1.671899   -1.070722
 ---------------------------------------------------------------------

 SCF Done:  E(RHF) =  -915.679015786     A.U. after    2 cycles

 The electronic state is 1-A.
 Alpha  occ. eigenvalues -- -105.36396 -26.17669 -15.39981 -15.38404 -15.38323
 Alpha  occ. eigenvalues --  -11.27530 -11.21092 -11.17323 -11.16752 -11.12724
 Alpha  occ. eigenvalues --  -10.41210  -7.58046  -7.57863  -7.57853  -1.25930
 Alpha  occ. eigenvalues --   -1.11839  -1.09249  -1.08085  -0.98289  -0.85641
 Alpha  occ. eigenvalues --   -0.82679  -0.78952  -0.62497  -0.62147  -0.58256
 Alpha  occ. eigenvalues --   -0.51657  -0.49850  -0.49298  -0.47787  -0.46992
 Alpha  occ. eigenvalues --   -0.43578  -0.42044  -0.39381  -0.37936  -0.36110
 Alpha  occ. eigenvalues --   -0.34893  -0.34184  -0.32945  -0.31936  -0.28219
 Alpha  occ. eigenvalues --   -0.27919  -0.27456
 Alpha virt. eigenvalues --    0.12567   0.13658   0.14192   0.15460   0.15848
 Alpha virt. eigenvalues --    0.16956   0.18049   0.19754   0.19846   0.20790
 Alpha virt. eigenvalues --    0.22174   0.22602   0.22960   0.25203   0.25451

 Mulliken charges:
               1
     1  C    0.418288
     2  H    0.126376
     3  F   -0.827249
     4  Cl  -0.516420
     5  C   -0.568572
     6  C   -2.288754
     7  N    1.147335
     8  C    0.117646
     9  H    0.103747
    10  H    0.332856
    11  H    0.432068
    12  C   -1.588385
    13  N    0.992656
    14  N    0.636672
    15  H    0.130087
    16  H    0.351650
 Sum of Mulliken charges =  -1.00000

 Dipole moment (field-independent basis, Debye):
    X=              1.7681    Y=             -2.4172    Z=             -0.9693  Tot=              3.1478

 Test job not archived.
 1\1\GINC-SE459\SP\RHF\Aug-CC-pVDZ\C5H6Cl1F1N3(1-)\OHZDE\09-Apr-2025\0\
 \#t hf aug-cc-pvdz iop(5/13=1,5/36=2,99/5=2) pseudo=read geom=check gu
 ess=(read,tcheck) scf=(maxcycle=1)\\title\\-1,1\C,0,0.75174154,-0.0129
 8785,0.03516372\H,0,1.64176401,1.95250504,0.1464986\F,0,-1.21288737,0.
 04918877,-0.13306974\Cl,0,2.99419442,-0.11109999,-0.02075243\C,0,0.647
 84144,1.52028294,0.02524036\C,0,0.65795245,-0.72358175,-1.21816324\N,0
 ,0.55980183,-1.32798598,-2.22254694\C,0,0.64949368,-0.78655135,1.33136
 319\H,0,1.08971714,-1.77411853,1.20168745\H,0,1.20516248,-0.27162483,2

 Normal termination of Gaussian 16 at Wed Apr  9 02:49:56 2025.
