 Gaussian 16, Revision C.01,

 ----------------------------------------------------------------------
 #t hf aug-cc-pvdz symm=none int=(grid=ultrafine) guess=(read,tcheck) s
 table=(opt,rrhf)
 ----------------------------------------------------------------------
 -----
 title
 -----
 Symbolic Z-matrix:
 Charge = -1 Multiplicity = 1

 SCF Done:  E(RHF) =  -833.911209931     A.U. after   17 cycles
 Normal termination of Gaussian 16 at Wed Apr  9 02:57:42 2025.
 Gaussian 16:  ES64L-G16RevC.01  3-Jul-2019

 ----------------------------------------------------------------------
 #t hf aug-cc-pvdz iop(5/13=1,5/36=2,99/5=2) pseudo=read geom=check gue
 ss=(read,tcheck) scf=(maxcycle=1)
 ----------------------------------------------------------------------
 -----
 title
 -----
 Structure from the checkpoint file:  "E2SN2_3_mol2.chk"
 Charge = -1 Multiplicity = 1

                         Standard orientation:
 ---------------------------------------------------------------------
 Center     Atomic      Atomic             Coordinates (Angstroms)
 Number     Number       Type             X           Y           Z
 ---------------------------------------------------------------------
      1          6           0        0.136297   -0.017815    0.402909
      2          6           0       -0.847057   -1.023036   -0.147904
      3         17           0       -0.119255    1.643480   -0.208273
      4          1           0       -0.650579   -1.881565    0.503814
      5          1           0        0.128234   -0.055981    1.495971
      6          1           0       -0.639175   -1.249362   -1.193663
      7          7           0        1.547058   -0.399040    0.019683
      8          8           0        2.439266    0.119391    0.677875
      9          8           0        1.709916   -1.147256   -0.940452
     10          6           0       -2.225362   -0.586696    0.012328
     11          7           0       -3.351692   -0.276248    0.131046
     12          1           0        0.244564   -2.037030    2.176028
 ---------------------------------------------------------------------

 SCF Done:  E(RHF) =  -834.351449821     A.U. after    2 cycles

 The electronic state is 1-A.
 Alpha  occ. eigenvalues -- -105.47888 -20.48503 -20.48337 -15.68062 -15.40934
 Alpha  occ. eigenvalues --  -11.26048 -11.18468 -11.16831 -10.52742  -7.69695
 Alpha  occ. eigenvalues --   -7.69302  -7.69284  -1.55649  -1.39633  -1.11722
 Alpha  occ. eigenvalues --   -1.07662  -0.93908  -0.91462  -0.74592  -0.66813
 Alpha  occ. eigenvalues --   -0.64668  -0.63067  -0.59368  -0.55423  -0.50398
 Alpha  occ. eigenvalues --   -0.49342  -0.45707  -0.40990  -0.38598  -0.38076
 Alpha  occ. eigenvalues --   -0.37342  -0.36391  -0.36209  -0.33671  -0.10343
 Alpha virt. eigenvalues --    0.13438   0.15461   0.16175   0.16981   0.17637
 Alpha virt. eigenvalues --    0.18899   0.21702   0.22223   0.22984   0.23824
 Alpha virt. eigenvalues --    0.24986   0.25661   0.25851   0.26282   0.26783

 Mulliken charges:
               1
     1  C   -0.789445
     2  C    0.121170
     3  Cl  -0.047022
     4  H    0.422623
     5  H    0.135459
     6  H    0.300192
     7  N    2.952177
     8  O   -1.461391
     9  O   -1.409447
    10  C   -1.267560
    11  N    0.788733
    12  H   -0.745490
 Sum of Mulliken charges =  -1.00000

 Dipole moment (field-independent basis, Debye):
    X=              0.8719    Y=              5.9810    Z=             -7.4442  Tot=              9.5890

 Test job not archived.
 1\1\GINC-SE461\SP\RHF\Aug-CC-pVDZ\C3H4Cl1N2O2(1-)\OHZDE\09-Apr-2025\0\
 \#t hf aug-cc-pvdz iop(5/13=1,5/36=2,99/5=2) pseudo=read geom=check gu
 ess=(read,tcheck) scf=(maxcycle=1)\\title\\-1,1\C,0,-0.181222,0.05487,
 -1.39699\C,0,-0.081873,-0.065175,0.105198\Cl,0,-1.828431,0.440074,-1.9
 77566\H,0,1.005452,-0.081011,0.238939\H,0,0.557545,0.776021,-1.758199\
 H,0,-0.549616,-0.982908,0.461614\N,0,0.206927,-1.248658,-2.054711\O,0,
 0.500201,-1.183155,-3.241186\O,0,0.154572,-2.2783,-1.387399\C,0,-0.646
 378,1.089465,0.786322\N,0,-1.082858,2.007359,1.37458\H,0,2.440916,0.40

 Normal termination of Gaussian 16 at Wed Apr  9 02:57:47 2025.
