 Gaussian 16, Revision C.01,

 ----------------------------------------------------------------------
 #t hf aug-cc-pvdz symm=none int=(grid=ultrafine) guess=(read,tcheck) s
 table=(opt,rrhf)
 ----------------------------------------------------------------------
 -----
 title
 -----
 Symbolic Z-matrix:
 Charge = -1 Multiplicity = 1

 SCF Done:  E(RHF) =  -518.446186400     A.U. after   15 cycles
 Normal termination of Gaussian 16 at Wed Apr  9 02:53:37 2025.
 Gaussian 16:  ES64L-G16RevC.01  3-Jul-2019

 ----------------------------------------------------------------------
 #t hf aug-cc-pvdz iop(5/13=1,5/36=2,99/5=2) pseudo=read geom=check gue
 ss=(read,tcheck) scf=(maxcycle=1)
 ----------------------------------------------------------------------
 -----
 title
 -----
 Structure from the checkpoint file:  "E2SN2_318_mol2.chk"
 Charge = -1 Multiplicity = 1

                         Standard orientation:
 ---------------------------------------------------------------------
 Center     Atomic      Atomic             Coordinates (Angstroms)
 Number     Number       Type             X           Y           Z
 ---------------------------------------------------------------------
      1          6           0        0.608574   -0.400233    0.084758
      2          6           0       -0.252272    0.292139   -0.994493
      3          9           0        1.071811   -1.630947   -0.553980
      4          1           0        0.384415    0.327189   -1.889057
      5          6           0        1.882098    0.329809    0.303453
      6          7           0        2.872354    0.937557    0.481749
      7          7           0       -0.072188   -0.649968    1.252801
      8          1           0        0.467480   -0.663205    2.099762
      9          1           0       -1.099271   -0.373602    1.315571
     10          6           0       -0.644446    1.699066   -0.562723
     11          1           0        0.221619    2.293327   -0.257863
     12          1           0       -1.357059    1.602342    0.258974
     13          1           0       -1.137305    2.199109   -1.400475
     14          7           0       -1.460685   -0.458231   -1.299791
     15          1           0       -2.074319   -0.364047   -0.476035
     16          1           0       -1.208326   -1.436406   -1.390834
     17          9           0       -2.531513    0.084846    1.188499
 ---------------------------------------------------------------------

 SCF Done:  E(RHF) =  -518.957745958     A.U. after    2 cycles

 The electronic state is 1-A.
 Alpha  occ. eigenvalues --  -26.30789 -26.12076 -15.40849 -15.34355 -15.32991
 Alpha  occ. eigenvalues --  -11.25421 -11.17563 -11.13957 -11.08596  -1.42228
 Alpha  occ. eigenvalues --   -1.19227  -1.11519  -1.08191  -1.03140  -0.88430
 Alpha  occ. eigenvalues --   -0.81403  -0.70596  -0.64133  -0.58568  -0.57036
 Alpha  occ. eigenvalues --   -0.54840  -0.51397  -0.50128  -0.47391  -0.45668
 Alpha  occ. eigenvalues --   -0.44489  -0.40583  -0.39790  -0.38399  -0.38244
 Alpha  occ. eigenvalues --   -0.37303  -0.31984  -0.30143  -0.28307  -0.28150
 Alpha  occ. eigenvalues --   -0.26493
 Alpha virt. eigenvalues --    0.13331   0.14003   0.14314   0.15043   0.15766
 Alpha virt. eigenvalues --    0.17519   0.18220   0.19202   0.20317   0.20996
 Alpha virt. eigenvalues --    0.22943   0.23800   0.24657   0.25101   0.25381

 Mulliken charges:
               1
     1  C    1.691571
     2  C   -2.058129
     3  F   -1.009485
     4  H    0.018184
     5  C   -2.238732
     6  N    0.963670
     7  N    0.396365
     8  H    0.203448
     9  H    0.301706
    10  C    0.119807
    11  H    0.243541
    12  H    0.156190
    13  H    0.123556
    14  N    0.745432
    15  H    0.207240
    16  H    0.219542
    17  F   -1.083906
 Sum of Mulliken charges =  -1.00000

 Dipole moment (field-independent basis, Debye):
    X=              3.5163    Y=             -0.3757    Z=             -1.9025  Tot=              4.0156

 Test job not archived.
 1\1\GINC-SE058\SP\RHF\Aug-CC-pVDZ\C4H8F2N3(1-)\OHZDE\09-Apr-2025\0\\#t
  hf aug-cc-pvdz iop(5/13=1,5/36=2,99/5=2) pseudo=read geom=check guess
 =(read,tcheck) scf=(maxcycle=1)\\title\\-1,1\C,0,-0.002153,0.013328,0.
 035579\C,0,-0.344878,-0.1239,-1.464063\F,0,1.114184,-0.908379,0.239239
 \H,0,0.608663,0.021709,-1.989802\C,0,0.627794,1.326067,0.322868\N,0,1.
 099616,2.381673,0.534607\N,0,-1.060066,-0.265908,0.868032\H,0,-1.07815
 2,0.206074,1.75441\H,0,-1.988791,-0.557718,0.43498\C,0,-1.357494,0.929
 796,-1.893017\H,0,-1.044287,1.940086,-1.614861\H,0,-2.311049,0.676729,

 Normal termination of Gaussian 16 at Wed Apr  9 02:53:45 2025.
