 Gaussian 16, Revision C.01,

 ----------------------------------------------------------------------
 #t hf aug-cc-pvdz symm=none int=(grid=ultrafine) guess=(read,tcheck) s
 table=(opt,rrhf)
 ----------------------------------------------------------------------
 -----
 title
 -----
 Symbolic Z-matrix:
 Charge = -1 Multiplicity = 1

 SCF Done:  E(RHF) =  -591.119438992     A.U. after   15 cycles
 Normal termination of Gaussian 16 at Wed Apr  9 02:57:14 2025.
 Gaussian 16:  ES64L-G16RevC.01  3-Jul-2019

 ----------------------------------------------------------------------
 #t hf aug-cc-pvdz iop(5/13=1,5/36=2,99/5=2) pseudo=read geom=check gue
 ss=(read,tcheck) scf=(maxcycle=1)
 ----------------------------------------------------------------------
 -----
 title
 -----
 Structure from the checkpoint file:  "E2SN2_377_mol1.chk"
 Charge = -1 Multiplicity = 1

                         Standard orientation:
 ---------------------------------------------------------------------
 Center     Atomic      Atomic             Coordinates (Angstroms)
 Number     Number       Type             X           Y           Z
 ---------------------------------------------------------------------
      1          6           0        0.029411   -0.516733    0.024194
      2          1           0       -1.757919   -1.549004   -0.211716
      3          9           0       -0.512642   -0.094509    1.646688
      4          9           0        0.787417   -0.750933   -1.596329
      5          6           0       -1.397800   -0.571583   -0.542495
      6          1           0       -1.324716   -0.577399   -1.626055
      7          7           0        0.689000   -1.674197    0.505273
      8          1           0        0.929782   -1.506520    1.470306
      9          1           0        1.508503   -1.804274   -0.067185
     10          7           0        0.775088    0.800587    0.006859
     11          8           0        0.228845    1.768618   -0.514499
     12          8           0        1.887093    0.825421    0.519602
     13          7           0       -2.360412    0.443648   -0.130993
     14          1           0       -2.018679    1.325812   -0.491724
     15          1           0       -2.252844    0.507685    0.874147
 ---------------------------------------------------------------------

 SCF Done:  E(RHF) =  -591.697886595     A.U. after    2 cycles

 The electronic state is 1-A.
 Alpha  occ. eigenvalues --  -26.19906 -26.17672 -20.43796 -20.43718 -15.63967
 Alpha  occ. eigenvalues --  -15.35791 -15.33509 -11.28566 -11.12120  -1.51373
 Alpha  occ. eigenvalues --   -1.35099  -1.29362  -1.26475  -1.06757  -1.03574
 Alpha  occ. eigenvalues --   -0.91883  -0.80238  -0.68724  -0.62453  -0.60028
 Alpha  occ. eigenvalues --   -0.59503  -0.57146  -0.55412  -0.51549  -0.45894
 Alpha  occ. eigenvalues --   -0.42559  -0.39400  -0.37733  -0.36273  -0.36078
 Alpha  occ. eigenvalues --   -0.35066  -0.33796  -0.33410  -0.32178  -0.30273
 Alpha  occ. eigenvalues --   -0.29705  -0.28112
 Alpha virt. eigenvalues --    0.14107   0.15124   0.15631   0.16194   0.16824
 Alpha virt. eigenvalues --    0.17595   0.21193   0.22059   0.23442   0.24043
 Alpha virt. eigenvalues --    0.26690   0.26921   0.27423   0.28782   0.29202

 Mulliken charges:
               1
     1  C   -1.532174
     2  H    0.217587
     3  F   -0.976054
     4  F   -0.941122
     5  C   -0.593192
     6  H    0.204125
     7  N    0.772600
     8  H    0.408112
     9  H    0.386350
    10  N    3.794898
    11  O   -1.741029
    12  O   -1.637100
    13  N    0.166477
    14  H    0.245000
    15  H    0.225522
 Sum of Mulliken charges =  -1.00000

 Dipole moment (field-independent basis, Debye):
    X=              0.0853    Y=             -0.5393    Z=              0.9295  Tot=              1.0781

 Test job not archived.
 1\1\GINC-SE398\SP\RHF\Aug-CC-pVDZ\C2H6F2N3O2(1-)\OHZDE\09-Apr-2025\0\\
 #t hf aug-cc-pvdz iop(5/13=1,5/36=2,99/5=2) pseudo=read geom=check gue
 ss=(read,tcheck) scf=(maxcycle=1)\\title\\-1,1\C,0,0.72653425,-0.00767
 812,-0.23193086\H,0,1.14805929,1.53011114,-1.56358604\F,0,-0.87699318,
 -0.09797147,-0.95658856\F,0,2.25989958,-0.08224043,0.71609288\C,0,0.87
 139247,1.49716297,-0.50678789\H,0,1.70725211,1.86320911,0.08213119\N,0
 ,1.22725588,-0.98401291,-1.12762207\H,0,0.44986822,-1.55936952,-1.4140
 0252\H,0,1.92038406,-1.5157725,-0.62461165\N,0,0.0885781,-0.45809655,1

 Normal termination of Gaussian 16 at Wed Apr  9 02:57:20 2025.
