 Gaussian 16, Revision C.01,

 ----------------------------------------------------------------------
 #t hf aug-cc-pvdz symm=none int=(grid=ultrafine) guess=(read,tcheck) s
 table=(opt,rrhf)
 ----------------------------------------------------------------------
 -----
 title
 -----
 Symbolic Z-matrix:
 Charge = -1 Multiplicity = 1

 SCF Done:  E(RHF) =  -534.451200404     A.U. after   15 cycles
 Normal termination of Gaussian 16 at Wed Apr  9 02:53:22 2025.
 Gaussian 16:  ES64L-G16RevC.01  3-Jul-2019

 ----------------------------------------------------------------------
 #t hf aug-cc-pvdz iop(5/13=1,5/36=2,99/5=2) pseudo=read geom=check gue
 ss=(read,tcheck) scf=(maxcycle=1)
 ----------------------------------------------------------------------
 -----
 title
 -----
 Structure from the checkpoint file:  "E2SN2_322_mol2.chk"
 Charge = -1 Multiplicity = 1

                         Standard orientation:
 ---------------------------------------------------------------------
 Center     Atomic      Atomic             Coordinates (Angstroms)
 Number     Number       Type             X           Y           Z
 ---------------------------------------------------------------------
      1          6           0       -0.628934    0.378399    0.261396
      2          6           0        0.323625    0.310896   -0.959204
      3          9           0       -1.235629    1.664215    0.258725
      4          1           0       -0.264053    0.714628   -1.793832
      5          6           0       -1.784373   -0.531882    0.010343
      6          7           0       -2.680064   -1.270215   -0.174556
      7          7           0        0.004232    0.110052    1.474987
      8          1           0        0.968777   -0.294463    1.381761
      9          1           0       -0.572839   -0.377140    2.141280
     10          7           0        0.764153   -1.040168   -1.285893
     11          1           0        1.400917   -1.308314   -0.523668
     12          1           0       -0.019783   -1.682948   -1.324911
     13          7           0        1.452773    1.187021   -0.711295
     14          1           0        2.042756    0.670143   -0.046825
     15          1           0        1.973904    1.208990   -1.582105
     16          9           0        2.371268   -0.862238    0.935763
 ---------------------------------------------------------------------

 SCF Done:  E(RHF) =  -534.977344496     A.U. after    2 cycles

 The electronic state is 1-A.
 Alpha  occ. eigenvalues --  -26.31727 -26.12877 -15.40988 -15.34762 -15.33801
 Alpha  occ. eigenvalues --  -15.33526 -11.25593 -11.17595 -11.16513  -1.43908
 Alpha  occ. eigenvalues --   -1.20054  -1.11979  -1.09761  -1.05373  -0.98562
 Alpha  occ. eigenvalues --   -0.85081  -0.73049  -0.64987  -0.59986  -0.57937
 Alpha  occ. eigenvalues --   -0.56096  -0.52499  -0.51767  -0.50936  -0.48903
 Alpha  occ. eigenvalues --   -0.45464  -0.42779  -0.41698  -0.39493  -0.38612
 Alpha  occ. eigenvalues --   -0.32868  -0.31804  -0.30939  -0.29279  -0.28563
 Alpha  occ. eigenvalues --   -0.27583
 Alpha virt. eigenvalues --    0.13848   0.14495   0.14884   0.15433   0.17672
 Alpha virt. eigenvalues --    0.18568   0.19048   0.19213   0.20235   0.22560
 Alpha virt. eigenvalues --    0.23696   0.24350   0.25152   0.25816   0.26592

 Mulliken charges:
               1
     1  C    1.250659
     2  C   -2.369308
     3  F   -0.985127
     4  H   -0.055668
     5  C   -1.896647
     6  N    0.892627
     7  N    0.483797
     8  H    0.264272
     9  H    0.209582
    10  N    0.721054
    11  H    0.219399
    12  H    0.236254
    13  N    0.627015
    14  H    0.210088
    15  H    0.275035
    16  F   -1.083031
 Sum of Mulliken charges =  -1.00000

 Dipole moment (field-independent basis, Debye):
    X=             -3.0121    Y=              1.2452    Z=             -1.6496  Tot=              3.6530

 Test job not archived.
 1\1\GINC-SE424\SP\RHF\Aug-CC-pVDZ\C3H7F2N4(1-)\OHZDE\09-Apr-2025\0\\#t
  hf aug-cc-pvdz iop(5/13=1,5/36=2,99/5=2) pseudo=read geom=check guess
 =(read,tcheck) scf=(maxcycle=1)\\title\\-1,1\C,0,0.082881,0.080554,0.0
 05287\C,0,-0.362161,-0.055595,-1.472952\F,0,1.429319,-0.368389,0.08873
 1\H,0,0.467223,0.368413,-2.053734\C,0,0.198338,1.531847,0.332545\N,0,0
 .261829,2.674909,0.598935\N,0,-0.743666,-0.600865,0.898708\H,0,-1.6497
 12,-0.933597,0.485139\H,0,-0.852819,-0.143232,1.789197\N,0,-1.59042,0.
 665669,-1.784918\H,0,-2.337811,0.146345,-1.305264\H,0,-1.554433,1.6190

 Normal termination of Gaussian 16 at Wed Apr  9 02:53:29 2025.
