 Gaussian 16, Revision C.01,

 ----------------------------------------------------------------------
 #t hf aug-cc-pvdz symm=none int=(grid=ultrafine) guess=(read,tcheck) s
 table=(opt,rrhf)
 ----------------------------------------------------------------------
 -----
 title
 -----
 Symbolic Z-matrix:
 Charge = -1 Multiplicity = 1

 SCF Done:  E(RHF) =  -724.472698322     A.U. after   15 cycles
 Normal termination of Gaussian 16 at Wed Apr  9 02:35:48 2025.
 Gaussian 16:  ES64L-G16RevC.01  3-Jul-2019

 ----------------------------------------------------------------------
 #t hf aug-cc-pvdz iop(5/13=1,5/36=2,99/5=2) pseudo=read geom=check gue
 ss=(read,tcheck) scf=(maxcycle=1)
 ----------------------------------------------------------------------
 -----
 title
 -----
 Structure from the checkpoint file:  "E2SN2_124_mol2.chk"
 Charge = -1 Multiplicity = 1

                         Standard orientation:
 ---------------------------------------------------------------------
 Center     Atomic      Atomic             Coordinates (Angstroms)
 Number     Number       Type             X           Y           Z
 ---------------------------------------------------------------------
      1          6           0        0.197041   -0.152682    0.243686
      2          6           0       -1.017638   -0.802256   -0.412082
      3         17           0        0.357668    1.592042   -0.419198
      4          1           0       -0.940543   -0.707645   -1.496986
      5          1           0       -0.963084   -1.873771   -0.193695
      6          7           0        0.113257   -0.173845    1.658143
      7          1           0       -0.779693    0.200458    1.951499
      8          1           0        0.867460    0.345650    2.088622
      9          6           0        1.452430   -0.794518   -0.169174
     10          7           0        2.452230   -1.324995   -0.483401
     11          6           0       -2.364487   -0.266530    0.042499
     12          1           0       -2.589773   -0.531287    1.081646
     13          1           0       -3.100530   -0.771478   -0.617400
     14          1           0       -2.437009    0.817117   -0.087293
     15          1           0       -3.699668   -1.955965   -2.052797
 ---------------------------------------------------------------------

 SCF Done:  E(RHF) =  -724.828184573     A.U. after    2 cycles

 The electronic state is 1-A.
 Alpha  occ. eigenvalues -- -105.46617 -15.43860 -15.43809 -11.28955 -11.20675
 Alpha  occ. eigenvalues --  -11.13717 -11.09634 -10.51482  -7.68393  -7.68049
 Alpha  occ. eigenvalues --   -7.68045  -1.17555  -1.13128  -0.99363  -0.92586
 Alpha  occ. eigenvalues --   -0.85194  -0.73101  -0.67228  -0.61873  -0.57348
 Alpha  occ. eigenvalues --   -0.52689  -0.50832  -0.48943  -0.43461  -0.42567
 Alpha  occ. eigenvalues --   -0.40725  -0.40285  -0.38305  -0.36635  -0.36073
 Alpha  occ. eigenvalues --   -0.35774  -0.07141
 Alpha virt. eigenvalues --    0.10601   0.12987   0.14136   0.15012   0.15789
 Alpha virt. eigenvalues --    0.16706   0.17318   0.18692   0.20323   0.20930
 Alpha virt. eigenvalues --    0.21517   0.22523   0.23234   0.23700   0.24158

 Mulliken charges:
               1
     1  C   -1.324877
     2  C    0.134746
     3  Cl  -0.000410
     4  H    0.193891
     5  H    0.219302
     6  N    0.626270
     7  H    0.212150
     8  H    0.197451
     9  C   -1.436659
    10  N    0.958419
    11  C   -0.169645
    12  H    0.160325
    13  H   -0.090332
    14  H    0.204352
    15  H   -0.884982
 Sum of Mulliken charges =  -1.00000

 Dipole moment (field-independent basis, Debye):
    X=             11.1614    Y=              9.3886    Z=             10.4923  Tot=             17.9669

 Test job not archived.
 1\1\GINC-SE029\SP\RHF\Aug-CC-pVDZ\C4H8Cl1N2(1-)\OHZDE\09-Apr-2025\0\\#
 t hf aug-cc-pvdz iop(5/13=1,5/36=2,99/5=2) pseudo=read geom=check gues
 s=(read,tcheck) scf=(maxcycle=1)\\title\\-1,1\C,0,-0.681969,0.101786,-
 1.574686\C,0,0.165797,-0.008953,-0.311179\Cl,0,-0.151734,-1.251594,-2.
 756419\H,0,1.223462,-0.02098,-0.58157\H,0,0.006711,0.910738,0.261248\N
 ,0,-2.069238,0.041346,-1.291863\H,0,-2.264317,-0.76884,-0.718223\H,0,-
 2.625644,0.012583,-2.136608\C,0,-0.400355,1.337352,-2.317975\N,0,-0.18
 9343,2.337161,-2.897286\C,0,-0.138696,-1.207163,0.571559\H,0,-1.121374

 Normal termination of Gaussian 16 at Wed Apr  9 02:35:54 2025.
