 Gaussian 16, Revision C.01,

 ----------------------------------------------------------------------
 #t hf aug-cc-pvdz symm=none int=(grid=ultrafine) guess=(read,tcheck) s
 table=(opt,rrhf)
 ----------------------------------------------------------------------
 -----
 title
 -----
 Symbolic Z-matrix:
 Charge = -1 Multiplicity = 1

 SCF Done:  E(RHF) =  -852.223056294     A.U. after   17 cycles
 Normal termination of Gaussian 16 at Wed Apr  9 03:00:11 2025.
 Gaussian 16:  ES64L-G16RevC.01  3-Jul-2019

 ----------------------------------------------------------------------
 #t hf aug-cc-pvdz iop(5/13=1,5/36=2,99/5=2) pseudo=read geom=check gue
 ss=(read,tcheck) scf=(maxcycle=1)
 ----------------------------------------------------------------------
 -----
 title
 -----
 Structure from the checkpoint file:  "E2SN2_46_mol1.chk"
 Charge = -1 Multiplicity = 1

                         Standard orientation:
 ---------------------------------------------------------------------
 Center     Atomic      Atomic             Coordinates (Angstroms)
 Number     Number       Type             X           Y           Z
 ---------------------------------------------------------------------
      1          6           0        0.119426   -0.044295    0.202345
      2          6           0        1.010476   -0.702775   -0.747436
      3         17           0        0.120322    1.888429    0.096214
      4          1           0        1.203148   -3.052739   -0.169005
      5          1           0        0.862910   -1.968895   -0.508759
      6          1           0        0.777835   -0.490604   -1.793353
      7          7           0       -1.300947   -0.416824   -0.173503
      8          8           0       -1.940663   -1.096134    0.627640
      9          8           0       -1.693415   -0.085253   -1.288398
     10          7           0        0.354235   -0.346937    1.570792
     11          1           0        1.359696   -0.211943    1.661171
     12          1           0        0.198574   -1.352204    1.660545
     13          7           0        2.396724   -0.591955   -0.342413
     14          1           0        2.933917   -0.053489   -1.007805
     15          1           0        2.761564   -1.549899   -0.305957
 ---------------------------------------------------------------------

 SCF Done:  E(RHF) =  -852.702143168     A.U. after    2 cycles

 The electronic state is 1-A.
 Alpha  occ. eigenvalues -- -105.41784 -20.46994 -20.46497 -15.66076 -15.37659
 Alpha  occ. eigenvalues --  -15.35764 -11.26373 -11.09993 -10.46587  -7.63488
 Alpha  occ. eigenvalues --   -7.63166  -7.63153  -1.53814  -1.37738  -1.13023
 Alpha  occ. eigenvalues --   -1.04083  -0.96197  -0.88338  -0.79927  -0.70227
 Alpha  occ. eigenvalues --   -0.63706  -0.62518  -0.60386  -0.57759  -0.55580
 Alpha  occ. eigenvalues --   -0.51788  -0.49385  -0.44461  -0.38304  -0.37063
 Alpha  occ. eigenvalues --   -0.35434  -0.34617  -0.32807  -0.32173  -0.31446
 Alpha  occ. eigenvalues --   -0.30675  -0.11152
 Alpha virt. eigenvalues --    0.13162   0.14817   0.15227   0.16511   0.17146
 Alpha virt. eigenvalues --    0.17911   0.18776   0.20103   0.21024   0.22773
 Alpha virt. eigenvalues --    0.24058   0.24957   0.26334   0.27001   0.27863

 Mulliken charges:
               1
     1  C   -1.905251
     2  C   -1.162678
     3  Cl  -0.142206
     4  H   -0.658845
     5  H    0.437607
     6  H   -0.033300
     7  N    3.122238
     8  O   -1.443219
     9  O   -1.583695
    10  N    0.767886
    11  H    0.299458
    12  H    0.462159
    13  N    0.396422
    14  H    0.195983
    15  H    0.247440
 Sum of Mulliken charges =  -1.00000

 Dipole moment (field-independent basis, Debye):
    X=              0.1442    Y=              5.6389    Z=             -0.4253  Tot=              5.6568

 Test job not archived.
 1\1\GINC-SE412\SP\RHF\Aug-CC-pVDZ\C2H7Cl1N3O2(1-)\OHZDE\09-Apr-2025\0\
 \#t hf aug-cc-pvdz iop(5/13=1,5/36=2,99/5=2) pseudo=read geom=check gu
 ess=(read,tcheck) scf=(maxcycle=1)\\title\\-1,1\C,0,-0.12265859,-0.001
 77648,-0.3830998\C,0,-0.20319774,-0.01096713,1.07397884\Cl,0,1.6724353
 5,-0.16481379,-1.08860992\H,0,-2.43965828,0.64127931,1.75724695\H,0,-1
 .46840117,0.11115001,1.33117815\H,0,0.18464845,-0.92294163,1.53328245\
 N,0,-0.81305339,-1.25458531,-0.88442242\O,0,-1.8393637,-1.11093074,-1.
 54667535\O,0,-0.3485385,-2.33376473,-0.52867164\N,0,-0.67483369,1.1433

 Normal termination of Gaussian 16 at Wed Apr  9 03:00:18 2025.
