 Gaussian 16, Revision C.01,

 ----------------------------------------------------------------------
 #t hf aug-cc-pvdz symm=none int=(grid=ultrafine) guess=(read,tcheck) s
 table=(opt,rrhf)
 ----------------------------------------------------------------------
 -----
 title
 -----
 Symbolic Z-matrix:
 Charge = -1 Multiplicity = 1

 SCF Done:  E(RHF) =  -1387.07491430     A.U. after   16 cycles
 Normal termination of Gaussian 16 at Wed Apr  9 03:01:46 2025.
 Gaussian 16:  ES64L-G16RevC.01  3-Jul-2019

 ----------------------------------------------------------------------
 #t hf aug-cc-pvdz iop(5/13=1,5/36=2,99/5=2) pseudo=read geom=check gue
 ss=(read,tcheck) scf=(maxcycle=1)
 ----------------------------------------------------------------------
 -----
 title
 -----
 Structure from the checkpoint file:  "E2SN2_43_mol2.chk"
 Charge = -1 Multiplicity = 1

                         Standard orientation:
 ---------------------------------------------------------------------
 Center     Atomic      Atomic             Coordinates (Angstroms)
 Number     Number       Type             X           Y           Z
 ---------------------------------------------------------------------
      1          6           0       -0.282250   -0.483355   -0.027146
      2          6           0        0.212259    0.956837   -0.155181
      3         17           0       -0.667604   -0.780391    1.770831
      4          1           0        1.162112    0.952680    0.396217
      5          7           0       -1.655854   -0.717389   -0.676228
      6          8           0       -1.987218   -1.887732   -0.823146
      7          8           0       -2.316646    0.261012   -1.008299
      8          7           0        0.605968   -1.368020   -0.595451
      9          1           0        1.588392   -1.133627   -0.375313
     10          1           0        0.373900   -2.333750   -0.412361
     11          6           0       -0.675508    1.932368    0.476029
     12          7           0       -1.311419    2.791900    0.961630
     13          6           0        0.535146    1.350534   -1.600352
     14          1           0       -0.353137    1.308969   -2.231443
     15          1           0        0.927390    2.369501   -1.606391
     16          1           0        1.309587    0.688111   -1.980894
     17         17           0        3.444893   -0.179719    0.045168
 ---------------------------------------------------------------------

 SCF Done:  E(RHF) =  -1387.69028256     A.U. after    2 cycles

 The electronic state is 1-A.
 Alpha  occ. eigenvalues -- -105.46723-105.30627 -20.50879 -20.50419 -15.69887
 Alpha  occ. eigenvalues --  -15.41157 -15.40553 -11.31764 -11.19574 -11.18593
 Alpha  occ. eigenvalues --  -11.14050 -10.51592 -10.35267  -7.68516  -7.68146
 Alpha  occ. eigenvalues --   -7.68142  -7.52050  -7.52004  -7.51986  -1.57907
 Alpha  occ. eigenvalues --   -1.41976  -1.17371  -1.11671  -1.01614  -0.97167
 Alpha  occ. eigenvalues --   -0.92725  -0.81860  -0.76671  -0.75368  -0.71500
 Alpha  occ. eigenvalues --   -0.66728  -0.65526  -0.61249  -0.57996  -0.56544
 Alpha  occ. eigenvalues --   -0.54058  -0.50648  -0.47774  -0.45405  -0.44430
 Alpha  occ. eigenvalues --   -0.43021  -0.40183  -0.38748  -0.37737  -0.37363
 Alpha  occ. eigenvalues --   -0.36626  -0.35500  -0.34404  -0.23803  -0.23160
 Alpha  occ. eigenvalues --   -0.22983
 Alpha virt. eigenvalues --    0.12736   0.13377   0.13703   0.14887   0.15407
 Alpha virt. eigenvalues --    0.16338   0.17771   0.18497   0.19003   0.20988
 Alpha virt. eigenvalues --    0.22289   0.23069   0.23514   0.24058   0.24471

 Mulliken charges:
               1
     1  C   -2.047527
     2  C    0.585781
     3  Cl   0.008506
     4  H    0.335474
     5  N    3.254698
     6  O   -1.599990
     7  O   -1.436351
     8  N    0.692295
     9  H    0.110594
    10  H    0.362532
    11  C   -2.181772
    12  N    1.138436
    13  C    0.017385
    14  H    0.286328
    15  H    0.181388
    16  H    0.257311
    17  Cl  -0.965090
 Sum of Mulliken charges =  -1.00000

 Dipole moment (field-independent basis, Debye):
    X=             -5.8690    Y=             -1.9903    Z=             -1.8507  Tot=              6.4677

 Test job not archived.
 1\1\GINC-SE112\SP\RHF\Aug-CC-pVDZ\C4H6Cl2N3O2(1-)\OHZDE\09-Apr-2025\0\
 \#t hf aug-cc-pvdz iop(5/13=1,5/36=2,99/5=2) pseudo=read geom=check gu
 ess=(read,tcheck) scf=(maxcycle=1)\\title\\-1,1\C,0,-0.291236,-0.02392
 4,-1.469668\C,0,-0.04353,-0.110147,0.035753\Cl,0,-0.022377,-1.726724,-
 2.175101\H,0,1.028363,-0.338586,0.107437\N,0,-1.763505,0.227778,-1.832
 9\O,0,-1.981712,0.550534,-2.994495\O,0,-2.609326,0.101781,-0.953754\N,
 0,0.458807,0.978328,-2.04191\H,0,1.423116,1.007565,-1.670679\H,0,0.418
 005,0.975642,-3.051038\C,0,-0.783283,-1.192498,0.683441\N,0,-1.321422,

 Normal termination of Gaussian 16 at Wed Apr  9 03:01:57 2025.
