 Gaussian 16, Revision C.01,

 ----------------------------------------------------------------------
 #t hf aug-cc-pvdz symm=none int=(grid=ultrafine) guess=(read,tcheck) s
 table=(opt,rrhf)
 ----------------------------------------------------------------------
 -----
 title
 -----
 Symbolic Z-matrix:
 Charge = -1 Multiplicity = 1

 SCF Done:  E(RHF) =  -1099.67679600     A.U. after   16 cycles
 Normal termination of Gaussian 16 at Wed Apr  9 02:56:56 2025.
 Gaussian 16:  ES64L-G16RevC.01  3-Jul-2019

 ----------------------------------------------------------------------
 #t hf aug-cc-pvdz iop(5/13=1,5/36=2,99/5=2) pseudo=read geom=check gue
 ss=(read,tcheck) scf=(maxcycle=1)
 ----------------------------------------------------------------------
 -----
 title
 -----
 Structure from the checkpoint file:  "E2SN2_366_mol2.chk"
 Charge = -1 Multiplicity = 1

                         Standard orientation:
 ---------------------------------------------------------------------
 Center     Atomic      Atomic             Coordinates (Angstroms)
 Number     Number       Type             X           Y           Z
 ---------------------------------------------------------------------
      1          6           0       -1.116917    0.079799   -0.409342
      2          6           0        0.367947    0.294574   -0.207677
      3         17           0       -1.745550   -1.469383    0.284657
      4          1           0        0.505424    1.305063   -0.746675
      5          1           0       -1.252227   -0.031748   -1.486336
      6          7           0       -1.777928    1.204378    0.189633
      7          1           0       -2.760036    1.162241   -0.058339
      8          1           0       -1.339930    1.999862   -0.317655
      9          7           0        1.219744   -0.735182   -0.840717
     10          8           0        0.772525   -1.299072   -1.837813
     11          8           0        2.355344   -0.887331   -0.394627
     12          7           0        0.736877    0.403299    1.226030
     13          8           0        0.988948    1.528212    1.651386
     14          8           0        0.749157   -0.630315    1.893357
     15          9           0       -0.129301    2.499826   -1.450122
 ---------------------------------------------------------------------

 SCF Done:  E(RHF) =  -1100.36659744     A.U. after    2 cycles

 The electronic state is 1-A.
 Alpha  occ. eigenvalues -- -105.44254 -26.14201 -20.48839 -20.48728 -20.47845
 Alpha  occ. eigenvalues --  -20.47459 -15.68809 -15.67475 -15.37026 -11.23363
 Alpha  occ. eigenvalues --  -11.22714 -10.49157  -7.66093  -7.65736  -7.65716
 Alpha  occ. eigenvalues --   -1.56283  -1.54461  -1.39952  -1.38561  -1.21373
 Alpha  occ. eigenvalues --   -1.12263  -1.05059  -0.94784  -0.90092  -0.80578
 Alpha  occ. eigenvalues --   -0.72513  -0.70299  -0.66624  -0.64632  -0.62737
 Alpha  occ. eigenvalues --   -0.61795  -0.59802  -0.56496  -0.53819  -0.50180
 Alpha  occ. eigenvalues --   -0.43041  -0.40792  -0.38764  -0.38681  -0.36914
 Alpha  occ. eigenvalues --   -0.36034  -0.35324  -0.33667  -0.32744  -0.31794
 Alpha  occ. eigenvalues --   -0.30651  -0.29847  -0.28689
 Alpha virt. eigenvalues --    0.13290   0.15191   0.16015   0.16798   0.17053
 Alpha virt. eigenvalues --    0.17835   0.19137   0.21939   0.22806   0.23624
 Alpha virt. eigenvalues --    0.24116   0.24571   0.26010   0.26611   0.27737

 Mulliken charges:
               1
     1  C   -1.228028
     2  C   -0.409778
     3  Cl  -0.109200
     4  H    0.507124
     5  H    0.251740
     6  N    0.406988
     7  H    0.185949
     8  H    0.280928
     9  N    3.129501
    10  O   -1.518616
    11  O   -1.491677
    12  N    2.944352
    13  O   -1.392580
    14  O   -1.515584
    15  F   -1.041118
 Sum of Mulliken charges =  -1.00000

 Dipole moment (field-independent basis, Debye):
    X=             -2.0812    Y=             -4.0889    Z=              0.7544  Tot=              4.6497

 Test job not archived.
 1\1\GINC-SE069\SP\RHF\Aug-CC-pVDZ\C2H4Cl1F1N3O4(1-)\OHZDE\09-Apr-2025\
 0\\#t hf aug-cc-pvdz iop(5/13=1,5/36=2,99/5=2) pseudo=read geom=check
 guess=(read,tcheck) scf=(maxcycle=1)\\title\\-1,1\C,0,-0.051393,0.0161
 88,0.022757\C,0,-0.597552,-0.145547,-1.379802\Cl,0,1.750861,0.163026,0
 .106988\H,0,-1.724704,-0.238219,-1.152983\H,0,-0.270215,-0.923971,0.53
 1566\N,0,-0.677766,1.184439,0.573421\H,0,-0.444484,1.233028,1.558825\H
 ,0,-1.685865,0.94534,0.480974\N,0,-0.121761,-1.359028,-2.078218\O,0,0.
 181205,-2.325976,-1.381512\O,0,-0.157835,-1.359355,-3.307214\N,0,-0.32

 Normal termination of Gaussian 16 at Wed Apr  9 02:57:04 2025.
