 Gaussian 16, Revision C.01,

 ----------------------------------------------------------------------
 #t hf aug-cc-pvdz symm=none int=(grid=ultrafine) guess=(read,tcheck) s
 table=(opt,rrhf)
 ----------------------------------------------------------------------
 -----
 title
 -----
 Symbolic Z-matrix:
 Charge = -1 Multiplicity = 1

 SCF Done:  E(RHF) =  -823.445285935     A.U. after   16 cycles
 Normal termination of Gaussian 16 at Wed Apr  9 02:37:12 2025.
 Gaussian 16:  ES64L-G16RevC.01  3-Jul-2019

 ----------------------------------------------------------------------
 #t hf aug-cc-pvdz iop(5/13=1,5/36=2,99/5=2) pseudo=read geom=check gue
 ss=(read,tcheck) scf=(maxcycle=1)
 ----------------------------------------------------------------------
 -----
 title
 -----
 Structure from the checkpoint file:  "E2SN2_139_mol2.chk"
 Charge = -1 Multiplicity = 1

                         Standard orientation:
 ---------------------------------------------------------------------
 Center     Atomic      Atomic             Coordinates (Angstroms)
 Number     Number       Type             X           Y           Z
 ---------------------------------------------------------------------
      1          6           0       -0.091699   -0.312778   -0.183759
      2          6           0        0.154867    1.072780   -0.782502
      3         17           0       -1.928709   -0.630648   -0.235421
      4          1           0        1.248439    1.100500   -0.813262
      5          1           0       -0.226557    1.036493   -1.810292
      6          7           0        0.597824   -1.377074   -0.825577
      7          1           0        1.630879   -1.041849   -0.696768
      8          1           0        0.389018   -1.297232   -1.818659
      9          6           0        0.248433   -0.313467    1.249649
     10          7           0        0.464408   -0.279090    2.403155
     11          6           0       -0.440485    2.249976   -0.024584
     12          1           0       -1.529604    2.185324    0.036991
     13          1           0       -0.181872    3.188329   -0.524481
     14          1           0       -0.042134    2.296580    0.991907
     15          9           0        2.759728   -0.148116   -0.439905
 ---------------------------------------------------------------------

 SCF Done:  E(RHF) =  -823.886601775     A.U. after    2 cycles

 The electronic state is 1-A.
 Alpha  occ. eigenvalues -- -105.42892 -26.10758 -15.38476 -15.33541 -11.23735
 Alpha  occ. eigenvalues --  -11.15653 -11.11204 -11.10905 -10.47758  -7.64673
 Alpha  occ. eigenvalues --   -7.64342  -7.64332  -1.17907  -1.10419  -1.06920
 Alpha  occ. eigenvalues --   -0.94465  -0.90215  -0.79736  -0.72896  -0.57299
 Alpha  occ. eigenvalues --   -0.54478  -0.51521  -0.50011  -0.47587  -0.44060
 Alpha  occ. eigenvalues --   -0.42701  -0.39963  -0.38241  -0.36457  -0.35722
 Alpha  occ. eigenvalues --   -0.33239  -0.32721  -0.31092  -0.27239  -0.26738
 Alpha  occ. eigenvalues --   -0.25139
 Alpha virt. eigenvalues --    0.12132   0.13310   0.13863   0.14968   0.17013
 Alpha virt. eigenvalues --    0.17866   0.19236   0.19584   0.20695   0.23600
 Alpha virt. eigenvalues --    0.23821   0.24430   0.24864   0.25518   0.26026

 Mulliken charges:
               1
     1  C   -2.053529
     2  C    0.463389
     3  Cl  -0.074402
     4  H    0.220548
     5  H    0.150302
     6  N    0.726215
     7  H    0.429913
     8  H    0.199113
     9  C   -1.299091
    10  N    0.977458
    11  C   -0.317634
    12  H    0.220880
    13  H    0.100726
    14  H    0.255652
    15  F   -0.999540
 Sum of Mulliken charges =  -1.00000

 Dipole moment (field-independent basis, Debye):
    X=             -6.9396    Y=              2.9520    Z=             -3.2712  Tot=              8.2203

 Test job not archived.
 1\1\GINC-SE165\SP\RHF\Aug-CC-pVDZ\C4H7Cl1F1N2(1-)\OHZDE\09-Apr-2025\0\
 \#t hf aug-cc-pvdz iop(5/13=1,5/36=2,99/5=2) pseudo=read geom=check gu
 ess=(read,tcheck) scf=(maxcycle=1)\\title\\-1,1\C,0,-0.000216,-0.02548
 1,-1.471356\C,0,0.015203,-0.00032,0.057757\Cl,0,-1.732885,0.386837,-2.
 02468\H,0,1.082199,-0.131293,0.262651\H,0,-0.278977,1.014561,0.352084\
 N,0,0.925333,0.853149,-2.097029\H,0,1.862466,0.473259,-1.680334\H,0,0.
 775196,1.770916,-1.683087\C,0,0.232258,-1.396355,-1.95819\N,0,0.356079
 ,-2.50411,-2.326906\C,0,-0.848156,-1.039401,0.757469\H,0,-1.905814,-0.

 Normal termination of Gaussian 16 at Wed Apr  9 02:37:22 2025.
