 Gaussian 16, Revision C.01,

 ----------------------------------------------------------------------
 #t hf aug-cc-pvdz symm=none int=(grid=ultrafine) guess=(read,tcheck) s
 table=(opt,rrhf)
 ----------------------------------------------------------------------
 -----
 title
 -----
 Symbolic Z-matrix:
 Charge = -1 Multiplicity = 1

 SCF Done:  E(RHF) =  -990.266415503     A.U. after   16 cycles
 Normal termination of Gaussian 16 at Wed Apr  9 02:58:36 2025.
 Gaussian 16:  ES64L-G16RevC.01  3-Jul-2019

 ----------------------------------------------------------------------
 #t hf aug-cc-pvdz iop(5/13=1,5/36=2,99/5=2) pseudo=read geom=check gue
 ss=(read,tcheck) scf=(maxcycle=1)
 ----------------------------------------------------------------------
 -----
 title
 -----
 Structure from the checkpoint file:  "E2SN2_381_mol2.chk"
 Charge = -1 Multiplicity = 1

                         Standard orientation:
 ---------------------------------------------------------------------
 Center     Atomic      Atomic             Coordinates (Angstroms)
 Number     Number       Type             X           Y           Z
 ---------------------------------------------------------------------
      1          6           0        0.222632    0.119454    0.174371
      2          6           0       -0.667477   -0.242392   -1.010747
      3         17           0        1.078520    1.814928   -0.241967
      4          1           0       -0.031880   -0.218818   -1.897923
      5          7           0       -0.389847    0.059153    1.364035
      6          1           0        0.161485    0.328719    2.162175
      7          1           0       -1.475571    0.128648    1.401333
      8          7           0        1.521248   -0.736621    0.180434
      9          8           0        2.074492   -0.888374    1.265064
     10          8           0        1.921111   -1.205320   -0.881518
     11          7           0       -1.702459    0.777123   -1.145025
     12          1           0       -2.212438    0.577463   -1.998528
     13          1           0       -2.350598    0.646409   -0.355828
     14          6           0       -1.241318   -1.651155   -0.798696
     15          1           0       -0.474449   -2.397561   -0.572608
     16          1           0       -1.755285   -1.962095   -1.715347
     17          1           0       -1.968186   -1.587730    0.012040
     18          9           0       -2.897595    0.036412    1.224899
 ---------------------------------------------------------------------

 SCF Done:  E(RHF) =  -990.871972959     A.U. after    2 cycles

 The electronic state is 1-A.
 Alpha  occ. eigenvalues -- -105.41170 -26.13578 -20.47193 -20.47180 -15.66127
 Alpha  occ. eigenvalues --  -15.35375 -15.33809 -11.26989 -11.14914 -11.09704
 Alpha  occ. eigenvalues --  -10.46003  -7.62903  -7.62581  -7.62577  -1.54279
 Alpha  occ. eigenvalues --   -1.38232  -1.21067  -1.12714  -1.04395  -0.94769
 Alpha  occ. eigenvalues --   -0.88003  -0.86140  -0.76119  -0.70049  -0.65815
 Alpha  occ. eigenvalues --   -0.62838  -0.61501  -0.58475  -0.54411  -0.50988
 Alpha  occ. eigenvalues --   -0.49041  -0.46347  -0.44592  -0.40528  -0.39294
 Alpha  occ. eigenvalues --   -0.37807  -0.36912  -0.33597  -0.32394  -0.31330
 Alpha  occ. eigenvalues --   -0.30806  -0.30336  -0.29571  -0.28412  -0.28053
 Alpha virt. eigenvalues --    0.12526   0.13759   0.14333   0.14998   0.15524
 Alpha virt. eigenvalues --    0.17384   0.17543   0.18557   0.19212   0.20364
 Alpha virt. eigenvalues --    0.22751   0.23336   0.24579   0.25290   0.26161

 Mulliken charges:
               1
     1  C   -2.377780
     2  C   -1.192194
     3  Cl  -0.110231
     4  H    0.072374
     5  N    1.008937
     6  H    0.261402
     7  H    0.408134
     8  N    3.280018
     9  O   -1.524931
    10  O   -1.556955
    11  N    0.803047
    12  H    0.233272
    13  H    0.119837
    14  C    0.164847
    15  H    0.257992
    16  H    0.066341
    17  H    0.194646
    18  F   -1.108756
 Sum of Mulliken charges =  -1.00000

 Dipole moment (field-independent basis, Debye):
    X=              3.3365    Y=             -1.4266    Z=             -2.9340  Tot=              4.6664

 Test job not archived.
 1\1\GINC-SE016\SP\RHF\Aug-CC-pVDZ\C3H8Cl1F1N3O2(1-)\OHZDE\09-Apr-2025\
 0\\#t hf aug-cc-pvdz iop(5/13=1,5/36=2,99/5=2) pseudo=read geom=check
 guess=(read,tcheck) scf=(maxcycle=1)\\title\\-1,1\C,0,-0.159288,-0.077
 519,-0.036608\C,0,-0.5152,-0.247593,-1.510423\Cl,0,1.452317,1.006999,0
 .04745\H,0,0.372577,-0.649687,-2.002149\N,0,-1.174427,0.337033,0.73261
 7\H,0,-0.960871,0.494541,1.703825\H,0,-2.011217,0.854138,0.266354\N,0,
 0.47244,-1.376761,0.539757\O,0,0.375892,-1.544214,1.751437\O,0,1.02839
 7,-2.15256,-0.232485\N,0,-0.811852,1.065449,-2.073049\H,0,-0.937912,0.

 Normal termination of Gaussian 16 at Wed Apr  9 02:58:46 2025.
