 Gaussian 16, Revision C.01,

 ----------------------------------------------------------------------
 #t hf aug-cc-pvdz symm=none int=(grid=ultrafine) guess=(read,tcheck) s
 table=(opt,rrhf)
 ----------------------------------------------------------------------
 -----
 title
 -----
 Symbolic Z-matrix:
 Charge = -1 Multiplicity = 1

 SCF Done:  E(RHF) =  -575.110354542     A.U. after   16 cycles
 Normal termination of Gaussian 16 at Wed Apr  9 02:54:26 2025.
 Gaussian 16:  ES64L-G16RevC.01  3-Jul-2019

 ----------------------------------------------------------------------
 #t hf aug-cc-pvdz iop(5/13=1,5/36=2,99/5=2) pseudo=read geom=check gue
 ss=(read,tcheck) scf=(maxcycle=1)
 ----------------------------------------------------------------------
 -----
 title
 -----
 Structure from the checkpoint file:  "E2SN2_332_mol1.chk"
 Charge = -1 Multiplicity = 1

                         Standard orientation:
 ---------------------------------------------------------------------
 Center     Atomic      Atomic             Coordinates (Angstroms)
 Number     Number       Type             X           Y           Z
 ---------------------------------------------------------------------
      1          6           0       -0.036514    0.488813    0.017192
      2          1           0        1.220906    0.380255   -1.689247
      3          9           0        0.537673    0.030554    1.639829
      4          9           0       -0.865700    0.715685   -1.582503
      5          6           0        1.359108    0.524749   -0.621953
      6          1           0        1.712039    1.550604   -0.464663
      7          6           0       -0.698483    1.733075    0.542997
      8          1           0       -0.147164    2.103389    1.405133
      9          1           0       -0.735435    2.474422   -0.252473
     10          1           0       -1.715656    1.488093    0.843277
     11          7           0       -0.772994   -0.809916    0.022360
     12          8           0       -0.210893   -1.772912   -0.495410
     13          8           0       -1.880476   -0.858345    0.540641
     14          7           0        2.381096   -0.395545   -0.137325
     15          1           0        2.073050   -1.319849   -0.415397
     16          1           0        2.274073   -0.384613    0.870918
 ---------------------------------------------------------------------

 SCF Done:  E(RHF) =  -575.672778378     A.U. after    2 cycles

 The electronic state is 1-A.
 Alpha  occ. eigenvalues --  -26.19060 -26.16961 -20.43373 -20.43130 -15.63919
 Alpha  occ. eigenvalues --  -15.33518 -11.25695 -11.12586 -11.09387  -1.51047
 Alpha  occ. eigenvalues --   -1.34627  -1.28001  -1.25416  -1.04059  -0.96103
 Alpha  occ. eigenvalues --   -0.84680  -0.78763  -0.67989  -0.59740  -0.58625
 Alpha  occ. eigenvalues --   -0.58247  -0.54851  -0.49144  -0.47825  -0.44944
 Alpha  occ. eigenvalues --   -0.43059  -0.40492  -0.37233  -0.36299  -0.34832
 Alpha  occ. eigenvalues --   -0.34031  -0.32916  -0.32761  -0.32179  -0.29843
 Alpha  occ. eigenvalues --   -0.29175  -0.28336
 Alpha virt. eigenvalues --    0.13715   0.14114   0.15110   0.15342   0.16832
 Alpha virt. eigenvalues --    0.17203   0.17644   0.21377   0.21665   0.23914
 Alpha virt. eigenvalues --    0.24069   0.25631   0.26459   0.27378   0.28108

 Mulliken charges:
               1
     1  C   -0.297074
     2  H    0.226910
     3  F   -0.959881
     4  F   -0.928476
     5  C   -0.513971
     6  H    0.163617
     7  C   -0.480240
     8  H    0.278594
     9  H    0.283368
    10  H    0.247362
    11  N    3.665076
    12  O   -1.671724
    13  O   -1.661827
    14  N    0.167521
    15  H    0.248339
    16  H    0.232405
 Sum of Mulliken charges =  -1.00000

 Dipole moment (field-independent basis, Debye):
    X=              0.8258    Y=              1.6689    Z=              0.7195  Tot=              1.9962

 Test job not archived.
 1\1\GINC-SE229\SP\RHF\Aug-CC-pVDZ\C3H7F2N2O2(1-)\OHZDE\09-Apr-2025\0\\
 #t hf aug-cc-pvdz iop(5/13=1,5/36=2,99/5=2) pseudo=read geom=check gue
 ss=(read,tcheck) scf=(maxcycle=1)\\title\\-1,1\C,0,0.74729494,0.036632
 64,0.00503285\H,0,1.67964357,1.93792253,0.14872653\F,0,-0.95442394,-0.
 21427188,0.46746508\F,0,2.54783793,0.04598833,-0.23161382\C,0,0.668590
 88,1.57004576,0.00198045\H,0,0.36030464,1.83189251,-1.01687832\C,0,0.5
 8025976,-0.76693775,-1.25561618\H,0,-0.44111885,-0.66897458,-1.6183178
 4\H,0,1.29859862,-0.41623382,-1.9936737\H,0,0.78561763,-1.81262817,-1.

 Normal termination of Gaussian 16 at Wed Apr  9 02:54:34 2025.
