 Gaussian 16, Revision C.01,

 ----------------------------------------------------------------------
 #t hf aug-cc-pvdz symm=none int=(grid=ultrafine) guess=(read,tcheck) s
 table=(opt,rrhf)
 ----------------------------------------------------------------------
 -----
 title
 -----
 Symbolic Z-matrix:
 Charge = -1 Multiplicity = 1

 SCF Done:  E(RHF) =  -1332.02781738     A.U. after   16 cycles
 Normal termination of Gaussian 16 at Wed Apr  9 02:54:53 2025.
 Gaussian 16:  ES64L-G16RevC.01  3-Jul-2019

 ----------------------------------------------------------------------
 #t hf aug-cc-pvdz iop(5/13=1,5/36=2,99/5=2) pseudo=read geom=check gue
 ss=(read,tcheck) scf=(maxcycle=1)
 ----------------------------------------------------------------------
 -----
 title
 -----
 Structure from the checkpoint file:  "E2SN2_329_mol2.chk"
 Charge = -1 Multiplicity = 1

                         Standard orientation:
 ---------------------------------------------------------------------
 Center     Atomic      Atomic             Coordinates (Angstroms)
 Number     Number       Type             X           Y           Z
 ---------------------------------------------------------------------
      1          6           0        0.549295   -0.185487    0.204015
      2          6           0        0.081489    0.893770   -0.759983
      3         17           0        2.340588   -0.361453    0.124695
      4          1           0       -1.023606    0.914520   -0.689330
      5          1           0        0.372756    0.638418   -1.778894
      6          6           0        0.101977    0.044527    1.621920
      7          1           0        0.514460    0.992577    1.971292
      8          1           0       -0.990796    0.098298    1.616600
      9          1           0        0.441945   -0.761765    2.268400
     10          7           0        0.022721   -1.531428   -0.306570
     11          8           0       -0.072658   -1.668468   -1.520386
     12          8           0       -0.198201   -2.395871    0.531734
     13          6           0        0.631576    2.192534   -0.398873
     14          7           0        1.080462    3.240825   -0.119319
     15         17           0       -3.108600    0.419973    0.081182
 ---------------------------------------------------------------------

 SCF Done:  E(RHF) =  -1332.58555314     A.U. after    2 cycles

 The electronic state is 1-A.
 Alpha  occ. eigenvalues -- -105.48934-105.28960 -20.49709 -20.49587 -15.69276
 Alpha  occ. eigenvalues --  -15.42033 -11.29122 -11.19483 -11.18217 -11.14166
 Alpha  occ. eigenvalues --  -10.53805 -10.33559  -7.70751  -7.70365  -7.70353
 Alpha  occ. eigenvalues --   -7.50330  -7.50296  -7.50284  -1.56956  -1.41009
 Alpha  occ. eigenvalues --   -1.13054  -1.10053  -0.95189  -0.92620  -0.88576
 Alpha  occ. eigenvalues --   -0.74449  -0.73943  -0.66071  -0.64914  -0.64679
 Alpha  occ. eigenvalues --   -0.59887  -0.56086  -0.53135  -0.50491  -0.48721
 Alpha  occ. eigenvalues --   -0.46128  -0.45009  -0.40755  -0.39564  -0.39246
 Alpha  occ. eigenvalues --   -0.38614  -0.37441  -0.37272  -0.34952  -0.21568
 Alpha  occ. eigenvalues --   -0.21323  -0.21223
 Alpha virt. eigenvalues --    0.12493   0.13276   0.14480   0.14825   0.15921
 Alpha virt. eigenvalues --    0.17044   0.17667   0.19283   0.21202   0.22587
 Alpha virt. eigenvalues --    0.23292   0.23723   0.24374   0.24666   0.25210

 Mulliken charges:
               1
     1  C   -1.971875
     2  C    0.821670
     3  Cl  -0.063298
     4  H    0.340335
     5  H    0.321644
     6  C    0.174450
     7  H    0.304425
     8  H    0.281885
     9  H    0.229409
    10  N    3.254578
    11  O   -1.564103
    12  O   -1.510296
    13  C   -1.555085
    14  N    0.897643
    15  Cl  -0.961382
 Sum of Mulliken charges =  -1.00000

 Dipole moment (field-independent basis, Debye):
    X=              9.2548    Y=             -2.8078    Z=              0.2439  Tot=              9.6744

 Test job not archived.
 1\1\GINC-SE159\SP\RHF\Aug-CC-pVDZ\C4H5Cl2N2O2(1-)\OHZDE\09-Apr-2025\0\
 \#t hf aug-cc-pvdz iop(5/13=1,5/36=2,99/5=2) pseudo=read geom=check gu
 ess=(read,tcheck) scf=(maxcycle=1)\\title\\-1,1\C,0,-0.005068,-0.00274
 7,0.010123\C,0,-0.588805,0.303533,-1.360415\Cl,0,1.795106,-0.00556,-0.
 063033\H,0,-1.689142,0.244889,-1.248714\H,0,-0.259672,-0.442768,-2.083
 551\C,0,-0.489877,0.928027,1.088119\H,0,-0.196358,1.947168,0.830827\H,
 0,-1.581192,0.855709,1.117687\H,0,-0.062539,0.657282,2.051291\N,0,-0.3
 63034,-1.451574,0.359832\O,0,-0.430022,-2.248762,-0.568193\O,0,-0.4874

 Normal termination of Gaussian 16 at Wed Apr  9 02:55:03 2025.
