 Gaussian 16, Revision C.01,

 ----------------------------------------------------------------------
 #t hf aug-cc-pvdz symm=none int=(grid=ultrafine) guess=(read,tcheck) s
 table=(opt,rrhf)
 ----------------------------------------------------------------------
 -----
 title
 -----
 Symbolic Z-matrix:
 Charge = -1 Multiplicity = 1

 SCF Done:  E(RHF) =  -1295.34087565     A.U. after   15 cycles
 Normal termination of Gaussian 16 at Wed Apr  9 02:41:38 2025.
 Gaussian 16:  ES64L-G16RevC.01  3-Jul-2019

 ----------------------------------------------------------------------
 #t hf aug-cc-pvdz iop(5/13=1,5/36=2,99/5=2) pseudo=read geom=check gue
 ss=(read,tcheck) scf=(maxcycle=1)
 ----------------------------------------------------------------------
 -----
 title
 -----
 Structure from the checkpoint file:  "E2SN2_189_mol2.chk"
 Charge = -1 Multiplicity = 1

                         Standard orientation:
 ---------------------------------------------------------------------
 Center     Atomic      Atomic             Coordinates (Angstroms)
 Number     Number       Type             X           Y           Z
 ---------------------------------------------------------------------
      1          6           0        0.235888    0.939613    0.043327
      2          6           0        0.492276   -0.348476    0.801893
      3         17           0        1.832282    1.558937   -0.534693
      4          1           0        1.304810   -0.224702    1.523094
      5          1           0       -0.356805    0.720010   -0.843873
      6          6           0       -0.445207    1.983312    0.900914
      7          1           0        0.105292    2.146754    1.830946
      8          1           0       -0.507056    2.925287    0.352872
      9          1           0       -1.455504    1.639170    1.118068
     10          7           0        1.086794   -1.398940   -0.159017
     11          8           0        1.822819   -2.236115    0.372072
     12          8           0        0.741697   -1.408684   -1.335097
     13          7           0       -0.687305   -0.816011    1.429195
     14          1           0       -0.557085   -1.732196    1.836335
     15          1           0       -1.499530   -0.789116    0.800638
     16         17           0       -3.129012   -0.115928   -0.540714
 ---------------------------------------------------------------------

 SCF Done:  E(RHF) =  -1295.87548840     A.U. after    2 cycles

 The electronic state is 1-A.
 Alpha  occ. eigenvalues -- -105.45136-105.28577 -20.48019 -20.47495 -15.66133
 Alpha  occ. eigenvalues --  -15.38411 -11.22944 -11.19911 -11.12570 -10.50024
 Alpha  occ. eigenvalues --  -10.33176  -7.66959  -7.66620  -7.66599  -7.49951
 Alpha  occ. eigenvalues --   -7.49912  -7.49900  -1.54391  -1.38493  -1.12532
 Alpha  occ. eigenvalues --   -1.01612  -0.93415  -0.88258  -0.78277  -0.74182
 Alpha  occ. eigenvalues --   -0.71083  -0.66971  -0.63277  -0.62586  -0.60107
 Alpha  occ. eigenvalues --   -0.55420  -0.49629  -0.48206  -0.46774  -0.42891
 Alpha  occ. eigenvalues --   -0.40699  -0.39810  -0.37125  -0.35060  -0.34535
 Alpha  occ. eigenvalues --   -0.33178  -0.33006  -0.21518  -0.20996  -0.20830
 Alpha virt. eigenvalues --    0.12302   0.12832   0.14003   0.14394   0.16613
 Alpha virt. eigenvalues --    0.17462   0.18055   0.18249   0.19923   0.21080
 Alpha virt. eigenvalues --    0.23348   0.23917   0.24255   0.25220   0.26063

 Mulliken charges:
               1
     1  C   -0.263171
     2  C   -1.548663
     3  Cl  -0.154673
     4  H    0.031712
     5  H    0.297358
     6  C   -0.208807
     7  H    0.232570
     8  H    0.139102
     9  H    0.292888
    10  N    2.896324
    11  O   -1.451490
    12  O   -1.412928
    13  N    0.796567
    14  H    0.251257
    15  H    0.085209
    16  Cl  -0.983255
 Sum of Mulliken charges =  -1.00000

 Dipole moment (field-independent basis, Debye):
    X=              8.0353    Y=              1.9559    Z=              3.7172  Tot=              9.0670

 Test job not archived.
 1\1\GINC-SE132\SP\RHF\Aug-CC-pVDZ\C3H7Cl2N2O2(1-)\OHZDE\09-Apr-2025\0\
 \#t hf aug-cc-pvdz iop(5/13=1,5/36=2,99/5=2) pseudo=read geom=check gu
 ess=(read,tcheck) scf=(maxcycle=1)\\title\\-1,1\C,0,-0.207006,0.012128
 ,0.008181\C,0,-0.465055,0.225011,-1.47115\Cl,0,1.521015,0.434875,0.326
 567\H,0,0.315033,-0.243453,-2.077505\H,0,-0.813415,0.712525,0.581195\C
 ,0,-0.47963,-1.412574,0.43778\H,0,0.065658,-2.122447,-0.189487\H,0,-0.
 174362,-1.547348,1.477078\H,0,-1.551383,-1.591608,0.363062\N,0,-0.2724
 3,1.716618,-1.81507\O,0,0.087837,1.943669,-2.974081\O,0,-0.56322,2.572

 Normal termination of Gaussian 16 at Wed Apr  9 02:41:47 2025.
