 Gaussian 16, Revision C.01,

 ----------------------------------------------------------------------
 #t hf aug-cc-pvdz symm=none int=(grid=ultrafine) guess=(read,tcheck) s
 table=(opt,rrhf)
 ----------------------------------------------------------------------
 -----
 title
 -----
 Symbolic Z-matrix:
 Charge = -1 Multiplicity = 1

 SCF Done:  E(RHF) =  -380.463388254     A.U. after   14 cycles
 Normal termination of Gaussian 16 at Wed Apr  9 02:58:50 2025.
 Gaussian 16:  ES64L-G16RevC.01  3-Jul-2019

 ----------------------------------------------------------------------
 #t hf aug-cc-pvdz iop(5/13=1,5/36=2,99/5=2) pseudo=read geom=check gue
 ss=(read,tcheck) scf=(maxcycle=1)
 ----------------------------------------------------------------------
 -----
 title
 -----
 Structure from the checkpoint file:  "E2SN2_412_mol2.chk"
 Charge = -1 Multiplicity = 1

                         Standard orientation:
 ---------------------------------------------------------------------
 Center     Atomic      Atomic             Coordinates (Angstroms)
 Number     Number       Type             X           Y           Z
 ---------------------------------------------------------------------
      1          6           0       -0.687560   -0.127875   -0.007462
      2          6           0        0.440259    0.627663   -0.722571
      3          9           0       -0.473037   -1.496866   -0.226257
      4          1           0        0.235963    1.692793   -0.517751
      5          1           0        0.375987    0.436076   -1.796043
      6          7           0       -0.726695    0.070287    1.414312
      7          1           0       -0.926678    1.075791    1.518577
      8          1           0        0.185659   -0.123720    1.817153
      9          7           0       -1.911436    0.266961   -0.628342
     10          1           0       -1.955873    1.287999   -0.443156
     11          1           0       -2.650261   -0.143514   -0.062772
     12          6           0        1.756705    0.248752   -0.227908
     13          7           0        2.815274   -0.053176    0.181768
     14          1           0       -1.303883    2.766630    0.493782
 ---------------------------------------------------------------------

 SCF Done:  E(RHF) =  -380.848407499     A.U. after    2 cycles

 The electronic state is 1-A.
 Alpha  occ. eigenvalues --  -26.31704 -15.39866 -15.35590 -15.35119 -11.25119
 Alpha  occ. eigenvalues --  -11.17399 -11.14499  -1.44623  -1.11478  -1.10061
 Alpha  occ. eigenvalues --   -1.01206  -0.92113  -0.72177  -0.63207  -0.59298
 Alpha  occ. eigenvalues --   -0.58422  -0.54657  -0.52089  -0.50317  -0.48531
 Alpha  occ. eigenvalues --   -0.47644  -0.44009  -0.42799  -0.37744  -0.36806
 Alpha  occ. eigenvalues --   -0.33854  -0.32096  -0.11408
 Alpha virt. eigenvalues --    0.13707   0.14590   0.15407   0.16778   0.18207
 Alpha virt. eigenvalues --    0.18665   0.19268   0.20318   0.22023   0.22394
 Alpha virt. eigenvalues --    0.24032   0.24987   0.26123   0.27079   0.27274

 Mulliken charges:
               1
     1  C   -1.951312
     2  C    0.439362
     3  F   -0.954908
     4  H    0.349195
     5  H    0.201220
     6  N    0.641259
     7  H    0.308516
     8  H    0.194455
     9  N    0.812928
    10  H    0.279595
    11  H    0.240579
    12  C   -1.517864
    13  N    0.814166
    14  H   -0.857192
 Sum of Mulliken charges =  -1.00000

 Dipole moment (field-independent basis, Debye):
    X=              1.2726    Y=             -6.0337    Z=             -2.0831  Tot=              6.5087

 Test job not archived.
 1\1\GINC-SE457\SP\RHF\Aug-CC-pVDZ\C3H7F1N3(1-)\OHZDE\09-Apr-2025\0\\#t
  hf aug-cc-pvdz iop(5/13=1,5/36=2,99/5=2) pseudo=read geom=check guess
 =(read,tcheck) scf=(maxcycle=1)\\title\\-1,1\C,0,-0.011939,0.002768,-0
 .007691\C,0,-0.441029,0.004558,-1.480808\F,0,1.390678,-0.009809,0.0154
 22\H,0,-1.544168,0.02241,-1.449915\H,0,-0.096849,-0.9169,-1.955818\N,0
 ,-0.435021,1.156444,0.735459\H,0,-1.463613,1.095245,0.723008\H,0,-0.15
 3382,2.003971,0.251013\N,0,-0.507976,-1.206076,0.568421\H,0,-1.537755,
 -1.114397,0.46873\H,0,-0.324313,-1.129595,1.565737\C,0,0.075235,1.1590

 Normal termination of Gaussian 16 at Wed Apr  9 02:58:55 2025.
