 Gaussian 16, Revision C.01,

 ----------------------------------------------------------------------
 #t hf aug-cc-pvdz symm=none int=(grid=ultrafine) guess=(read,tcheck) s
 table=(opt,rrhf)
 ----------------------------------------------------------------------
 -----
 title
 -----
 Symbolic Z-matrix:
 Charge = -1 Multiplicity = 1

 SCF Done:  E(RHF) =  -722.136296959     A.U. after   16 cycles
 Normal termination of Gaussian 16 at Wed Apr  9 03:01:41 2025.
 Gaussian 16:  ES64L-G16RevC.01  3-Jul-2019

 ----------------------------------------------------------------------
 #t hf aug-cc-pvdz iop(5/13=1,5/36=2,99/5=2) pseudo=read geom=check gue
 ss=(read,tcheck) scf=(maxcycle=1)
 ----------------------------------------------------------------------
 -----
 title
 -----
 Structure from the checkpoint file:  "E2SN2_85_mol2.chk"
 Charge = -1 Multiplicity = 1

                         Standard orientation:
 ---------------------------------------------------------------------
 Center     Atomic      Atomic             Coordinates (Angstroms)
 Number     Number       Type             X           Y           Z
 ---------------------------------------------------------------------
      1          6           0        0.399045   -0.119375   -0.388557
      2          6           0       -0.626668   -0.991039    0.326489
      3         17           0        0.264148    1.593467    0.125204
      4          1           0       -0.428605   -0.948654    1.400221
      5          1           0        0.232914   -0.107328   -1.468525
      6          1           0       -0.454097   -2.036209    0.047501
      7          6           0        1.768585   -0.595057   -0.176616
      8          7           0        2.882133   -0.968466   -0.164495
      9          6           0       -1.980679   -0.615407   -0.039324
     10          7           0       -3.087006   -0.318549   -0.306491
     11          1           0        0.231678   -1.062369    2.857285
 ---------------------------------------------------------------------

 SCF Done:  E(RHF) =  -722.471305950     A.U. after    2 cycles

 The electronic state is 1-A.
 Alpha  occ. eigenvalues -- -105.47154 -15.42364 -15.40735 -11.25908 -11.19552
 Alpha  occ. eigenvalues --  -11.18204 -11.15913 -10.51982  -7.68935  -7.68532
 Alpha  occ. eigenvalues --   -7.68514  -1.12934  -1.11257  -1.05220  -0.92800
 Alpha  occ. eigenvalues --   -0.83271  -0.64349  -0.59433  -0.56276  -0.51465
 Alpha  occ. eigenvalues --   -0.50595  -0.48572  -0.46779  -0.40289  -0.39540
 Alpha  occ. eigenvalues --   -0.38205  -0.37278  -0.36240  -0.35279  -0.08981
 Alpha virt. eigenvalues --    0.11878   0.13624   0.16054   0.16626   0.18624
 Alpha virt. eigenvalues --    0.20902   0.21417   0.21898   0.22162   0.22506
 Alpha virt. eigenvalues --    0.23133   0.23292   0.25106   0.25852   0.26126

 Mulliken charges:
               1
     1  C   -0.361103
     2  C    0.867360
     3  Cl   0.020115
     4  H   -0.096094
     5  H    0.261849
     6  H    0.302377
     7  C   -1.285289
     8  N    0.867311
     9  C   -1.777175
    10  N    0.879017
    11  H   -0.678367
 Sum of Mulliken charges =  -1.00000

 Dipole moment (field-independent basis, Debye):
    X=             -0.2082    Y=              3.1495    Z=            -10.5277  Tot=             10.9906

 Test job not archived.
 1\1\GINC-SE456\SP\RHF\Aug-CC-pVDZ\C4H4Cl1N2(1-)\OHZDE\09-Apr-2025\0\\#
 t hf aug-cc-pvdz iop(5/13=1,5/36=2,99/5=2) pseudo=read geom=check gues
 s=(read,tcheck) scf=(maxcycle=1)\\title\\-1,1\C,0,-0.507546,-0.013322,
 -1.40144\C,0,-0.002098,0.056328,0.034822\Cl,0,-0.00003,1.429706,-2.337
 428\H,0,1.090271,0.07459,0.0169\H,0,-1.599468,-0.01131,-1.443603\H,0,-
 0.261615,-0.878411,0.543654\C,0,-0.060206,-1.230382,-2.083705\N,0,0.14
 615,-2.226644,-2.670603\C,0,-0.599537,1.171166,0.747891\N,0,-1.056635,
 2.077758,1.341704\H,0,2.64037,-0.281726,-0.188458\\Version=ES64L-G16Re

 Normal termination of Gaussian 16 at Wed Apr  9 03:01:46 2025.
