 Gaussian 16, Revision C.01,

 ----------------------------------------------------------------------
 #t hf aug-cc-pvdz symm=none int=(grid=ultrafine) guess=(read,tcheck) s
 table=(opt,rrhf)
 ----------------------------------------------------------------------
 -----
 title
 -----
 Symbolic Z-matrix:
 Charge = -1 Multiplicity = 1

 SCF Done:  E(RHF) =  -417.141357035     A.U. after   16 cycles
 Normal termination of Gaussian 16 at Wed Apr  9 02:38:44 2025.
 Gaussian 16:  ES64L-G16RevC.01  3-Jul-2019

 ----------------------------------------------------------------------
 #t hf aug-cc-pvdz iop(5/13=1,5/36=2,99/5=2) pseudo=read geom=check gue
 ss=(read,tcheck) scf=(maxcycle=1)
 ----------------------------------------------------------------------
 -----
 title
 -----
 Structure from the checkpoint file:  "E2SN2_164_mol2.chk"
 Charge = -1 Multiplicity = 1

                         Standard orientation:
 ---------------------------------------------------------------------
 Center     Atomic      Atomic             Coordinates (Angstroms)
 Number     Number       Type             X           Y           Z
 ---------------------------------------------------------------------
      1          6           0        0.628936   -0.290037    0.161387
      2          6           0       -0.581435   -0.922605   -0.516351
      3          9           0        0.397416   -0.313138    1.564944
      4          1           0       -0.622034   -1.955293   -0.161787
      5          1           0       -0.357469   -0.973306   -1.597126
      6          7           0        1.756661   -1.035890   -0.188626
      7          1           0        1.683198   -1.308225   -1.255401
      8          1           0        2.606375   -0.502405   -0.040395
      9          6           0        0.716259    1.166892   -0.144404
     10          7           0        0.845878    2.307228   -0.397992
     11          6           0       -1.835826   -0.246540   -0.219848
     12          7           0       -2.862185    0.279680    0.001039
     13          1           0        1.363112   -1.545916   -2.615441
 ---------------------------------------------------------------------

 SCF Done:  E(RHF) =  -417.549140202     A.U. after    2 cycles

 The electronic state is 1-A.
 Alpha  occ. eigenvalues --  -26.34491 -15.41817 -15.41108 -15.36275 -11.28966
 Alpha  occ. eigenvalues --  -11.18466 -11.18173 -11.17048  -1.46685  -1.12579
 Alpha  occ. eigenvalues --   -1.11480  -1.09077  -0.95083  -0.81302  -0.68151
 Alpha  occ. eigenvalues --   -0.62923  -0.59309  -0.55663  -0.52603  -0.51562
 Alpha  occ. eigenvalues --   -0.50401  -0.49031  -0.46718  -0.45492  -0.40094
 Alpha  occ. eigenvalues --   -0.39606  -0.37926  -0.37619  -0.33842  -0.12903
 Alpha virt. eigenvalues --    0.13588   0.14462   0.16090   0.17887   0.18127
 Alpha virt. eigenvalues --    0.19035   0.20496   0.20767   0.22495   0.23130
 Alpha virt. eigenvalues --    0.23778   0.24245   0.25007   0.25092   0.26307

 Mulliken charges:
               1
     1  C    0.107506
     2  C    0.543068
     3  F   -0.936712
     4  H    0.234298
     5  H    0.297786
     6  N    0.579669
     7  H    0.107625
     8  H    0.276598
     9  C   -1.626154
    10  N    0.880313
    11  C   -1.639958
    12  N    0.846600
    13  H   -0.670638
 Sum of Mulliken charges =  -1.00000

 Dipole moment (field-independent basis, Debye):
    X=             -1.0832    Y=              0.2472    Z=              6.2783  Tot=              6.3758

 Test job not archived.
 1\1\GINC-SE143\SP\RHF\Aug-CC-pVDZ\C4H5F1N3(1-)\OHZDE\09-Apr-2025\0\\#t
  hf aug-cc-pvdz iop(5/13=1,5/36=2,99/5=2) pseudo=read geom=check guess
 =(read,tcheck) scf=(maxcycle=1)\\title\\-1,1\C,0,0.011474,-0.042142,0.
 027984\C,0,-0.563288,-0.263334,-1.366718\F,0,1.411024,0.171763,-0.1120
 57\H,0,-0.380575,0.660998,-1.919922\H,0,-1.659318,-0.347858,-1.255453\
 N,0,-0.627567,1.067442,0.585674\H,0,-1.699803,1.023931,0.328789\H,0,-0
 .52851,1.075442,1.594989\C,0,-0.061595,-1.288344,0.843715\N,0,-0.14222
 7,-2.2364,1.53376\C,0,0.031982,-1.389212,-2.071365\N,0,0.493476,-2.292

 Normal termination of Gaussian 16 at Wed Apr  9 02:38:49 2025.
