 Gaussian 16, Revision C.01,

 ----------------------------------------------------------------------
 #t hf aug-cc-pvdz symm=none int=(grid=ultrafine) guess=(read,tcheck) s
 table=(opt,rrhf)
 ----------------------------------------------------------------------
 -----
 title
 -----
 Symbolic Z-matrix:
 Charge = -1 Multiplicity = 1

 SCF Done:  E(RHF) =  -685.461624410     A.U. after   15 cycles
 Normal termination of Gaussian 16 at Wed Apr  9 02:34:21 2025.
 Gaussian 16:  ES64L-G16RevC.01  3-Jul-2019

 ----------------------------------------------------------------------
 #t hf aug-cc-pvdz iop(5/13=1,5/36=2,99/5=2) pseudo=read geom=check gue
 ss=(read,tcheck) scf=(maxcycle=1)
 ----------------------------------------------------------------------
 -----
 title
 -----
 Structure from the checkpoint file:  "E2SN2_123_mol2.chk"
 Charge = -1 Multiplicity = 1

                         Standard orientation:
 ---------------------------------------------------------------------
 Center     Atomic      Atomic             Coordinates (Angstroms)
 Number     Number       Type             X           Y           Z
 ---------------------------------------------------------------------
      1          6           0        0.608848    0.626399    0.263019
      2          6           0       -0.716647    0.340337    0.971402
      3         17           0        1.477929   -0.953761   -0.033259
      4          1           0       -1.075094    1.345593    1.207012
      5          1           0        1.226120    1.177502    0.973146
      6          1           0       -0.568074   -0.232828    1.891218
      7          7           0        0.508250    1.408664   -0.917343
      8          1           0       -0.238499    1.047463   -1.503941
      9          1           0        0.204764    2.334180   -0.530337
     10          6           0       -1.674906   -0.352874    0.120323
     11          7           0       -2.450368   -0.903353   -0.569100
     12          1           0       -0.382952    3.321672    0.804946
 ---------------------------------------------------------------------

 SCF Done:  E(RHF) =  -685.774917218     A.U. after    2 cycles

 The electronic state is 1-A.
 Alpha  occ. eigenvalues -- -105.43157 -15.40163 -15.35282 -11.21370 -11.17629
 Alpha  occ. eigenvalues --  -11.15500 -10.48056  -7.64978  -7.64638  -7.64635
 Alpha  occ. eigenvalues --   -1.11216  -1.08801  -0.95007  -0.90322  -0.73101
 Alpha  occ. eigenvalues --   -0.59739  -0.57110  -0.53284  -0.51470  -0.49267
 Alpha  occ. eigenvalues --   -0.46649  -0.40711  -0.38307  -0.37041  -0.33453
 Alpha  occ. eigenvalues --   -0.33104  -0.31027  -0.10592
 Alpha virt. eigenvalues --    0.13163   0.15336   0.15670   0.17246   0.17802
 Alpha virt. eigenvalues --    0.18941   0.20061   0.21842   0.22758   0.24114
 Alpha virt. eigenvalues --    0.24744   0.25558   0.26165   0.26686   0.27588

 Mulliken charges:
               1
     1  C   -1.531947
     2  C    0.359748
     3  Cl  -0.103766
     4  H    0.339752
     5  H    0.189935
     6  H    0.218156
     7  N    0.513239
     8  H    0.222291
     9  H    0.233799
    10  C   -1.400905
    11  N    0.787113
    12  H   -0.827417
 Sum of Mulliken charges =  -1.00000

 Dipole moment (field-independent basis, Debye):
    X=              2.2677    Y=             -8.5537    Z=              0.5705  Tot=              8.8676

 Test job not archived.
 1\1\GINC-SE070\SP\RHF\Aug-CC-pVDZ\C3H6Cl1N2(1-)\OHZDE\09-Apr-2025\0\\#
 t hf aug-cc-pvdz iop(5/13=1,5/36=2,99/5=2) pseudo=read geom=check gues
 s=(read,tcheck) scf=(maxcycle=1)\\title\\-1,1\C,0,-0.480675,-0.405268,
 -1.213596\C,0,0.024767,-0.122334,0.202403\Cl,0,-1.558972,-1.880357,-1.
 176482\H,0,0.745757,0.681771,0.034697\H,0,0.392198,-0.688846,-1.802404
 \H,0,0.524887,-0.99382,0.63489\N,0,-1.10149,0.692319,-1.865673\H,0,-1.
 768182,1.13071,-1.23676\H,0,-0.291704,1.3451,-1.994438\C,0,-1.031517,0
 .323487,1.101649\N,0,-1.881609,0.691792,1.823708\H,0,1.37585,1.806737,

 Normal termination of Gaussian 16 at Wed Apr  9 02:34:26 2025.
