 Gaussian 16, Revision C.01,

 ----------------------------------------------------------------------
 #t hf aug-cc-pvdz symm=none int=(grid=ultrafine) guess=(read,tcheck) s
 table=(opt,rrhf)
 ----------------------------------------------------------------------
 -----
 title
 -----
 Symbolic Z-matrix:
 Charge = -1 Multiplicity = 1

 SCF Done:  E(RHF) =  -832.192790917     A.U. after   17 cycles
 Normal termination of Gaussian 16 at Wed Apr  9 02:58:28 2025.
 Gaussian 16:  ES64L-G16RevC.01  3-Jul-2019

 ----------------------------------------------------------------------
 #t hf aug-cc-pvdz iop(5/13=1,5/36=2,99/5=2) pseudo=read geom=check gue
 ss=(read,tcheck) scf=(maxcycle=1)
 ----------------------------------------------------------------------
 -----
 title
 -----
 Structure from the checkpoint file:  "E2SN2_395_mol1.chk"
 Charge = -1 Multiplicity = 1

                         Standard orientation:
 ---------------------------------------------------------------------
 Center     Atomic      Atomic             Coordinates (Angstroms)
 Number     Number       Type             X           Y           Z
 ---------------------------------------------------------------------
      1          6           0       -0.532088    0.018573    0.506272
      2          1           0        0.886710    1.309349    1.370181
      3         17           0       -0.141249   -1.565472   -0.747062
      4          1           0       -1.185287    1.634230    1.439286
      5          6           0        0.722773    0.902037    0.367928
      6          7           0       -0.581488   -0.706018    1.758552
      7          1           0       -1.068593   -1.579911    1.600655
      8          1           0       -1.099315   -0.130619    2.409601
      9          6           0       -1.757788    0.485741   -0.107520
     10          7           0       -2.759489    0.627800   -0.719179
     11          7           0        0.509386    1.918574   -0.654875
     12          1           0        1.339114    2.499261   -0.711845
     13          1           0       -0.253438    2.491269   -0.296236
     14          6           0        1.954815    0.156346    0.054091
     15          7           0        3.039558   -0.267032   -0.103956
 ---------------------------------------------------------------------

 SCF Done:  E(RHF) =  -832.641942447     A.U. after    2 cycles

 The electronic state is 1-A.
 Alpha  occ. eigenvalues -- -105.39069 -15.39427 -15.38831 -15.38637 -15.35967
 Alpha  occ. eigenvalues --  -11.26846 -11.20111 -11.16871 -11.15613 -10.43872
 Alpha  occ. eigenvalues --   -7.60744  -7.60481  -7.60463  -1.13139  -1.09950
 Alpha  occ. eigenvalues --   -1.07738  -1.06045  -0.91504  -0.85261  -0.79928
 Alpha  occ. eigenvalues --   -0.63992  -0.62044  -0.59533  -0.56228  -0.54287
 Alpha  occ. eigenvalues --   -0.50524  -0.47644  -0.45960  -0.41392  -0.38900
 Alpha  occ. eigenvalues --   -0.37848  -0.36097  -0.34807  -0.33765  -0.31660
 Alpha  occ. eigenvalues --   -0.30291  -0.29232  -0.15110
 Alpha virt. eigenvalues --    0.12938   0.13455   0.14315   0.15549   0.16260
 Alpha virt. eigenvalues --    0.17908   0.18426   0.19792   0.20492   0.22378
 Alpha virt. eigenvalues --    0.23362   0.24097   0.24447   0.24782   0.25910

 Mulliken charges:
               1
     1  C   -1.968690
     2  H    0.195267
     3  Cl  -0.178080
     4  H   -0.353309
     5  C    0.691651
     6  N    0.838895
     7  H    0.202243
     8  H    0.290298
     9  C   -1.494638
    10  N    1.001976
    11  N    0.452842
    12  H    0.137860
    13  H    0.346672
    14  C   -2.238379
    15  N    1.075393
 Sum of Mulliken charges =  -1.00000

 Dipole moment (field-independent basis, Debye):
    X=              1.9872    Y=              0.4119    Z=              2.2246  Tot=              3.0112

 Test job not archived.
 1\1\GINC-SE113\SP\RHF\Aug-CC-pVDZ\C4H6Cl1N4(1-)\OHZDE\09-Apr-2025\0\\#
 t hf aug-cc-pvdz iop(5/13=1,5/36=2,99/5=2) pseudo=read geom=check gues
 s=(read,tcheck) scf=(maxcycle=1)\\title\\-1,1\C,0,0.33651512,-0.086143
 55,-0.05808419\H,0,1.54166391,1.55250916,-0.59461206\Cl,0,-1.6784396,-
 0.29250335,-0.41888206\H,0,2.17739026,-0.00665107,0.65773245\C,0,0.558
 2707,1.43705493,-0.12888933\N,0,0.83563754,-0.78761105,-1.22191292\H,0
 ,0.25564438,-1.60403103,-1.37343242\H,0,1.78422775,-1.06788153,-1.0104
 4267\C,0,0.3910517,-0.71659496,1.24456106\N,0,0.20165937,-1.33016429,2

 Normal termination of Gaussian 16 at Wed Apr  9 02:58:35 2025.
