 Gaussian 16, Revision C.01,

 ----------------------------------------------------------------------
 #t hf aug-cc-pvdz symm=none int=(grid=ultrafine) guess=(read,tcheck) s
 table=(opt,rrhf)
 ----------------------------------------------------------------------
 -----
 title
 -----
 Symbolic Z-matrix:
 Charge = -1 Multiplicity = 1

 SCF Done:  E(RHF) =  -1236.26666100     A.U. after   15 cycles
 Normal termination of Gaussian 16 at Wed Apr  9 02:48:14 2025.
 Gaussian 16:  ES64L-G16RevC.01  3-Jul-2019

 ----------------------------------------------------------------------
 #t hf aug-cc-pvdz iop(5/13=1,5/36=2,99/5=2) pseudo=read geom=check gue
 ss=(read,tcheck) scf=(maxcycle=1)
 ----------------------------------------------------------------------
 -----
 title
 -----
 Structure from the checkpoint file:  "E2SN2_262_mol2.chk"
 Charge = -1 Multiplicity = 1

                         Standard orientation:
 ---------------------------------------------------------------------
 Center     Atomic      Atomic             Coordinates (Angstroms)
 Number     Number       Type             X           Y           Z
 ---------------------------------------------------------------------
      1          6           0        0.147410    0.578382    0.146959
      2          6           0        0.123622   -0.858915   -0.426235
      3         17           0        0.984010    0.620161    1.733286
      4          1           0       -0.440565   -0.769650   -1.361327
      5          1           0       -0.904732    0.847160    0.304776
      6          6           0        0.790287    1.518880   -0.760036
      7          7           0        1.307891    2.256077   -1.514566
      8          7           0       -0.562123   -1.836012    0.387059
      9          1           0       -1.543791   -1.552670    0.389003
     10          1           0       -0.208941   -1.795231    1.336280
     11          6           0        1.491477   -1.308412   -0.732904
     12          7           0        2.583794   -1.668201   -0.969211
     13         17           0       -3.073756    0.110882   -0.283781
 ---------------------------------------------------------------------

 SCF Done:  E(RHF) =  -1236.73227577     A.U. after    2 cycles

 The electronic state is 1-A.
 Alpha  occ. eigenvalues -- -105.48368-105.30648 -15.43397 -15.42266 -15.39176
 Alpha  occ. eigenvalues --  -11.24738 -11.22651 -11.20286 -11.19053 -10.53203
 Alpha  occ. eigenvalues --  -10.35277  -7.70151  -7.69774  -7.69750  -7.52044
 Alpha  occ. eigenvalues --   -7.52015  -7.51998  -1.14718  -1.13050  -1.10706
 Alpha  occ. eigenvalues --   -1.03245  -0.91414  -0.82599  -0.76284  -0.66766
 Alpha  occ. eigenvalues --   -0.63472  -0.58045  -0.55459  -0.54106  -0.52129
 Alpha  occ. eigenvalues --   -0.50086  -0.47235  -0.41779  -0.40837  -0.39948
 Alpha  occ. eigenvalues --   -0.39566  -0.37703  -0.37460  -0.34675  -0.23482
 Alpha  occ. eigenvalues --   -0.23175  -0.23034
 Alpha virt. eigenvalues --    0.13299   0.14754   0.15393   0.16823   0.17291
 Alpha virt. eigenvalues --    0.17949   0.18700   0.21461   0.21908   0.22364
 Alpha virt. eigenvalues --    0.22760   0.23550   0.23920   0.24387   0.24640

 Mulliken charges:
               1
     1  C    0.355693
     2  C   -0.742418
     3  Cl   0.018705
     4  H    0.185970
     5  H    0.342525
     6  C   -1.355048
     7  N    0.856683
     8  N    0.685655
     9  H    0.215416
    10  H    0.243297
    11  C   -1.864430
    12  N    0.999740
    13  Cl  -0.941789
 Sum of Mulliken charges =  -1.00000

 Dipole moment (field-independent basis, Debye):
    X=              4.1129    Y=             -0.5315    Z=              3.9005  Tot=              5.6932

 Test job not archived.
 1\1\GINC-SE149\SP\RHF\Aug-CC-pVDZ\C4H4Cl2N3(1-)\OHZDE\09-Apr-2025\0\\#
 t hf aug-cc-pvdz iop(5/13=1,5/36=2,99/5=2) pseudo=read geom=check gues
 s=(read,tcheck) scf=(maxcycle=1)\\title\\-1,1\C,0,-0.139649,0.145882,0
 .040973\C,0,-0.572962,0.388253,-1.424781\Cl,0,1.520283,-0.530485,0.113
 306\H,0,-1.602135,0.75625,-1.346981\H,0,-0.836193,-0.607248,0.430554\C
 ,0,-0.197254,1.363639,0.83735\N,0,-0.259862,2.360126,1.456853\N,0,-0.6
 09514,-0.789687,-2.259966\H,0,-1.351495,-1.377323,-1.875118\H,0,0.2712
 52,-1.285791,-2.185455\C,0,0.264201,1.43233,-2.038119\N,0,0.938206,2.2

 Normal termination of Gaussian 16 at Wed Apr  9 02:48:20 2025.
