 Gaussian 16, Revision C.01,

 ----------------------------------------------------------------------
 #t hf aug-cc-pvdz symm=none int=(grid=ultrafine) guess=(read,tcheck) s
 table=(opt,rrhf)
 ----------------------------------------------------------------------
 -----
 title
 -----
 Symbolic Z-matrix:
 Charge = -1 Multiplicity = 1

 SCF Done:  E(RHF) =  -1292.98736935     A.U. after   16 cycles
 Normal termination of Gaussian 16 at Wed Apr  9 02:38:45 2025.
 Gaussian 16:  ES64L-G16RevC.01  3-Jul-2019

 ----------------------------------------------------------------------
 #t hf aug-cc-pvdz iop(5/13=1,5/36=2,99/5=2) pseudo=read geom=check gue
 ss=(read,tcheck) scf=(maxcycle=1)
 ----------------------------------------------------------------------
 -----
 title
 -----
 Structure from the checkpoint file:  "E2SN2_170_mol2.chk"
 Charge = -1 Multiplicity = 1

                         Standard orientation:
 ---------------------------------------------------------------------
 Center     Atomic      Atomic             Coordinates (Angstroms)
 Number     Number       Type             X           Y           Z
 ---------------------------------------------------------------------
      1          6           0       -0.275647   -0.300877   -0.193220
      2          6           0       -0.524963    0.746030    0.870579
      3         17           0       -1.783934   -1.112943   -0.695450
      4          1           0        0.447581    1.215919    1.056825
      5          1           0        0.229125    0.111104   -1.062861
      6          1           0       -0.904175    0.274633    1.778392
      7          7           0        0.633860   -1.383498    0.335257
      8          8           0        1.174442   -2.086265   -0.507182
      9          8           0        0.724655   -1.513226    1.552627
     10          6           0       -1.470274    1.756451    0.410128
     11          7           0       -2.242591    2.573370    0.073886
     12         17           0        2.367529    1.445622   -0.453070
 ---------------------------------------------------------------------

 SCF Done:  E(RHF) =  -1293.50200206     A.U. after    2 cycles

 The electronic state is 1-A.
 Alpha  occ. eigenvalues -- -105.48997-105.28982 -20.49407 -20.49360 -15.69054
 Alpha  occ. eigenvalues --  -15.41932 -11.27537 -11.19362 -11.18849 -10.53862
 Alpha  occ. eigenvalues --  -10.33587  -7.70815  -7.70417  -7.70400  -7.50354
 Alpha  occ. eigenvalues --   -7.50323  -7.50312  -1.56634  -1.40710  -1.12749
 Alpha  occ. eigenvalues --   -1.08990  -0.95016  -0.92730  -0.75884  -0.74306
 Alpha  occ. eigenvalues --   -0.68077  -0.65637  -0.64207  -0.60703  -0.56615
 Alpha  occ. eigenvalues --   -0.51798  -0.50304  -0.47217  -0.41971  -0.39621
 Alpha  occ. eigenvalues --   -0.39101  -0.38685  -0.37489  -0.37240  -0.34592
 Alpha  occ. eigenvalues --   -0.21855  -0.21395  -0.21332
 Alpha virt. eigenvalues --    0.12789   0.14763   0.15552   0.16654   0.17336
 Alpha virt. eigenvalues --    0.18111   0.21191   0.22177   0.23055   0.23686
 Alpha virt. eigenvalues --    0.24702   0.25042   0.25427   0.25856   0.26066

 Mulliken charges:
               1
     1  C   -0.691169
     2  C    0.359368
     3  Cl  -0.030438
     4  H    0.414730
     5  H    0.154651
     6  H    0.330399
     7  N    2.931839
     8  O   -1.474476
     9  O   -1.420848
    10  C   -1.453984
    11  N    0.849624
    12  Cl  -0.969697
 Sum of Mulliken charges =  -1.00000

 Dipole moment (field-independent basis, Debye):
    X=             -6.5382    Y=             -5.7405    Z=              2.2656  Tot=              8.9908

 Test job not archived.
 1\1\GINC-SE460\SP\RHF\Aug-CC-pVDZ\C3H3Cl2N2O2(1-)\OHZDE\09-Apr-2025\0\
 \#t hf aug-cc-pvdz iop(5/13=1,5/36=2,99/5=2) pseudo=read geom=check gu
 ess=(read,tcheck) scf=(maxcycle=1)\\title\\-1,1\C,0,-0.11777,-0.020914
 ,0.003506\C,0,-0.52758,0.014963,-1.452725\Cl,0,1.632753,0.261088,0.210
 289\H,0,-1.616729,-0.107775,-1.456603\H,0,-0.679652,0.68882,0.604642\H
 ,0,-0.047142,-0.799212,-1.997188\N,0,-0.402287,-1.378885,0.598084\O,0,
 -0.436165,-1.431468,1.819518\O,0,-0.525902,-2.327719,-0.171004\C,0,-0.
 182148,1.290002,-2.070408\N,0,0.100756,2.298652,-2.599064\Cl,0,-3.2444

 Normal termination of Gaussian 16 at Wed Apr  9 02:38:51 2025.
