 Gaussian 16, Revision C.01,

 ----------------------------------------------------------------------
 #t hf aug-cc-pvdz symm=none int=(grid=ultrafine) guess=(read,tcheck) s
 table=(opt,rrhf)
 ----------------------------------------------------------------------
 -----
 title
 -----
 Symbolic Z-matrix:
 Charge = -1 Multiplicity = 1

 SCF Done:  E(RHF) =  -695.648112332     A.U. after   17 cycles
 Normal termination of Gaussian 16 at Wed Apr  9 03:00:08 2025.
 Gaussian 16:  ES64L-G16RevC.01  3-Jul-2019

 ----------------------------------------------------------------------
 #t hf aug-cc-pvdz iop(5/13=1,5/36=2,99/5=2) pseudo=read geom=check gue
 ss=(read,tcheck) scf=(maxcycle=1)
 ----------------------------------------------------------------------
 -----
 title
 -----
 Structure from the checkpoint file:  "E2SN2_407_mol1.chk"
 Charge = -1 Multiplicity = 1

                         Standard orientation:
 ---------------------------------------------------------------------
 Center     Atomic      Atomic             Coordinates (Angstroms)
 Number     Number       Type             X           Y           Z
 ---------------------------------------------------------------------
      1          6           0       -1.222442   -0.431248    0.142502
      2          1           0        0.230436    0.138841    1.591180
      3          9           0       -1.648086    0.880409   -0.674841
      4          1           0       -0.606855   -1.834190    1.150017
      5          6           0        0.194366   -0.041808    0.527133
      6          7           0       -1.455141   -1.334207   -0.952365
      7          1           0       -2.267414   -1.000568   -1.454465
      8          1           0       -1.579586   -2.266250   -0.595181
      9          7           0       -2.167734   -0.205708    1.227063
     10          1           0       -2.451358   -1.094157    1.604284
     11          1           0       -2.953199    0.296021    0.830471
     12          7           0        0.655772    1.307274   -0.100712
     13          8           0        1.125791    1.307178   -1.233365
     14          8           0        0.504598    2.298420    0.609015
     15          7           0        1.338047   -0.950741    0.196242
     16          8           0        2.255969   -0.917104    1.022955
     17          8           0        1.367717   -1.568663   -0.856372
 ---------------------------------------------------------------------

 SCF Done:  E(RHF) =  -696.322909732     A.U. after    2 cycles

 The electronic state is 1-A.
 Alpha  occ. eigenvalues --  -26.25226 -20.45918 -20.45899 -20.45740 -20.45242
 Alpha  occ. eigenvalues --  -15.65832 -15.65154 -15.36892 -15.36180 -11.28070
 Alpha  occ. eigenvalues --  -11.23811  -1.53441  -1.52252  -1.37008  -1.36535
 Alpha  occ. eigenvalues --   -1.35858  -1.10051  -1.03250  -1.02506  -0.85919
 Alpha  occ. eigenvalues --   -0.79705  -0.70809  -0.67174  -0.64667  -0.62854
 Alpha  occ. eigenvalues --   -0.60748  -0.59886  -0.59254  -0.57818  -0.56615
 Alpha  occ. eigenvalues --   -0.54565  -0.50184  -0.43392  -0.40857  -0.40524
 Alpha  occ. eigenvalues --   -0.39354  -0.35838  -0.35524  -0.34996  -0.34674
 Alpha  occ. eigenvalues --   -0.31727  -0.31281  -0.30764  -0.15349
 Alpha virt. eigenvalues --    0.12611   0.13726   0.14858   0.15622   0.16695
 Alpha virt. eigenvalues --    0.17226   0.18657   0.20259   0.22496   0.23340
 Alpha virt. eigenvalues --    0.24121   0.24955   0.26130   0.26254   0.26813

 Mulliken charges:
               1
     1  C   -3.174362
     2  H    0.162054
     3  F   -1.023005
     4  H   -0.334607
     5  C   -0.019889
     6  N    1.094531
     7  H    0.255298
     8  H    0.301675
     9  N    0.969048
    10  H    0.242184
    11  H    0.267045
    12  N    3.332217
    13  O   -1.562224
    14  O   -1.541372
    15  N    2.987881
    16  O   -1.499406
    17  O   -1.457068
 Sum of Mulliken charges =  -1.00000

 Dipole moment (field-independent basis, Debye):
    X=             -3.0484    Y=              0.1279    Z=             -0.4733  Tot=              3.0875

 Test job not archived.
 1\1\GINC-SE042\SP\RHF\Aug-CC-pVDZ\C2H6F1N4O4(1-)\OHZDE\09-Apr-2025\0\\
 #t hf aug-cc-pvdz iop(5/13=1,5/36=2,99/5=2) pseudo=read geom=check gue
 ss=(read,tcheck) scf=(maxcycle=1)\\title\\-1,1\C,0,0.43344475,-0.17298
 444,0.09549401\H,0,1.47411148,1.52925272,0.839756\F,0,-0.93461094,-0.3
 1613374,0.91865784\H,0,2.01900919,0.14810079,-0.7677382\C,0,0.6323687,
 1.32960977,0.19342576\N,0,-0.09067592,-0.75880959,-1.10880042\H,0,-0.7
 2170879,-1.50097617,-0.83641448\H,0,0.6703595,-1.08999901,-1.67705129\
 N,0,1.23447635,-0.89791846,1.07198502\H,0,1.98579795,-1.36746096,0.595

 Normal termination of Gaussian 16 at Wed Apr  9 03:00:18 2025.
