 Gaussian 16, Revision C.01,

 ----------------------------------------------------------------------
 #t hf aug-cc-pvdz symm=none int=(grid=ultrafine) guess=(read,tcheck) s
 table=(opt,rrhf)
 ----------------------------------------------------------------------
 -----
 title
 -----
 Symbolic Z-matrix:
 Charge = -1 Multiplicity = 1

 SCF Done:  E(RHF) =  -1295.29745599     A.U. after   16 cycles
 Normal termination of Gaussian 16 at Wed Apr  9 02:41:35 2025.
 Gaussian 16:  ES64L-G16RevC.01  3-Jul-2019

 ----------------------------------------------------------------------
 #t hf aug-cc-pvdz iop(5/13=1,5/36=2,99/5=2) pseudo=read geom=check gue
 ss=(read,tcheck) scf=(maxcycle=1)
 ----------------------------------------------------------------------
 -----
 title
 -----
 Structure from the checkpoint file:  "E2SN2_189_mol1.chk"
 Charge = -1 Multiplicity = 1

                         Standard orientation:
 ---------------------------------------------------------------------
 Center     Atomic      Atomic             Coordinates (Angstroms)
 Number     Number       Type             X           Y           Z
 ---------------------------------------------------------------------
      1          6           0       -0.644339    0.559182    0.018750
      2          1           0       -0.644913   -1.558254   -0.248880
      3         17           0        1.291251    1.886718   -0.298937
      4         17           0       -2.848736   -0.310608   -0.220945
      5          6           0        0.019849   -0.719672   -0.455395
      6          1           0       -1.008250    1.193158   -0.764545
      7          6           0       -0.833120    0.916314    1.464230
      8          1           0       -1.358651    0.131205    2.003015
      9          1           0        0.120668    1.092349    1.954265
     10          1           0       -1.433168    1.825142    1.513056
     11          7           0        1.241632   -1.083902    0.433732
     12          8           0        2.301697   -1.340901   -0.127520
     13          8           0        1.036163   -1.208806    1.638132
     14          7           0        0.341892   -0.658444   -1.828545
     15          1           0        0.765934   -1.522905   -2.134040
     16          1           0        0.993747    0.104558   -1.971590
 ---------------------------------------------------------------------

 SCF Done:  E(RHF) =  -1295.83377376     A.U. after    2 cycles

 The electronic state is 1-A.
 Alpha  occ. eigenvalues -- -105.34242-105.33200 -20.47444 -20.47072 -15.66100
 Alpha  occ. eigenvalues --  -15.39050 -11.23730 -11.23091 -11.11658 -10.39040
 Alpha  occ. eigenvalues --  -10.37969  -7.55851  -7.55727  -7.55711  -7.54777
 Alpha  occ. eigenvalues --   -7.54655  -7.54643  -1.54300  -1.38320  -1.12654
 Alpha  occ. eigenvalues --   -0.97480  -0.91414  -0.81064  -0.80383  -0.77488
 Alpha  occ. eigenvalues --   -0.71616  -0.66023  -0.63457  -0.62399  -0.59131
 Alpha  occ. eigenvalues --   -0.55900  -0.48917  -0.46440  -0.46068  -0.42557
 Alpha  occ. eigenvalues --   -0.39949  -0.37316  -0.34298  -0.33274  -0.30051
 Alpha  occ. eigenvalues --   -0.26910  -0.26704  -0.25702  -0.25304  -0.23372
 Alpha virt. eigenvalues --    0.12921   0.13855   0.14749   0.15160   0.15965
 Alpha virt. eigenvalues --    0.16699   0.17632   0.18479   0.20296   0.21648
 Alpha virt. eigenvalues --    0.22286   0.23362   0.24022   0.24427   0.25943

 Mulliken charges:
               1
     1  C    0.120317
     2  H    0.154733
     3  Cl  -0.770094
     4  Cl  -0.737763
     5  C   -1.510549
     6  H   -0.063640
     7  C   -0.233661
     8  H    0.258936
     9  H    0.270646
    10  H    0.157497
    11  N    3.012321
    12  O   -1.464650
    13  O   -1.538469
    14  N    0.798568
    15  H    0.250037
    16  H    0.295772
 Sum of Mulliken charges =  -1.00000

 Dipole moment (field-independent basis, Debye):
    X=              2.0153    Y=             -2.2661    Z=              0.2346  Tot=              3.0416

 Test job not archived.
 1\1\GINC-SE108\SP\RHF\Aug-CC-pVDZ\C3H7Cl2N2O2(1-)\OHZDE\09-Apr-2025\0\
 \#t hf aug-cc-pvdz iop(5/13=1,5/36=2,99/5=2) pseudo=read geom=check gu
 ess=(read,tcheck) scf=(maxcycle=1)\\title\\-1,1\C,0,0.52957058,-0.0223
 5771,0.07202171\H,0,1.75165869,1.71694221,0.263071\Cl,0,-1.8349632,0.0
 8100644,-0.01786847\Cl,0,2.79428387,-0.45116295,-0.52844121\C,0,0.7064
 8391,1.48428879,0.05994697\H,0,0.3836137,-0.46499592,-0.89269319\C,0,0
 .59388677,-0.86120279,1.31492051\H,0,1.52370438,-0.70087246,1.85584581
 \H,0,-0.23561905,-0.64162617,1.98165863\H,0,0.54682149,-1.90935861,1.0

 Normal termination of Gaussian 16 at Wed Apr  9 02:41:43 2025.
