 Gaussian 16, Revision C.01,

 ----------------------------------------------------------------------
 #t hf aug-cc-pvdz symm=none int=(grid=ultrafine) guess=(read,tcheck) s
 table=(opt,rrhf)
 ----------------------------------------------------------------------
 -----
 title
 -----
 Symbolic Z-matrix:
 Charge = -1 Multiplicity = 1

 SCF Done:  E(RHF) =  -836.235552271     A.U. after   17 cycles
 Normal termination of Gaussian 16 at Wed Apr  9 02:56:19 2025.
 Gaussian 16:  ES64L-G16RevC.01  3-Jul-2019

 ----------------------------------------------------------------------
 #t hf aug-cc-pvdz iop(5/13=1,5/36=2,99/5=2) pseudo=read geom=check gue
 ss=(read,tcheck) scf=(maxcycle=1)
 ----------------------------------------------------------------------
 -----
 title
 -----
 Structure from the checkpoint file:  "E2SN2_367_mol1.chk"
 Charge = -1 Multiplicity = 1

                         Standard orientation:
 ---------------------------------------------------------------------
 Center     Atomic      Atomic             Coordinates (Angstroms)
 Number     Number       Type             X           Y           Z
 ---------------------------------------------------------------------
      1          6           0        0.961307    0.191586    0.727573
      2          1           0       -0.558280    1.615091    1.036142
      3         17           0        0.957560   -1.429941   -0.607623
      4          1           0        1.049177    1.447172    2.345260
      5          6           0       -0.303034    0.905141    0.251013
      6          1           0        0.851803   -0.390447    1.627663
      7          7           0        2.225731    0.765574    0.315587
      8          1           0        2.865452    0.005920    0.115435
      9          1           0        2.540267    1.292132    1.118225
     10          7           0       -1.466934   -0.050842    0.265395
     11          8           0       -2.261488   -0.041114   -0.675492
     12          8           0       -1.604792   -0.729644    1.280933
     13          6           0       -0.165766    1.600335   -1.081520
     14          1           0        0.667990    2.297362   -1.006846
     15          1           0        0.050826    0.883700   -1.872442
     16          1           0       -1.082138    2.138637   -1.326644
 ---------------------------------------------------------------------

 SCF Done:  E(RHF) =  -836.698390841     A.U. after    2 cycles

 The electronic state is 1-A.
 Alpha  occ. eigenvalues -- -105.37049 -20.45822 -20.45522 -15.65032 -15.36406
 Alpha  occ. eigenvalues --  -11.22598 -11.17664 -11.11070 -10.41888  -7.58743
 Alpha  occ. eigenvalues --   -7.58534  -7.58507  -1.52724  -1.36546  -1.08212
 Alpha  occ. eigenvalues --   -1.00565  -0.85500  -0.84735  -0.77620  -0.68992
 Alpha  occ. eigenvalues --   -0.63093  -0.61330  -0.59939  -0.57234  -0.54781
 Alpha  occ. eigenvalues --   -0.49710  -0.45852  -0.42472  -0.41147  -0.36289
 Alpha  occ. eigenvalues --   -0.34932  -0.32930  -0.31660  -0.31274  -0.29006
 Alpha  occ. eigenvalues --   -0.28541  -0.11864
 Alpha virt. eigenvalues --    0.12979   0.13665   0.14964   0.15249   0.16398
 Alpha virt. eigenvalues --    0.16574   0.17473   0.19557   0.20433   0.21009
 Alpha virt. eigenvalues --    0.23604   0.24126   0.24761   0.25277   0.26238

 Mulliken charges:
               1
     1  C   -1.355374
     2  H    0.214028
     3  Cl  -0.533688
     4  H   -0.595201
     5  C   -0.424012
     6  H    0.057509
     7  N    0.565993
     8  H    0.255083
     9  H    0.304366
    10  N    2.878332
    11  O   -1.441200
    12  O   -1.509434
    13  C   -0.152956
    14  H    0.291143
    15  H    0.266811
    16  H    0.178601
 Sum of Mulliken charges =  -1.00000

 Dipole moment (field-independent basis, Debye):
    X=             -0.6874    Y=             -0.0046    Z=             -4.4366  Tot=              4.4895

 Test job not archived.
 1\1\GINC-SE073\SP\RHF\Aug-CC-pVDZ\C3H8Cl1N2O2(1-)\OHZDE\09-Apr-2025\0\
 \#t hf aug-cc-pvdz iop(5/13=1,5/36=2,99/5=2) pseudo=read geom=check gu
 ess=(read,tcheck) scf=(maxcycle=1)\\title\\-1,1\C,0,0.40751918,-0.0805
 5276,-0.0311722\H,0,1.69997163,1.57630001,0.09184121\Cl,0,-1.67400046,
 -0.11596715,0.24834954\H,0,2.43612245,-0.36785604,0.02671267\C,0,0.628
 70942,1.43134966,-0.03851998\H,0,0.66327485,-0.58033461,0.88845872\N,0
 ,0.43133497,-0.74691266,-1.31700281\H,0,-0.27400729,-1.47408156,-1.307
 3189\H,0,1.35558883,-1.14994327,-1.37820284\N,0,0.04859118,2.03989895,

 Normal termination of Gaussian 16 at Wed Apr  9 02:56:26 2025.
