 Gaussian 16, Revision C.01,

 ----------------------------------------------------------------------
 #t hf aug-cc-pvdz symm=none int=(grid=ultrafine) guess=(read,tcheck) s
 table=(opt,rrhf)
 ----------------------------------------------------------------------
 -----
 title
 -----
 Symbolic Z-matrix:
 Charge = -1 Multiplicity = 1

 SCF Done:  E(RHF) =  -476.163706099     A.U. after   17 cycles
 Normal termination of Gaussian 16 at Wed Apr  9 02:51:16 2025.
 Gaussian 16:  ES64L-G16RevC.01  3-Jul-2019

 ----------------------------------------------------------------------
 #t hf aug-cc-pvdz iop(5/13=1,5/36=2,99/5=2) pseudo=read geom=check gue
 ss=(read,tcheck) scf=(maxcycle=1)
 ----------------------------------------------------------------------
 -----
 title
 -----
 Structure from the checkpoint file:  "E2SN2_2_mol1.chk"
 Charge = -1 Multiplicity = 1

                         Standard orientation:
 ---------------------------------------------------------------------
 Center     Atomic      Atomic             Coordinates (Angstroms)
 Number     Number       Type             X           Y           Z
 ---------------------------------------------------------------------
      1          6           0       -0.034613    0.575499    0.233330
      2          6           0        1.231004    0.536655   -0.499502
      3          9           0        0.058267    0.558066    1.648949
      4          1           0        0.420396    1.229355   -2.754844
      5          1           0        0.809366    0.834296   -1.834721
      6          1           0        1.755903    1.481273   -0.307891
      7          7           0       -0.809922   -0.711110   -0.081210
      8          8           0       -0.557694   -1.707061    0.595805
      9          8           0       -1.585567   -0.684275   -1.032353
     10          6           0        2.120640   -0.676799   -0.322256
     11          1           0        1.669257   -1.571809   -0.764269
     12          1           0        3.067814   -0.510661   -0.848436
     13          1           0        2.357091   -0.923169    0.722811
     14          7           0       -0.907591    1.670256   -0.088642
     15          1           0       -0.893284    1.743463   -1.109128
     16          1           0       -0.444449    2.499185    0.267845
 ---------------------------------------------------------------------

 SCF Done:  E(RHF) =  -476.642338690     A.U. after    2 cycles

 The electronic state is 1-A.
 Alpha  occ. eigenvalues --  -26.31652 -20.45049 -20.44784 -15.63599 -15.36681
 Alpha  occ. eigenvalues --  -11.26511 -11.08645 -11.04824  -1.51986  -1.43777
 Alpha  occ. eigenvalues --   -1.35750  -1.08714  -0.93747  -0.86520  -0.74708
 Alpha  occ. eigenvalues --   -0.68873  -0.64473  -0.61352  -0.59086  -0.55734
 Alpha  occ. eigenvalues --   -0.53931  -0.49914  -0.46991  -0.44834  -0.42880
 Alpha  occ. eigenvalues --   -0.42119  -0.38318  -0.34943  -0.34066  -0.33800
 Alpha  occ. eigenvalues --   -0.31438  -0.30227  -0.09911
 Alpha virt. eigenvalues --    0.13247   0.13557   0.14739   0.15117   0.17531
 Alpha virt. eigenvalues --    0.18415   0.19419   0.20009   0.20609   0.22250
 Alpha virt. eigenvalues --    0.23414   0.24540   0.24579   0.25505   0.26897

 Mulliken charges:
               1
     1  C   -0.389063
     2  C   -0.238227
     3  F   -1.096970
     4  H   -0.802249
     5  H    0.473217
     6  H    0.028722
     7  N    2.863303
     8  O   -1.460004
     9  O   -1.450609
    10  C   -0.454684
    11  H    0.193696
    12  H    0.102806
    13  H    0.132461
    14  N    0.520789
    15  H    0.289046
    16  H    0.287768
 Sum of Mulliken charges =  -1.00000

 Dipole moment (field-independent basis, Debye):
    X=              0.8886    Y=             -0.3029    Z=              5.4134  Tot=              5.4942

 Test job not archived.
 1\1\GINC-SE336\SP\RHF\Aug-CC-pVDZ\C3H8F1N2O2(1-)\OHZDE\09-Apr-2025\0\\
 #t hf aug-cc-pvdz iop(5/13=1,5/36=2,99/5=2) pseudo=read geom=check gue
 ss=(read,tcheck) scf=(maxcycle=1)\\title\\-1,1\C,0,-0.0823942,-0.11492
 886,-0.29633365\C,0,-0.17006231,0.02560943,1.1572481\F,0,1.22434939,-0
 .20964644,-0.8407212\H,0,-2.58611077,-0.50794276,1.47586429\H,0,-1.567
 90981,-0.17630373,1.39055315\H,0,0.18041926,-0.91343004,1.60435593\N,0
 ,-0.63452973,1.16642493,-0.93561427\O,0,0.14040951,2.11184654,-1.07537
 744\O,0,-1.83156456,1.19120987,-1.20674381\C,0,0.45548699,1.24961749,1

 Normal termination of Gaussian 16 at Wed Apr  9 02:51:23 2025.
