 Gaussian 16, Revision C.01,

 ----------------------------------------------------------------------
 #t hf aug-cc-pvdz symm=none int=(grid=ultrafine) guess=(read,tcheck) s
 table=(opt,rrhf)
 ----------------------------------------------------------------------
 -----
 title
 -----
 Symbolic Z-matrix:
 Charge = -1 Multiplicity = 1

 SCF Done:  E(RHF) =  -472.127751445     A.U. after   17 cycles
 Normal termination of Gaussian 16 at Wed Apr  9 02:52:17 2025.
 Gaussian 16:  ES64L-G16RevC.01  3-Jul-2019

 ----------------------------------------------------------------------
 #t hf aug-cc-pvdz iop(5/13=1,5/36=2,99/5=2) pseudo=read geom=check gue
 ss=(read,tcheck) scf=(maxcycle=1)
 ----------------------------------------------------------------------
 -----
 title
 -----
 Structure from the checkpoint file:  "E2SN2_311_mol1.chk"
 Charge = -1 Multiplicity = 1

                         Standard orientation:
 ---------------------------------------------------------------------
 Center     Atomic      Atomic             Coordinates (Angstroms)
 Number     Number       Type             X           Y           Z
 ---------------------------------------------------------------------
      1          6           0       -0.513245   -0.401739   -0.212456
      2          1           0        0.640952    0.642010   -1.699514
      3          9           0       -0.189972   -0.313970    1.393250
      4          1           0       -1.125243   -0.434956   -2.004424
      5          6           0        0.618376    0.553726   -0.616734
      6          6           0       -1.860917    0.115613   -0.222755
      7          7           0       -2.950457    0.497727    0.036906
      8          7           0       -0.261570   -1.817320   -0.327235
      9          1           0       -0.796906   -2.167393   -1.106141
     10          1           0       -0.552705   -2.237184    0.548228
     11          6           0        1.910344   -0.030942   -0.187170
     12          7           0        3.003008   -0.351412    0.103305
     13          7           0        0.374056    1.869098   -0.037842
     14          1           0        1.159969    2.477743   -0.232829
     15          1           0        0.301078    1.738914    0.964187
 ---------------------------------------------------------------------

 SCF Done:  E(RHF) =  -472.590508752     A.U. after    2 cycles

 The electronic state is 1-A.
 Alpha  occ. eigenvalues --  -26.25274 -15.39077 -15.38511 -15.37392 -15.35326
 Alpha  occ. eigenvalues --  -11.26919 -11.19137 -11.16414 -11.14757  -1.34865
 Alpha  occ. eigenvalues --   -1.11309  -1.08579  -1.07328  -1.05136  -0.89274
 Alpha  occ. eigenvalues --   -0.79926  -0.63690  -0.61713  -0.59572  -0.59280
 Alpha  occ. eigenvalues --   -0.51292  -0.50188  -0.48530  -0.46005  -0.44431
 Alpha  occ. eigenvalues --   -0.40774  -0.40178  -0.38073  -0.36978  -0.35569
 Alpha  occ. eigenvalues --   -0.34624  -0.33817  -0.32499  -0.14016
 Alpha virt. eigenvalues --    0.12798   0.13812   0.14413   0.16085   0.16431
 Alpha virt. eigenvalues --    0.17757   0.19117   0.19478   0.22037   0.22627
 Alpha virt. eigenvalues --    0.23743   0.24202   0.25123   0.25995   0.26280

 Mulliken charges:
               1
     1  C   -0.119572
     2  H    0.129127
     3  F   -0.902088
     4  H   -0.358072
     5  C   -0.242779
     6  C   -2.263502
     7  N    1.129253
     8  N    0.778882
     9  H    0.271567
    10  H    0.327408
    11  C   -1.661415
    12  N    0.966577
    13  N    0.529701
    14  H    0.131069
    15  H    0.283842
 Sum of Mulliken charges =  -1.00000

 Dipole moment (field-independent basis, Debye):
    X=              3.2792    Y=              0.6718    Z=              1.2604  Tot=              3.5767

 Test job not archived.
 1\1\GINC-SE113\SP\RHF\Aug-CC-pVDZ\C4H6F1N4(1-)\OHZDE\09-Apr-2025\0\\#t
  hf aug-cc-pvdz iop(5/13=1,5/36=2,99/5=2) pseudo=read geom=check guess
 =(read,tcheck) scf=(maxcycle=1)\\title\\-1,1\C,0,0.54234151,-0.0476849
 4,0.0114453\H,0,1.72238244,1.75172561,0.06193635\F,0,-1.09791575,-0.04
 065836,0.00902061\H,0,2.4185936,-0.20326332,-0.19414601\C,0,0.67048821
 ,1.48214429,0.02243927\C,0,0.78926855,-0.73044319,-1.23629181\N,0,0.72
 817749,-1.35401567,-2.24026242\N,0,0.67603786,-0.73555773,1.2721361\H,
 0,1.56070689,-1.218455,1.2719618\H,0,-0.10399417,-1.37962037,1.3370607

 Normal termination of Gaussian 16 at Wed Apr  9 02:52:24 2025.
