 Gaussian 16, Revision C.01,

 ----------------------------------------------------------------------
 #t hf aug-cc-pvdz symm=none int=(grid=ultrafine) guess=(read,tcheck) s
 table=(opt,rrhf)
 ----------------------------------------------------------------------
 -----
 title
 -----
 Symbolic Z-matrix:
 Charge = -1 Multiplicity = 1

 SCF Done:  E(RHF) =  -740.453263187     A.U. after   17 cycles
 Normal termination of Gaussian 16 at Wed Apr  9 03:02:03 2025.
 Gaussian 16:  ES64L-G16RevC.01  3-Jul-2019

 ----------------------------------------------------------------------
 #t hf aug-cc-pvdz iop(5/13=1,5/36=2,99/5=2) pseudo=read geom=check gue
 ss=(read,tcheck) scf=(maxcycle=1)
 ----------------------------------------------------------------------
 -----
 title
 -----
 Structure from the checkpoint file:  "E2SN2_82_mol1.chk"
 Charge = -1 Multiplicity = 1

                         Standard orientation:
 ---------------------------------------------------------------------
 Center     Atomic      Atomic             Coordinates (Angstroms)
 Number     Number       Type             X           Y           Z
 ---------------------------------------------------------------------
      1          6           0       -0.004428    0.120461    0.420738
      2          6           0       -0.986973   -0.943226    0.406084
      3         17           0        1.738778   -0.464531   -0.453573
      4          1           0       -2.427805    0.055762    2.183286
      5          1           0       -1.846140   -0.435422    1.211829
      6          1           0       -0.632348   -1.789655    1.015141
      7          6           0       -0.389101    1.255823   -0.417358
      8          7           0       -0.716438    2.197122   -1.040289
      9          7           0        0.368194    0.567873    1.730943
     10          1           0        0.778964   -0.229118    2.208183
     11          1           0       -0.545491    0.729232    2.198969
     12          7           0       -1.534067   -1.257927   -0.892446
     13          1           0       -2.467192   -1.635630   -0.783714
     14          1           0       -0.960020   -1.945970   -1.367192
 ---------------------------------------------------------------------

 SCF Done:  E(RHF) =  -740.823842338     A.U. after    2 cycles

 The electronic state is 1-A.
 Alpha  occ. eigenvalues -- -105.40369 -15.39194 -15.37983 -15.36706 -11.24798
 Alpha  occ. eigenvalues --  -11.16305 -11.10997 -10.45116  -7.61987  -7.61716
 Alpha  occ. eigenvalues --   -7.61709  -1.12354  -1.08302  -1.05343  -0.90642
 Alpha  occ. eigenvalues --   -0.84119  -0.74732  -0.59946  -0.58253  -0.56387
 Alpha  occ. eigenvalues --   -0.52554  -0.50687  -0.47362  -0.43395  -0.38301
 Alpha  occ. eigenvalues --   -0.36824  -0.35727  -0.33401  -0.31282  -0.31098
 Alpha  occ. eigenvalues --   -0.30916  -0.11232
 Alpha virt. eigenvalues --    0.12761   0.13602   0.15086   0.15342   0.17967
 Alpha virt. eigenvalues --    0.18503   0.19252   0.20042   0.22163   0.22684
 Alpha virt. eigenvalues --    0.23342   0.24295   0.24846   0.25640   0.26165

 Mulliken charges:
               1
     1  C   -1.573023
     2  C   -0.435603
     3  Cl  -0.219525
     4  H   -0.521076
     5  H    0.168468
     6  H    0.059595
     7  C   -1.303420
     8  N    0.924231
     9  N    0.730243
    10  H    0.227849
    11  H    0.202226
    12  N    0.372505
    13  H    0.208226
    14  H    0.159303
 Sum of Mulliken charges =  -1.00000

 Dipole moment (field-independent basis, Debye):
    X=              4.4711    Y=             -5.0260    Z=             -2.3100  Tot=              7.1124

 Test job not archived.
 1\1\GINC-SE412\SP\RHF\Aug-CC-pVDZ\C3H7Cl1N3(1-)\OHZDE\09-Apr-2025\0\\#
 t hf aug-cc-pvdz iop(5/13=1,5/36=2,99/5=2) pseudo=read geom=check gues
 s=(read,tcheck) scf=(maxcycle=1)\\title\\-1,1\C,0,-0.23542122,-0.00631
 269,-0.29491695\C,0,-0.32310623,-0.1342742,1.14486617\Cl,0,1.69885944,
 0.1451501,-0.91218364\H,0,-2.7331902,0.50225094,1.28179832\H,0,-1.5842
 0404,0.05156125,1.28753974\H,0,0.05932239,0.77947595,1.62648915\C,0,-0
 .6761891,-1.21161472,-0.99662666\N,0,-1.08384078,-2.15257687,-1.570773
 94\N,0,-0.88859813,1.15250147,-0.82986815\H,0,-0.42769382,1.96261333,-

 Normal termination of Gaussian 16 at Wed Apr  9 03:02:08 2025.
