 Gaussian 16, Revision C.01,

 ----------------------------------------------------------------------
 #t hf aug-cc-pvdz symm=none int=(grid=ultrafine) guess=(read,tcheck) s
 table=(opt,rrhf)
 ----------------------------------------------------------------------
 -----
 title
 -----
 Symbolic Z-matrix:
 Charge = -1 Multiplicity = 1

 SCF Done:  E(RHF) =  -839.460262336     A.U. after   15 cycles
 Normal termination of Gaussian 16 at Wed Apr  9 02:39:55 2025.
 Gaussian 16:  ES64L-G16RevC.01  3-Jul-2019

 ----------------------------------------------------------------------
 #t hf aug-cc-pvdz iop(5/13=1,5/36=2,99/5=2) pseudo=read geom=check gue
 ss=(read,tcheck) scf=(maxcycle=1)
 ----------------------------------------------------------------------
 -----
 title
 -----
 Structure from the checkpoint file:  "E2SN2_183_mol2.chk"
 Charge = -1 Multiplicity = 1

                         Standard orientation:
 ---------------------------------------------------------------------
 Center     Atomic      Atomic             Coordinates (Angstroms)
 Number     Number       Type             X           Y           Z
 ---------------------------------------------------------------------
      1          6           0       -0.413171    0.034395    0.192152
      2          6           0        0.656798    0.120474   -0.919872
      3         17           0       -1.347034   -1.509009    0.081288
      4          1           0        0.157289    0.112713   -1.897821
      5          1           0        0.190626    0.013601    1.121871
      6          6           0       -1.364393    1.133667    0.146900
      7          7           0       -2.166242    1.992380    0.114034
      8          7           0        1.623998   -0.962597   -0.855226
      9          1           0        1.987622   -0.879948    0.107371
     10          1           0        1.148955   -1.854983   -0.944556
     11          7           0        1.292735    1.403473   -0.677211
     12          1           0        1.729425    1.255623    0.246657
     13          1           0        2.046739    1.481501   -1.352665
     14          9           0        1.901120    0.084515    1.639000
 ---------------------------------------------------------------------

 SCF Done:  E(RHF) =  -839.915544643     A.U. after    2 cycles

 The electronic state is 1-A.
 Alpha  occ. eigenvalues -- -105.44701 -26.11589 -15.39208 -15.33744 -15.33657
 Alpha  occ. eigenvalues --  -11.19088 -11.16832 -11.16769 -10.49533  -7.66473
 Alpha  occ. eigenvalues --   -7.66120  -7.66098  -1.18413  -1.10725  -1.08819
 Alpha  occ. eigenvalues --   -0.99006  -0.98295  -0.83996  -0.71801  -0.61699
 Alpha  occ. eigenvalues --   -0.56124  -0.54715  -0.50706  -0.49839  -0.48215
 Alpha  occ. eigenvalues --   -0.44082  -0.40816  -0.37588  -0.37020  -0.34460
 Alpha  occ. eigenvalues --   -0.34184  -0.31996  -0.30732  -0.27782  -0.27445
 Alpha  occ. eigenvalues --   -0.26260
 Alpha virt. eigenvalues --    0.13749   0.14657   0.14737   0.16486   0.17927
 Alpha virt. eigenvalues --    0.18290   0.19165   0.19282   0.22890   0.23512
 Alpha virt. eigenvalues --    0.24585   0.25297   0.26002   0.26696   0.27370

 Mulliken charges:
               1
     1  C    0.574417
     2  C   -2.504866
     3  Cl  -0.125100
     4  H   -0.047250
     5  H    0.337894
     6  C   -1.441688
     7  N    0.853825
     8  N    0.718486
     9  H    0.279477
    10  H    0.239779
    11  N    0.627864
    12  H    0.241145
    13  H    0.246717
    14  F   -1.000700
 Sum of Mulliken charges =  -1.00000

 Dipole moment (field-independent basis, Debye):
    X=             -1.9393    Y=             -3.4287    Z=             -3.7437  Tot=              5.4343

 Test job not archived.
 1\1\GINC-SE435\SP\RHF\Aug-CC-pVDZ\C3H6Cl1F1N3(1-)\OHZDE\09-Apr-2025\0\
 \#t hf aug-cc-pvdz iop(5/13=1,5/36=2,99/5=2) pseudo=read geom=check gu
 ess=(read,tcheck) scf=(maxcycle=1)\\title\\-1,1\C,0,-0.230229,-0.14800
 8,0.077655\C,0,-0.492427,-0.242088,-1.442622\Cl,0,1.095001,1.026291,0.
 439973\H,0,0.41427,-0.612274,-1.939428\H,0,-1.181336,0.262892,0.472542
 \C,0,0.1348,-1.426135,0.667922\N,0,0.463831,-2.438835,1.165523\N,0,-0.
 885805,1.029953,-2.025599\H,0,-1.706454,1.291895,-1.456769\H,0,-0.1560
 68,1.718917,-1.87457\N,0,-1.566134,-1.215263,-1.539938\H,0,-2.340506,-

 Normal termination of Gaussian 16 at Wed Apr  9 02:40:00 2025.
