 Gaussian 16, Revision C.01,

 ----------------------------------------------------------------------
 #t hf aug-cc-pvdz symm=none int=(grid=ultrafine) guess=(read,tcheck) s
 table=(opt,rrhf)
 ----------------------------------------------------------------------
 -----
 title
 -----
 Symbolic Z-matrix:
 Charge = -1 Multiplicity = 1

 SCF Done:  E(RHF) =  -476.160275603     A.U. after   17 cycles
 Normal termination of Gaussian 16 at Wed Apr  9 02:32:59 2025.
 Gaussian 16:  ES64L-G16RevC.01  3-Jul-2019

 ----------------------------------------------------------------------
 #t hf aug-cc-pvdz iop(5/13=1,5/36=2,99/5=2) pseudo=read geom=check gue
 ss=(read,tcheck) scf=(maxcycle=1)
 ----------------------------------------------------------------------
 -----
 title
 -----
 Structure from the checkpoint file:  "E2SN2_101_mol1.chk"
 Charge = -1 Multiplicity = 1

                         Standard orientation:
 ---------------------------------------------------------------------
 Center     Atomic      Atomic             Coordinates (Angstroms)
 Number     Number       Type             X           Y           Z
 ---------------------------------------------------------------------
      1          6           0       -0.075412    0.597537    0.077418
      2          6           0        1.133904    0.499052   -0.746591
      3          9           0        0.156289    0.825094    1.466746
      4          1           0        0.851020   -1.201774   -2.477308
      5          1           0        0.847683   -0.263852   -1.781087
      6          1           0        1.426542    1.489153   -1.113818
      7          6           0       -1.058580    1.643637   -0.380757
      8          1           0       -0.588464    2.620964   -0.257193
      9          1           0       -1.314979    1.487886   -1.427475
     10          1           0       -1.968258    1.605887    0.221083
     11          7           0       -0.746174   -0.769091    0.082957
     12          8           0       -0.203731   -1.658138    0.739050
     13          8           0       -1.722618   -0.935431   -0.651154
     14          7           0        2.237027   -0.267285   -0.209009
     15          1           0        2.200175   -1.181804   -0.669533
     16          1           0        2.115023   -0.420484    0.783383
 ---------------------------------------------------------------------

 SCF Done:  E(RHF) =  -476.637119499     A.U. after    2 cycles

 The electronic state is 1-A.
 Alpha  occ. eigenvalues --  -26.32920 -20.45136 -20.45006 -15.63851 -15.32673
 Alpha  occ. eigenvalues --  -11.24947 -11.12746 -11.07837  -1.51873  -1.44561
 Alpha  occ. eigenvalues --   -1.35662  -1.03748  -0.97929  -0.86132  -0.77647
 Alpha  occ. eigenvalues --   -0.69071  -0.63200  -0.60816  -0.59833  -0.56026
 Alpha  occ. eigenvalues --   -0.52949  -0.50760  -0.48788  -0.46433  -0.44900
 Alpha  occ. eigenvalues --   -0.43059  -0.41326  -0.35571  -0.35036  -0.34473
 Alpha  occ. eigenvalues --   -0.30913  -0.27172  -0.09273
 Alpha virt. eigenvalues --    0.12240   0.13320   0.15016   0.15281   0.16077
 Alpha virt. eigenvalues --    0.18043   0.19981   0.20288   0.20850   0.21993
 Alpha virt. eigenvalues --    0.23152   0.24285   0.25201   0.25494   0.26135

 Mulliken charges:
               1
     1  C    0.765770
     2  C   -1.762924
     3  F   -1.102126
     4  H   -0.629296
     5  H    0.267478
     6  H   -0.109084
     7  C   -0.177798
     8  H    0.225854
     9  H    0.348793
    10  H    0.160293
    11  N    3.101442
    12  O   -1.525586
    13  O   -1.549303
    14  N    0.541641
    15  H    0.271280
    16  H    0.173565
 Sum of Mulliken charges =  -1.00000

 Dipole moment (field-independent basis, Debye):
    X=             -3.5142    Y=              5.5234    Z=              5.9116  Tot=              8.8207

 Test job not archived.
 1\1\GINC-SE149\SP\RHF\Aug-CC-pVDZ\C3H8F1N2O2(1-)\OHZDE\09-Apr-2025\0\\
 #t hf aug-cc-pvdz iop(5/13=1,5/36=2,99/5=2) pseudo=read geom=check gue
 ss=(read,tcheck) scf=(maxcycle=1)\\title\\-1,1\C,0,-0.13978703,-0.0770
 588,-0.29946969\C,0,-0.26349311,-0.14263335,1.16050732\F,0,1.15315164,
 0.28623158,-0.7811635\H,0,-2.44478083,0.6975441,1.87064997\H,0,-1.5193
 2718,0.11235648,1.46380201\H,0,-0.01529183,-1.14786371,1.51925788\C,0,
 -0.53575068,-1.3421293,-1.01618251\H,0,0.17612642,-2.12110066,-0.73711
 504\H,0,-1.54168682,-1.64126281,-0.72595857\H,0,-0.50209205,-1.1978498

 Normal termination of Gaussian 16 at Wed Apr  9 02:33:06 2025.
