 Gaussian 16, Revision C.01,

 ----------------------------------------------------------------------
 #t hf aug-cc-pvdz symm=none int=(grid=ultrafine) guess=(read,tcheck) s
 table=(opt,rrhf)
 ----------------------------------------------------------------------
 -----
 title
 -----
 Symbolic Z-matrix:
 Charge = -1 Multiplicity = 1

 SCF Done:  E(RHF) =  -591.186789058     A.U. after   15 cycles
 Normal termination of Gaussian 16 at Wed Apr  9 02:41:06 2025.
 Gaussian 16:  ES64L-G16RevC.01  3-Jul-2019

 ----------------------------------------------------------------------
 #t hf aug-cc-pvdz iop(5/13=1,5/36=2,99/5=2) pseudo=read geom=check gue
 ss=(read,tcheck) scf=(maxcycle=1)
 ----------------------------------------------------------------------
 -----
 title
 -----
 Structure from the checkpoint file:  "E2SN2_194_mol2.chk"
 Charge = -1 Multiplicity = 1

                         Standard orientation:
 ---------------------------------------------------------------------
 Center     Atomic      Atomic             Coordinates (Angstroms)
 Number     Number       Type             X           Y           Z
 ---------------------------------------------------------------------
      1          6           0        0.366477    1.029999    0.354977
      2          6           0       -0.045619   -0.366594   -0.095964
      3          9           0       -0.397819    1.942859   -0.437100
      4          1           0        0.260027   -0.509895   -1.130824
      5          1           0        0.002141    1.205385    1.374900
      6          7           0        1.741834    1.224764    0.191498
      7          1           0        2.179338    1.599248    1.017255
      8          1           0        2.244615    0.373404   -0.163799
      9          7           0       -1.552134   -0.416989   -0.092072
     10          8           0       -2.142298   -0.614772   -1.151936
     11          8           0       -2.104084   -0.273947    0.999441
     12          7           0        0.459544   -1.445853    0.692540
     13          1           0        0.487811   -1.161915    1.665773
     14          1           0        1.435437   -1.551364    0.330999
     15          9           0        2.719133   -1.093859   -0.559810
 ---------------------------------------------------------------------

 SCF Done:  E(RHF) =  -591.762549449     A.U. after    2 cycles

 The electronic state is 1-A.
 Alpha  occ. eigenvalues --  -26.30612 -26.12574 -20.46493 -20.46003 -15.64926
 Alpha  occ. eigenvalues --  -15.34983 -15.34312 -11.22320 -11.19133  -1.53063
 Alpha  occ. eigenvalues --   -1.42509  -1.36998  -1.19698  -1.09960  -1.04482
 Alpha  occ. eigenvalues --   -0.93519  -0.79610  -0.71599  -0.66143  -0.62470
 Alpha  occ. eigenvalues --   -0.61790  -0.58543  -0.57254  -0.54539  -0.52110
 Alpha  occ. eigenvalues --   -0.50575  -0.46208  -0.44303  -0.39936  -0.37300
 Alpha  occ. eigenvalues --   -0.35815  -0.32642  -0.32274  -0.31538  -0.29065
 Alpha  occ. eigenvalues --   -0.28694  -0.27580
 Alpha virt. eigenvalues --    0.13151   0.14762   0.15078   0.16666   0.18407
 Alpha virt. eigenvalues --    0.18872   0.19674   0.20336   0.22618   0.23696
 Alpha virt. eigenvalues --    0.24974   0.26003   0.26225   0.27762   0.28752

 Mulliken charges:
               1
     1  C    0.471164
     2  C   -1.482173
     3  F   -0.902853
     4  H    0.023238
     5  H    0.035976
     6  N    0.500599
     7  H    0.178254
     8  H    0.160628
     9  N    3.036130
    10  O   -1.418190
    11  O   -1.494870
    12  N    0.362539
    13  H    0.287581
    14  H    0.281257
    15  F   -1.039281
 Sum of Mulliken charges =  -1.00000

 Dipole moment (field-independent basis, Debye):
    X=             -3.0882    Y=              2.6950    Z=              3.5798  Tot=              5.4420

 Test job not archived.
 1\1\GINC-SE292\SP\RHF\Aug-CC-pVDZ\C2H6F2N3O2(1-)\OHZDE\09-Apr-2025\0\\
 #t hf aug-cc-pvdz iop(5/13=1,5/36=2,99/5=2) pseudo=read geom=check gue
 ss=(read,tcheck) scf=(maxcycle=1)\\title\\-1,1\C,0,0.168159,0.028207,-
 0.010715\C,0,-0.354527,0.801042,-1.216189\F,0,1.418637,-0.535808,-0.41
 4496\H,0,-0.566573,0.10058,-2.021968\H,0,0.447091,0.734405,0.781261\N,
 0,-0.742132,-0.956183,0.387546\H,0,-0.928809,-0.931665,1.376522\H,0,-1
 .62861,-0.957606,-0.176362\N,0,0.76513,1.681769,-1.708965\O,0,1.206265
 ,1.503044,-2.842182\O,0,1.159199,2.554683,-0.934858\N,0,-1.512124,1.60

 Normal termination of Gaussian 16 at Wed Apr  9 02:41:12 2025.
