 Gaussian 16, Revision C.01,

 ----------------------------------------------------------------------
 #t hf aug-cc-pvdz symm=none int=(grid=ultrafine) guess=(read,tcheck) s
 table=(opt,rrhf)
 ----------------------------------------------------------------------
 -----
 title
 -----
 Symbolic Z-matrix:
 Charge = -1 Multiplicity = 1

 SCF Done:  E(RHF) =  -1236.20633648     A.U. after   16 cycles
 Normal termination of Gaussian 16 at Wed Apr  9 02:51:14 2025.
 Gaussian 16:  ES64L-G16RevC.01  3-Jul-2019

 ----------------------------------------------------------------------
 #t hf aug-cc-pvdz iop(5/13=1,5/36=2,99/5=2) pseudo=read geom=check gue
 ss=(read,tcheck) scf=(maxcycle=1)
 ----------------------------------------------------------------------
 -----
 title
 -----
 Structure from the checkpoint file:  "E2SN2_296_mol1.chk"
 Charge = -1 Multiplicity = 1

                         Standard orientation:
 ---------------------------------------------------------------------
 Center     Atomic      Atomic             Coordinates (Angstroms)
 Number     Number       Type             X           Y           Z
 ---------------------------------------------------------------------
      1          6           0        0.032176   -0.469117   -0.246054
      2          1           0       -0.897376    0.708131   -1.761378
      3         17           0        2.395198   -0.343298   -0.106586
      4         17           0       -2.334688   -0.548850   -0.104115
      5          6           0       -0.030042    0.787338   -1.107694
      6          1           0        0.866220    0.829638   -1.724747
      7          6           0        0.031439   -0.409596    1.198758
      8          7           0        0.032103   -0.412365    2.377183
      9          7           0        0.087006   -1.707144   -0.964510
     10          1           0       -0.725601   -2.258422   -0.725093
     11          1           0        0.936046   -2.193319   -0.711185
     12          6           0       -0.130651    2.022873   -0.340845
     13          7           0       -0.208465    3.046865    0.227233
 ---------------------------------------------------------------------

 SCF Done:  E(RHF) =  -1236.67407640     A.U. after    2 cycles

 The electronic state is 1-A.
 Alpha  occ. eigenvalues -- -105.36034-105.35981 -15.41124 -15.40830 -15.40308
 Alpha  occ. eigenvalues --  -11.32464 -11.18923 -11.18304 -11.18090 -10.40838
 Alpha  occ. eigenvalues --  -10.40785  -7.57655  -7.57603  -7.57496  -7.57486
 Alpha  occ. eigenvalues --   -7.57445  -7.57434  -1.14421  -1.11118  -1.09571
 Alpha  occ. eigenvalues --   -0.98001  -0.85206  -0.83499  -0.79705  -0.68449
 Alpha  occ. eigenvalues --   -0.61767  -0.57543  -0.55832  -0.54119  -0.49623
 Alpha  occ. eigenvalues --   -0.48860  -0.42343  -0.39669  -0.38262  -0.38240
 Alpha  occ. eigenvalues --   -0.36791  -0.30219  -0.28894  -0.28475  -0.28018
 Alpha  occ. eigenvalues --   -0.27234  -0.26278
 Alpha virt. eigenvalues --    0.12984   0.13633   0.15109   0.15344   0.16340
 Alpha virt. eigenvalues --    0.17382   0.18875   0.20345   0.21593   0.22813
 Alpha virt. eigenvalues --    0.23074   0.24292   0.24595   0.25443   0.26207

 Mulliken charges:
               1
     1  C   -1.272117
     2  H    0.295538
     3  Cl  -0.566392
     4  Cl  -0.562743
     5  C    1.002941
     6  H    0.283568
     7  C   -1.985928
     8  N    1.128284
     9  N    0.674962
    10  H    0.265631
    11  H    0.264144
    12  C   -1.421960
    13  N    0.894070
 Sum of Mulliken charges =  -1.00000

 Dipole moment (field-independent basis, Debye):
    X=              0.1916    Y=             -2.7705    Z=             -5.1550  Tot=              5.8555

 Test job not archived.
 1\1\GINC-SE040\SP\RHF\Aug-CC-pVDZ\C4H4Cl2N3(1-)\OHZDE\09-Apr-2025\0\\#
 t hf aug-cc-pvdz iop(5/13=1,5/36=2,99/5=2) pseudo=read geom=check gues
 s=(read,tcheck) scf=(maxcycle=1)\\title\\-1,1\C,0,0.631653,-0.0725355,
 0.00551919\H,0,1.45367647,1.83427462,0.48980908\Cl,0,-1.72059474,-0.29
 281347,0.19933187\Cl,0,2.95816609,0.03132768,-0.44735705\C,0,0.5386080
 6,1.44895828,0.04256644\H,0,-0.30156639,1.72988431,0.67582527\C,0,0.51
 186459,-0.81887637,-1.22722206\N,0,0.42189683,-1.47023621,-2.20514304\
 N,0,0.84913558,-0.70778505,1.27084718\H,0,1.72499905,-1.21097433,1.235

 Normal termination of Gaussian 16 at Wed Apr  9 02:51:21 2025.
