 Gaussian 16, Revision C.01,

 ----------------------------------------------------------------------
 #t hf aug-cc-pvdz symm=none int=(grid=ultrafine) guess=(read,tcheck) s
 table=(opt,rrhf)
 ----------------------------------------------------------------------
 -----
 title
 -----
 Symbolic Z-matrix:
 Charge = -1 Multiplicity = 1

 SCF Done:  E(RHF) =  -888.909636432     A.U. after   17 cycles
 Normal termination of Gaussian 16 at Wed Apr  9 03:00:53 2025.
 Gaussian 16:  ES64L-G16RevC.01  3-Jul-2019

 ----------------------------------------------------------------------
 #t hf aug-cc-pvdz iop(5/13=1,5/36=2,99/5=2) pseudo=read geom=check gue
 ss=(read,tcheck) scf=(maxcycle=1)
 ----------------------------------------------------------------------
 -----
 title
 -----
 Structure from the checkpoint file:  "E2SN2_50_mol1.chk"
 Charge = -1 Multiplicity = 1

                         Standard orientation:
 ---------------------------------------------------------------------
 Center     Atomic      Atomic             Coordinates (Angstroms)
 Number     Number       Type             X           Y           Z
 ---------------------------------------------------------------------
      1          6           0       -0.080265   -0.003256   -0.008707
      2          6           0       -0.912091   -0.307203    1.174746
      3         17           0        0.030975   -1.378799   -1.262150
      4          1           0       -1.607881    1.314646    2.928848
      5          1           0       -0.880390    0.574126    1.997006
      6          1           0       -0.521833   -1.204410    1.665890
      7          6           0       -0.531253    1.168059   -0.747295
      8          7           0       -0.890668    2.102400   -1.362516
      9          7           0       -2.315775   -0.303354    0.838550
     10          1           0       -2.744467    0.272816    1.576274
     11          1           0       -2.704688   -1.235568    0.878033
     12          7           0        1.360029    0.205016    0.453886
     13          8           0        1.882104   -0.738645    1.033507
     14          8           0        1.867801    1.306637    0.265068
 ---------------------------------------------------------------------

 SCF Done:  E(RHF) =  -889.407247389     A.U. after    2 cycles

 The electronic state is 1-A.
 Alpha  occ. eigenvalues -- -105.48053 -20.50347 -20.49951 -15.69904 -15.42597
 Alpha  occ. eigenvalues --  -15.36131 -11.30465 -11.19517 -11.13406 -10.52813
 Alpha  occ. eigenvalues --   -7.69746  -7.69359  -7.69354  -1.57359  -1.41407
 Alpha  occ. eigenvalues --   -1.13455  -1.09398  -1.04038  -0.93593  -0.84287
 Alpha  occ. eigenvalues --   -0.77339  -0.71636  -0.65413  -0.64373  -0.59674
 Alpha  occ. eigenvalues --   -0.54565  -0.51807  -0.50788  -0.50029  -0.42334
 Alpha  occ. eigenvalues --   -0.41420  -0.40588  -0.38718  -0.37454  -0.37099
 Alpha  occ. eigenvalues --   -0.36724  -0.35113  -0.32081  -0.10818
 Alpha virt. eigenvalues --    0.13024   0.14291   0.14625   0.16027   0.17664
 Alpha virt. eigenvalues --    0.18375   0.20372   0.20655   0.21441   0.22262
 Alpha virt. eigenvalues --    0.22380   0.23685   0.23786   0.24475   0.25346

 Mulliken charges:
               1
     1  C   -0.708387
     2  C   -0.962956
     3  Cl   0.028998
     4  H   -0.649658
     5  H    0.424389
     6  H    0.071173
     7  C   -1.329083
     8  N    0.999902
     9  N    0.582161
    10  H    0.259886
    11  H    0.143601
    12  N    3.126020
    13  O   -1.592858
    14  O   -1.393188
 Sum of Mulliken charges =  -1.00000

 Dipole moment (field-independent basis, Debye):
    X=              3.9001    Y=             -7.3344    Z=             -6.3210  Tot=             10.4384

 Test job not archived.
 1\1\GINC-SE024\SP\RHF\Aug-CC-pVDZ\C3H5Cl1N3O2(1-)\OHZDE\09-Apr-2025\0\
 \#t hf aug-cc-pvdz iop(5/13=1,5/36=2,99/5=2) pseudo=read geom=check gu
 ess=(read,tcheck) scf=(maxcycle=1)\\title\\-1,1\C,0,-0.16855102,-0.046
 51186,-0.48901786\C,0,-0.23677954,0.01985856,0.98604747\Cl,0,1.5570007
 ,-0.03472247,-1.19466936\H,0,-2.28015006,-0.29264902,2.37110003\H,0,-1
 .36987045,0.10126005,1.3901979\H,0,0.28060244,0.92192527,1.32823748\C,
 0,-0.81428607,-1.22735519,-1.04536089\N,0,-1.31852853,-2.18196959,-1.5
 0917128\N,0,0.16614822,-1.23146921,1.58203475\H,0,-0.57340388,-1.42569

 Normal termination of Gaussian 16 at Wed Apr  9 03:01:00 2025.
