 Gaussian 16, Revision C.01,

 ----------------------------------------------------------------------
 #t hf aug-cc-pvdz symm=none int=(grid=ultrafine) guess=(read,tcheck) s
 table=(opt,rrhf)
 ----------------------------------------------------------------------
 -----
 title
 -----
 Symbolic Z-matrix:
 Charge = -1 Multiplicity = 1

 SCF Done:  E(RHF) =  -583.896046983     A.U. after   17 cycles
 Normal termination of Gaussian 16 at Wed Apr  9 02:52:43 2025.
 Gaussian 16:  ES64L-G16RevC.01  3-Jul-2019

 ----------------------------------------------------------------------
 #t hf aug-cc-pvdz iop(5/13=1,5/36=2,99/5=2) pseudo=read geom=check gue
 ss=(read,tcheck) scf=(maxcycle=1)
 ----------------------------------------------------------------------
 -----
 title
 -----
 Structure from the checkpoint file:  "E2SN2_307_mol1.chk"
 Charge = -1 Multiplicity = 1

                         Standard orientation:
 ---------------------------------------------------------------------
 Center     Atomic      Atomic             Coordinates (Angstroms)
 Number     Number       Type             X           Y           Z
 ---------------------------------------------------------------------
      1          6           0       -0.750515   -0.399737   -0.031139
      2          1           0        0.381627    0.342568   -1.735937
      3          9           0       -0.691035    0.266035    1.458502
      4          1           0       -1.081838   -1.149537   -1.722436
      5          6           0        0.337142    0.492839   -0.664262
      6          6           0       -2.108703   -0.081374   -0.404340
      7          7           0       -3.243228    0.253006   -0.449842
      8          7           0       -0.385472   -1.719416    0.424704
      9          1           0       -0.713618   -2.386379   -0.255357
     10          1           0       -0.830259   -1.847140    1.325801
     11          7           0        1.686898   -0.063187   -0.182853
     12          8           0        2.222641   -0.910614   -0.891946
     13          8           0        2.167272    0.397439    0.850736
     14          7           0        0.152269    1.859972   -0.332321
     15          1           0        0.903963    2.426011   -0.701720
     16          1           0        0.099327    1.942570    0.673452
 ---------------------------------------------------------------------

 SCF Done:  E(RHF) =  -584.465852964     A.U. after    2 cycles

 The electronic state is 1-A.
 Alpha  occ. eigenvalues --  -26.25207 -20.46172 -20.46149 -15.64929 -15.38690
 Alpha  occ. eigenvalues --  -15.37227 -15.35387 -11.27345 -11.21506 -11.14901
 Alpha  occ. eigenvalues --   -1.53013  -1.37024  -1.34953  -1.11678  -1.07939
 Alpha  occ. eigenvalues --   -1.05217  -0.94030  -0.84935  -0.73302  -0.66183
 Alpha  occ. eigenvalues --   -0.65131  -0.62465  -0.61049  -0.59551  -0.57761
 Alpha  occ. eigenvalues --   -0.52099  -0.49409  -0.45729  -0.44222  -0.40705
 Alpha  occ. eigenvalues --   -0.40356  -0.39985  -0.35919  -0.35522  -0.34748
 Alpha  occ. eigenvalues --   -0.33379  -0.32831  -0.31647  -0.14165
 Alpha virt. eigenvalues --    0.12596   0.14000   0.14666   0.16244   0.16625
 Alpha virt. eigenvalues --    0.18665   0.18808   0.19815   0.21909   0.23135
 Alpha virt. eigenvalues --    0.23590   0.24350   0.25181   0.25307   0.26245

 Mulliken charges:
               1
     1  C   -0.011204
     2  H    0.001302
     3  F   -0.950632
     4  H   -0.302089
     5  C   -1.451145
     6  C   -1.939710
     7  N    1.043988
     8  N    0.530011
     9  H    0.297950
    10  H    0.302925
    11  N    3.256852
    12  O   -1.523536
    13  O   -1.505186
    14  N    0.742813
    15  H    0.188238
    16  H    0.319422
 Sum of Mulliken charges =  -1.00000

 Dipole moment (field-independent basis, Debye):
    X=              5.1640    Y=              1.6396    Z=              1.7005  Tot=              5.6787

 Test job not archived.
 1\1\GINC-SE159\SP\RHF\Aug-CC-pVDZ\C3H6F1N4O2(1-)\OHZDE\09-Apr-2025\0\\
 #t hf aug-cc-pvdz iop(5/13=1,5/36=2,99/5=2) pseudo=read geom=check gue
 ss=(read,tcheck) scf=(maxcycle=1)\\title\\-1,1\C,0,0.5540584,-0.041229
 17,-0.02328863\H,0,1.59720822,1.85800921,-0.23264254\F,0,-1.06671622,-
 0.20466445,-0.1337385\H,0,2.43290822,-0.05087025,-0.0711618\C,0,0.5812
 3641,1.49795537,-0.12675967\C,0,0.96855771,-0.75003024,-1.2111852\N,0,
 1.04775841,-1.40650725,-2.1929149\N,0,0.6361502,-0.64971828,1.28269981
 \H,0,1.57374287,-0.99684658,1.40689323\H,0,-0.04904084,-1.39565292,1.2

 Normal termination of Gaussian 16 at Wed Apr  9 02:52:52 2025.
