 Gaussian 16, Revision C.01,

 ----------------------------------------------------------------------
 #t hf aug-cc-pvdz symm=none int=(grid=ultrafine) guess=(read,tcheck) s
 table=(opt,rrhf)
 ----------------------------------------------------------------------
 -----
 title
 -----
 Symbolic Z-matrix:
 Charge = -1 Multiplicity = 1

 SCF Done:  E(RHF) =  -1295.27355373     A.U. after   16 cycles
 Normal termination of Gaussian 16 at Wed Apr  9 02:46:30 2025.
 Gaussian 16:  ES64L-G16RevC.01  3-Jul-2019

 ----------------------------------------------------------------------
 #t hf aug-cc-pvdz iop(5/13=1,5/36=2,99/5=2) pseudo=read geom=check gue
 ss=(read,tcheck) scf=(maxcycle=1)
 ----------------------------------------------------------------------
 -----
 title
 -----
 Structure from the checkpoint file:  "E2SN2_245_mol1.chk"
 Charge = -1 Multiplicity = 1

                         Standard orientation:
 ---------------------------------------------------------------------
 Center     Atomic      Atomic             Coordinates (Angstroms)
 Number     Number       Type             X           Y           Z
 ---------------------------------------------------------------------
      1          6           0       -0.011669    0.146996   -0.160160
      2          1           0       -0.907540    1.033113    1.567321
      3         17           0        2.377215    0.104096   -0.158913
      4         17           0       -2.370300   -0.071259   -0.164976
      5          6           0       -0.054664    1.214144    0.918312
      6          1           0        0.839208    1.134771    1.531878
      7          7           0        0.059187   -1.288104    0.329585
      8          8           0        0.062696   -1.462389    1.541480
      9          8           0        0.099579   -2.163261   -0.525363
     10          7           0        0.006793    0.392508   -1.545061
     11          1           0       -0.860662    0.084691   -1.958954
     12          1           0        0.790086   -0.089041   -1.961126
     13          6           0       -0.141550    2.594703    0.290591
     14          1           0        0.730622    2.784157   -0.335300
     15          1           0       -1.035398    2.678934   -0.328167
     16          1           0       -0.186629    3.354444    1.077416
 ---------------------------------------------------------------------

 SCF Done:  E(RHF) =  -1295.81176072     A.U. after    2 cycles

 The electronic state is 1-A.
 Alpha  occ. eigenvalues -- -105.34820-105.34230 -20.46087 -20.46024 -15.66531
 Alpha  occ. eigenvalues --  -15.39036 -11.31937 -11.12480 -11.10946 -10.39642
 Alpha  occ. eigenvalues --  -10.39048  -7.56458  -7.56308  -7.56292  -7.55863
 Alpha  occ. eigenvalues --   -7.55715  -7.55700  -1.53638  -1.37660  -1.12895
 Alpha  occ. eigenvalues --   -0.97346  -0.91471  -0.82094  -0.80447  -0.76534
 Alpha  occ. eigenvalues --   -0.69562  -0.66274  -0.61966  -0.61458  -0.59239
 Alpha  occ. eigenvalues --   -0.52396  -0.51176  -0.43846  -0.41110  -0.40030
 Alpha  occ. eigenvalues --   -0.39765  -0.35715  -0.34238  -0.32178  -0.29271
 Alpha  occ. eigenvalues --   -0.27638  -0.27184  -0.26488  -0.25869  -0.25423
 Alpha virt. eigenvalues --    0.12196   0.13643   0.14326   0.14675   0.15052
 Alpha virt. eigenvalues --    0.16312   0.16911   0.18341   0.20786   0.22003
 Alpha virt. eigenvalues --    0.22440   0.24483   0.25016   0.25684   0.25984

 Mulliken charges:
               1
     1  C   -3.006231
     2  H    0.249038
     3  Cl  -0.632201
     4  Cl  -0.610491
     5  C    0.447515
     6  H    0.246075
     7  N    3.537974
     8  O   -1.540072
     9  O   -1.536968
    10  N    0.854309
    11  H    0.383475
    12  H    0.363843
    13  C   -0.336710
    14  H    0.267934
    15  H    0.257820
    16  H    0.054689
 Sum of Mulliken charges =  -1.00000

 Dipole moment (field-independent basis, Debye):
    X=             -0.4516    Y=              2.4723    Z=             -0.3941  Tot=              2.5439

 Test job not archived.
 1\1\GINC-SE292\SP\RHF\Aug-CC-pVDZ\C3H7Cl2N2O2(1-)\OHZDE\09-Apr-2025\0\
 \#t hf aug-cc-pvdz iop(5/13=1,5/36=2,99/5=2) pseudo=read geom=check gu
 ess=(read,tcheck) scf=(maxcycle=1)\\title\\-1,1\C,0,0.5714125,-0.04121
 721,0.04946873\H,0,1.45717411,1.83208264,-0.47793631\Cl,0,-1.75194384,
 -0.24974912,-0.4673838\Cl,0,2.91470281,-0.03151107,0.39544012\C,0,0.52
 238791,1.47213024,-0.05604438\H,0,-0.27084277,1.75437429,-0.7437176\N,
 0,0.82725893,-0.7882927,-1.2469887\O,0,0.98367602,-0.11294265,-2.25620
 342\O,0,0.86553567,-2.01015662,-1.18333542\N,0,0.36188835,-0.78018121,

 Normal termination of Gaussian 16 at Wed Apr  9 02:46:38 2025.
