 Gaussian 16, Revision C.01,

 ----------------------------------------------------------------------
 #t hf aug-cc-pvdz symm=none int=(grid=ultrafine) guess=(read,tcheck) s
 table=(opt,rrhf)
 ----------------------------------------------------------------------
 -----
 title
 -----
 Symbolic Z-matrix:
 Charge = -1 Multiplicity = 1

 SCF Done:  E(RHF) =  -967.940804358     A.U. after   15 cycles
 Normal termination of Gaussian 16 at Wed Apr  9 02:52:58 2025.
 Gaussian 16:  ES64L-G16RevC.01  3-Jul-2019

 ----------------------------------------------------------------------
 #t hf aug-cc-pvdz iop(5/13=1,5/36=2,99/5=2) pseudo=read geom=check gue
 ss=(read,tcheck) scf=(maxcycle=1)
 ----------------------------------------------------------------------
 -----
 title
 -----
 Structure from the checkpoint file:  "E2SN2_309_mol2.chk"
 Charge = -1 Multiplicity = 1

                         Standard orientation:
 ---------------------------------------------------------------------
 Center     Atomic      Atomic             Coordinates (Angstroms)
 Number     Number       Type             X           Y           Z
 ---------------------------------------------------------------------
      1          6           0       -0.389691    0.521335   -0.743983
      2          6           0       -0.356898   -0.562672    0.351341
      3          9           0       -1.617016    0.451445   -1.400751
      4          1           0        0.668527   -0.527249    0.788602
      5          6           0       -0.371794    1.873803   -0.122748
      6          7           0       -0.344968    2.970978    0.297139
      7          7           0        0.651024    0.264448   -1.663169
      8          1           0        1.523105    0.090997   -1.144745
      9          1           0        0.781525    1.054075   -2.283884
     10          6           0       -0.566963   -1.879834   -0.252201
     11          7           0       -0.759214   -2.950939   -0.692096
     12          6           0       -1.370714   -0.316476    1.375596
     13          7           0       -2.178274   -0.119684    2.205141
     14         17           0        2.843316   -0.214788    0.621744
 ---------------------------------------------------------------------

 SCF Done:  E(RHF) =  -968.501844385     A.U. after    2 cycles

 The electronic state is 1-A.
 Alpha  occ. eigenvalues -- -105.31856 -26.38976 -15.44695 -15.44456 -15.43533
 Alpha  occ. eigenvalues --  -15.41508 -11.33616 -11.24129 -11.21504 -11.20869
 Alpha  occ. eigenvalues --  -11.20725 -10.36520  -7.53302  -7.53261  -7.53230
 Alpha  occ. eigenvalues --   -1.51993  -1.16468  -1.14552  -1.13671  -1.12707
 Alpha  occ. eigenvalues --   -1.01857  -0.86983  -0.77977  -0.73709  -0.68254
 Alpha  occ. eigenvalues --   -0.67002  -0.64347  -0.58532  -0.57610  -0.54192
 Alpha  occ. eigenvalues --   -0.52860  -0.52234  -0.50999  -0.50546  -0.43291
 Alpha  occ. eigenvalues --   -0.42550  -0.42287  -0.41807  -0.40802  -0.39446
 Alpha  occ. eigenvalues --   -0.38235  -0.24913  -0.24447  -0.24208
 Alpha virt. eigenvalues --    0.12594   0.14727   0.16318   0.17024   0.17548
 Alpha virt. eigenvalues --    0.18281   0.18977   0.20054   0.20653   0.21189
 Alpha virt. eigenvalues --    0.21968   0.22504   0.23112   0.23653   0.24166

 Mulliken charges:
               1
     1  C    1.007606
     2  C    0.644863
     3  F   -0.960119
     4  H    0.348625
     5  C   -1.955667
     6  N    0.989994
     7  N    0.455706
     8  H    0.236904
     9  H    0.279262
    10  C   -1.462059
    11  N    1.023537
    12  C   -1.694533
    13  N    0.991981
    14  Cl  -0.906099
 Sum of Mulliken charges =  -1.00000

 Dipole moment (field-independent basis, Debye):
    X=             -4.1115    Y=              1.4463    Z=             -3.8971  Tot=              5.8467

 Test job not archived.
 1\1\GINC-SE227\SP\RHF\Aug-CC-pVDZ\C5H3Cl1F1N4(1-)\OHZDE\09-Apr-2025\0\
 \#t hf aug-cc-pvdz iop(5/13=1,5/36=2,99/5=2) pseudo=read geom=check gu
 ess=(read,tcheck) scf=(maxcycle=1)\\title\\-1,1\C,0,0.027068,0.024671,
 0.018463\C,0,-0.547757,0.251106,-1.393693\F,0,1.41145,-0.102293,-0.081
 148\H,0,-1.656892,0.259451,-1.276654\C,0,-0.180327,1.239184,0.853547\N
 ,0,-0.322732,2.156147,1.574462\N,0,-0.518383,-1.168504,0.540766\H,0,-1
 .538143,-1.161945,0.401408\H,0,-0.315798,-1.250191,1.529762\C,0,-0.173
 69,-0.865792,-2.263129\N,0,0.127387,-1.727999,-3.000479\C,0,-0.073149,

 Normal termination of Gaussian 16 at Wed Apr  9 02:53:06 2025.
