 Gaussian 16, Revision C.01,

 ----------------------------------------------------------------------
 #t hf aug-cc-pvdz symm=none int=(grid=ultrafine) guess=(read,tcheck) s
 table=(opt,rrhf)
 ----------------------------------------------------------------------
 -----
 title
 -----
 Symbolic Z-matrix:
 Charge = -1 Multiplicity = 1

 SCF Done:  E(RHF) =  -364.434571158     A.U. after   16 cycles
 Normal termination of Gaussian 16 at Wed Apr  9 02:34:43 2025.
 Gaussian 16:  ES64L-G16RevC.01  3-Jul-2019

 ----------------------------------------------------------------------
 #t hf aug-cc-pvdz iop(5/13=1,5/36=2,99/5=2) pseudo=read geom=check gue
 ss=(read,tcheck) scf=(maxcycle=1)
 ----------------------------------------------------------------------
 -----
 title
 -----
 Structure from the checkpoint file:  "E2SN2_11_mol2.chk"
 Charge = -1 Multiplicity = 1

                         Standard orientation:
 ---------------------------------------------------------------------
 Center     Atomic      Atomic             Coordinates (Angstroms)
 Number     Number       Type             X           Y           Z
 ---------------------------------------------------------------------
      1          6           0        0.772643   -0.448894   -0.340031
      2          6           0       -0.299053    0.453963    0.264144
      3          9           0        0.691760   -1.715419    0.267257
      4          1           0       -0.096251    0.546436    1.344784
      5          1           0        0.557336   -0.597482   -1.403460
      6          6           0        2.158485    0.106699   -0.129704
      7          1           0        2.902344   -0.592728   -0.521537
      8          1           0        2.241860    1.064797   -0.641109
      9          1           0        2.333483    0.282661    0.932902
     10          6           0       -1.614189   -0.165149    0.078712
     11          7           0       -2.668840   -0.649249   -0.108167
     12          7           0       -0.199621    1.776355   -0.349585
     13          1           0        0.222066    2.347512    0.451213
     14          1           0       -1.134645    2.147959   -0.484629
     15          1           0        0.719881    2.670154    1.882053
 ---------------------------------------------------------------------

 SCF Done:  E(RHF) =  -364.804814890     A.U. after    2 cycles

 The electronic state is 1-A.
 Alpha  occ. eigenvalues --  -26.32795 -15.39594 -15.34435 -11.20561 -11.16835
 Alpha  occ. eigenvalues --  -11.16735 -11.11058  -1.44825  -1.10565  -1.05913
 Alpha  occ. eigenvalues --   -0.92470  -0.84056  -0.71584  -0.62770  -0.58800
 Alpha  occ. eigenvalues --   -0.55094  -0.53647  -0.50284  -0.48786  -0.45907
 Alpha  occ. eigenvalues --   -0.44859  -0.43244  -0.40671  -0.38382  -0.38044
 Alpha  occ. eigenvalues --   -0.36225  -0.30301  -0.10437
 Alpha virt. eigenvalues --    0.12088   0.13661   0.14739   0.15315   0.16545
 Alpha virt. eigenvalues --    0.17465   0.19095   0.19729   0.21062   0.22697
 Alpha virt. eigenvalues --    0.23590   0.23988   0.24990   0.25595   0.26424

 Mulliken charges:
               1
     1  C    0.864038
     2  C   -0.208630
     3  F   -0.862035
     4  H    0.138299
     5  H    0.065774
     6  C   -0.296332
     7  H    0.151630
     8  H    0.276322
     9  H    0.274421
    10  C   -2.255839
    11  N    0.998408
    12  N    0.331544
    13  H    0.063260
    14  H    0.192758
    15  H   -0.733619
 Sum of Mulliken charges =  -1.00000

 Dipole moment (field-independent basis, Debye):
    X=              1.3851    Y=             -6.5692    Z=             -5.7867  Tot=              8.8634

 Test job not archived.
 1\1\GINC-SE424\SP\RHF\Aug-CC-pVDZ\C4H8F1N2(1-)\OHZDE\09-Apr-2025\0\\#t
  hf aug-cc-pvdz iop(5/13=1,5/36=2,99/5=2) pseudo=read geom=check guess
 =(read,tcheck) scf=(maxcycle=1)\\title\\-1,1\C,0,-0.544751,-0.02969,-1
 .4605\C,0,-0.033311,-0.173522,-0.029958\F,0,-0.430548,-1.273202,-2.108
 622\H,0,1.027873,-0.472156,-0.076543\H,0,-1.612259,0.213505,-1.436007\
 C,0,0.238311,0.999561,-2.2357\H,0,-0.115339,1.033547,-3.270028\H,0,0.1
 11861,1.974277,-1.766255\H,0,1.301788,0.756345,-2.211629\C,0,-0.793221
 ,-1.224429,0.652243\N,0,-1.432926,-2.041382,1.204448\N,0,-0.129783,1.1

 Normal termination of Gaussian 16 at Wed Apr  9 02:34:48 2025.
