 Gaussian 16, Revision C.01,

 ----------------------------------------------------------------------
 #t hf aug-cc-pvdz symm=none int=(grid=ultrafine) guess=(read,tcheck) s
 table=(opt,rrhf)
 ----------------------------------------------------------------------
 -----
 title
 -----
 Symbolic Z-matrix:
 Charge = -1 Multiplicity = 1

 SCF Done:  E(RHF) =  -971.873585688     A.U. after   17 cycles
 Normal termination of Gaussian 16 at Wed Apr  9 02:54:39 2025.
 Gaussian 16:  ES64L-G16RevC.01  3-Jul-2019

 ----------------------------------------------------------------------
 #t hf aug-cc-pvdz iop(5/13=1,5/36=2,99/5=2) pseudo=read geom=check gue
 ss=(read,tcheck) scf=(maxcycle=1)
 ----------------------------------------------------------------------
 -----
 title
 -----
 Structure from the checkpoint file:  "E2SN2_32_mol2.chk"
 Charge = -1 Multiplicity = 1

                         Standard orientation:
 ---------------------------------------------------------------------
 Center     Atomic      Atomic             Coordinates (Angstroms)
 Number     Number       Type             X           Y           Z
 ---------------------------------------------------------------------
      1          6           0       -0.219707    0.117689    0.024404
      2          6           0       -0.742122   -0.846795   -1.026432
      3         17           0       -0.322068   -0.554738    1.656846
      4          1           0       -0.016194   -1.671557   -0.929612
      5          1           0       -0.569101   -0.362823   -1.990644
      6          7           0        1.229949    0.561750   -0.284239
      7          8           0        1.967212    0.809426    0.649704
      8          8           0        1.403761    0.873281   -1.455729
      9          6           0       -0.988120    1.372754    0.030326
     10          7           0       -1.637088    2.352615   -0.006355
     11          6           0       -2.212037   -1.196969   -0.845746
     12          1           0       -2.864253   -0.317117   -0.879105
     13          1           0       -2.383648   -1.712288    0.101268
     14          1           0       -2.522719   -1.870590   -1.649347
     15          9           0        1.631686   -1.686372   -0.381322
 ---------------------------------------------------------------------

 SCF Done:  E(RHF) =  -972.442051272     A.U. after    2 cycles

 The electronic state is 1-A.
 Alpha  occ. eigenvalues -- -105.46008 -26.08357 -20.45242 -20.44747 -15.66309
 Alpha  occ. eigenvalues --  -15.42826 -11.28210 -11.19823 -11.12499 -11.11375
 Alpha  occ. eigenvalues --  -10.50852  -7.67816  -7.67388  -7.67375  -1.53069
 Alpha  occ. eigenvalues --   -1.37116  -1.15189  -1.13326  -1.06647  -0.92494
 Alpha  occ. eigenvalues --   -0.90525  -0.78867  -0.74544  -0.67359  -0.61192
 Alpha  occ. eigenvalues --   -0.60097  -0.55785  -0.52185  -0.50957  -0.47765
 Alpha  occ. eigenvalues --   -0.44945  -0.42458  -0.41334  -0.39311  -0.38747
 Alpha  occ. eigenvalues --   -0.36903  -0.34764  -0.34419  -0.33227  -0.31214
 Alpha  occ. eigenvalues --   -0.24881  -0.24683  -0.23757
 Alpha virt. eigenvalues --    0.11874   0.13420   0.13938   0.15333   0.17326
 Alpha virt. eigenvalues --    0.18913   0.19223   0.19691   0.21591   0.22275
 Alpha virt. eigenvalues --    0.23217   0.23647   0.24845   0.25350   0.25403

 Mulliken charges:
               1
     1  C   -1.528997
     2  C    0.316728
     3  Cl   0.168943
     4  H    0.364165
     5  H    0.256475
     6  N    3.784993
     7  O   -1.632074
     8  O   -1.692487
     9  C   -1.318030
    10  N    0.987865
    11  C   -0.283525
    12  H    0.226745
    13  H    0.219111
    14  H    0.104339
    15  F   -0.974250
 Sum of Mulliken charges =  -1.00000

 Dipole moment (field-independent basis, Debye):
    X=             -5.8234    Y=              0.6615    Z=              0.8050  Tot=              5.9159

 Test job not archived.
 1\1\GINC-SE164\SP\RHF\Aug-CC-pVDZ\C4H5Cl1F1N2O2(1-)\OHZDE\09-Apr-2025\
 0\\#t hf aug-cc-pvdz iop(5/13=1,5/36=2,99/5=2) pseudo=read geom=check
 guess=(read,tcheck) scf=(maxcycle=1)\\title\\-1,1\C,0,-0.264479,0.0672
 75,-1.351247\C,0,-0.012123,0.057562,0.146627\Cl,0,0.397621,1.510419,-2
 .130003\H,0,1.089462,0.007466,0.17067\H,0,-0.39661,-0.898595,0.509674\
 N,0,0.287902,-1.209983,-2.027592\O,0,0.699138,-1.125376,-3.168151\O,0,
 0.006314,-2.238895,-1.426178\C,0,-1.704588,0.041512,-1.653084\N,0,-2.8
 65922,0.023372,-1.836404\C,0,-0.665647,1.222607,0.875665\H,0,-1.753056

 Normal termination of Gaussian 16 at Wed Apr  9 02:54:47 2025.
