 Gaussian 16, Revision C.01,

 ----------------------------------------------------------------------
 #t hf aug-cc-pvdz symm=none int=(grid=ultrafine) guess=(read,tcheck) s
 table=(opt,rrhf)
 ----------------------------------------------------------------------
 -----
 title
 -----
 Symbolic Z-matrix:
 Charge = -1 Multiplicity = 1

 SCF Done:  E(RHF) =  -876.131168635     A.U. after   16 cycles
 Normal termination of Gaussian 16 at Wed Apr  9 02:41:38 2025.
 Gaussian 16:  ES64L-G16RevC.01  3-Jul-2019

 ----------------------------------------------------------------------
 #t hf aug-cc-pvdz iop(5/13=1,5/36=2,99/5=2) pseudo=read geom=check gue
 ss=(read,tcheck) scf=(maxcycle=1)
 ----------------------------------------------------------------------
 -----
 title
 -----
 Structure from the checkpoint file:  "E2SN2_201_mol1.chk"
 Charge = -1 Multiplicity = 1

                         Standard orientation:
 ---------------------------------------------------------------------
 Center     Atomic      Atomic             Coordinates (Angstroms)
 Number     Number       Type             X           Y           Z
 ---------------------------------------------------------------------
      1          6           0       -0.562903   -0.348029    0.483133
      2          1           0       -0.115633    0.508762   -1.440105
      3          9           0        1.047755   -0.658811    1.577847
      4         17           0       -2.409470    0.327573   -0.413819
      5          6           0        0.407725    0.307615   -0.500121
      6          1           0       -0.812464    0.185540    1.382598
      7          7           0       -0.735856   -1.746845    0.307989
      8          1           0       -1.659364   -2.010044    0.623728
      9          1           0       -0.023097   -2.139394    0.916256
     10          6           0        1.548464   -0.559897   -0.823452
     11          7           0        2.434396   -1.198268   -1.253683
     12          6           0        0.880533    1.587319    0.032243
     13          7           0        1.229866    2.644206    0.402981
 ---------------------------------------------------------------------

 SCF Done:  E(RHF) =  -876.612080957     A.U. after    2 cycles

 The electronic state is 1-A.
 Alpha  occ. eigenvalues -- -105.37023 -26.15860 -15.40899 -15.39734 -15.38354
 Alpha  occ. eigenvalues --  -11.26442 -11.21724 -11.18478 -11.17934 -10.41878
 Alpha  occ. eigenvalues --   -7.58714  -7.58533  -7.58514  -1.24182  -1.11957
 Alpha  occ. eigenvalues --   -1.10340  -1.09465  -0.98541  -0.85280  -0.75446
 Alpha  occ. eigenvalues --   -0.67721  -0.60068  -0.59707  -0.55497  -0.53785
 Alpha  occ. eigenvalues --   -0.49737  -0.48686  -0.39683  -0.39578  -0.37967
 Alpha  occ. eigenvalues --   -0.37466  -0.37140  -0.34253  -0.32108  -0.31495
 Alpha  occ. eigenvalues --   -0.29267  -0.29152  -0.27154
 Alpha virt. eigenvalues --    0.13354   0.14032   0.15460   0.16760   0.18283
 Alpha virt. eigenvalues --    0.18857   0.19956   0.22494   0.22922   0.23777
 Alpha virt. eigenvalues --    0.23817   0.24826   0.25186   0.25313   0.26405

 Mulliken charges:
               1
     1  C   -0.734683
     2  H    0.357055
     3  F   -0.894318
     4  Cl  -0.539503
     5  C    0.838455
     6  H    0.078846
     7  N    0.469037
     8  H    0.208499
     9  H    0.315064
    10  C   -1.713625
    11  N    1.074913
    12  C   -1.435102
    13  N    0.975361
 Sum of Mulliken charges =  -1.00000

 Dipole moment (field-independent basis, Debye):
    X=             -3.2315    Y=             -1.2161    Z=             -0.8068  Tot=              3.5458

 Test job not archived.
 1\1\GINC-SE222\SP\RHF\Aug-CC-pVDZ\C4H4Cl1F1N3(1-)\OHZDE\09-Apr-2025\0\
 \#t hf aug-cc-pvdz iop(5/13=1,5/36=2,99/5=2) pseudo=read geom=check gu
 ess=(read,tcheck) scf=(maxcycle=1)\\title\\-1,1\C,0,0.79215005,-0.0726
 2128,0.03539835\H,0,1.64514683,1.89538758,0.21518617\F,0,-1.17812601,-
 0.06543079,0.12004595\Cl,0,2.88320178,-0.17900577,-0.50028126\C,0,0.65
 555663,1.45012254,0.0724086\H,0,0.53952848,-0.58325267,-0.87644204\N,0
 ,0.86265784,-0.69669454,1.30930373\H,0,1.39418827,-1.55298541,1.231374
 08\H,0,-0.1117391,-0.89657898,1.51595627\C,0,-0.18462394,1.91006918,1.

 Normal termination of Gaussian 16 at Wed Apr  9 02:41:44 2025.
