 Gaussian 16, Revision C.01,

 ----------------------------------------------------------------------
 #t hf aug-cc-pvdz symm=none int=(grid=ultrafine) guess=(read,tcheck) s
 table=(opt,rrhf)
 ----------------------------------------------------------------------
 -----
 title
 -----
 Symbolic Z-matrix:
 Charge = -1 Multiplicity = 1

 SCF Done:  E(RHF) =  -876.140489507     A.U. after   16 cycles
 Normal termination of Gaussian 16 at Wed Apr  9 02:41:45 2025.
 Gaussian 16:  ES64L-G16RevC.01  3-Jul-2019

 ----------------------------------------------------------------------
 #t hf aug-cc-pvdz iop(5/13=1,5/36=2,99/5=2) pseudo=read geom=check gue
 ss=(read,tcheck) scf=(maxcycle=1)
 ----------------------------------------------------------------------
 -----
 title
 -----
 Structure from the checkpoint file:  "E2SN2_202_mol2.chk"
 Charge = -1 Multiplicity = 1

                         Standard orientation:
 ---------------------------------------------------------------------
 Center     Atomic      Atomic             Coordinates (Angstroms)
 Number     Number       Type             X           Y           Z
 ---------------------------------------------------------------------
      1          6           0        0.767499   -0.274056    0.362476
      2          6           0       -0.329654    0.324101   -0.554689
      3         17           0        2.392860    0.211448   -0.332402
      4          1           0        0.124309    0.541939   -1.530157
      5          1           0        0.724159    0.217507    1.330348
      6          7           0        0.647590   -1.699529    0.400608
      7          1           0        1.392855   -2.058436    0.989446
      8          1           0       -0.241344   -1.739759    0.945167
      9          6           0       -0.803185    1.597337   -0.007381
     10          7           0       -1.116994    2.670660    0.347822
     11          6           0       -1.461978   -0.569700   -0.830621
     12          7           0       -2.320104   -1.197300   -1.330162
     13          9           0       -1.354236   -0.604307    1.574383
 ---------------------------------------------------------------------

 SCF Done:  E(RHF) =  -876.619627314     A.U. after    2 cycles

 The electronic state is 1-A.
 Alpha  occ. eigenvalues -- -105.44373 -26.11292 -15.40110 -15.38050 -15.36244
 Alpha  occ. eigenvalues --  -11.22790 -11.20954 -11.17828 -11.16775 -10.49273
 Alpha  occ. eigenvalues --   -7.66195  -7.65868  -7.65849  -1.18603  -1.11423
 Alpha  occ. eigenvalues --   -1.09573  -1.08222  -0.97591  -0.92992  -0.74120
 Alpha  occ. eigenvalues --   -0.66531  -0.59852  -0.57848  -0.53960  -0.50160
 Alpha  occ. eigenvalues --   -0.48912  -0.47303  -0.42644  -0.38598  -0.38224
 Alpha  occ. eigenvalues --   -0.36590  -0.36158  -0.35117  -0.34168  -0.32314
 Alpha  occ. eigenvalues --   -0.27884  -0.27427  -0.27127
 Alpha virt. eigenvalues --    0.13253   0.13612   0.15685   0.17203   0.18529
 Alpha virt. eigenvalues --    0.18824   0.19732   0.22595   0.23364   0.23573
 Alpha virt. eigenvalues --    0.23967   0.25133   0.25380   0.25716   0.26366

 Mulliken charges:
               1
     1  C   -1.108285
     2  C    0.878194
     3  Cl  -0.156661
     4  H    0.356337
     5  H    0.291949
     6  N    0.346932
     7  H    0.153046
     8  H    0.380764
     9  C   -1.451143
    10  N    0.968065
    11  C   -1.865232
    12  N    1.117399
    13  F   -0.911365
 Sum of Mulliken charges =  -1.00000

 Dipole moment (field-independent basis, Debye):
    X=              7.0842    Y=              0.2935    Z=             -2.1173  Tot=              7.3996

 Test job not archived.
 1\1\GINC-SE336\SP\RHF\Aug-CC-pVDZ\C4H4Cl1F1N3(1-)\OHZDE\09-Apr-2025\0\
 \#t hf aug-cc-pvdz iop(5/13=1,5/36=2,99/5=2) pseudo=read geom=check gu
 ess=(read,tcheck) scf=(maxcycle=1)\\title\\-1,1\C,0,-0.089194,0.03801,
 0.020712\C,0,-0.516985,-0.074334,-1.46492\Cl,0,1.700652,0.432828,0.051
 344\H,0,0.383739,-0.257523,-2.065096\H,0,-0.570179,0.906915,0.461104\N
 ,0,-0.338122,-1.199456,0.694892\H,0,-0.026116,-1.098076,1.655797\H,0,-
 1.379846,-1.143711,0.686542\C,0,-1.08639,1.195419,-1.921441\N,0,-1.439
 559,2.231973,-2.342744\C,0,-1.430519,-1.184657,-1.764613\N,0,-1.972152

 Normal termination of Gaussian 16 at Wed Apr  9 02:41:51 2025.
