 Gaussian 16, Revision C.01,

 ----------------------------------------------------------------------
 #t hf aug-cc-pvdz symm=none int=(grid=ultrafine) guess=(read,tcheck) s
 table=(opt,rrhf)
 ----------------------------------------------------------------------
 -----
 title
 -----
 Symbolic Z-matrix:
 Charge = -1 Multiplicity = 1

 SCF Done:  E(RHF) =  -1220.22574526     A.U. after   15 cycles
 Normal termination of Gaussian 16 at Wed Apr  9 02:49:36 2025.
 Gaussian 16:  ES64L-G16RevC.01  3-Jul-2019

 ----------------------------------------------------------------------
 #t hf aug-cc-pvdz iop(5/13=1,5/36=2,99/5=2) pseudo=read geom=check gue
 ss=(read,tcheck) scf=(maxcycle=1)
 ----------------------------------------------------------------------
 -----
 title
 -----
 Structure from the checkpoint file:  "E2SN2_271_mol2.chk"
 Charge = -1 Multiplicity = 1

                         Standard orientation:
 ---------------------------------------------------------------------
 Center     Atomic      Atomic             Coordinates (Angstroms)
 Number     Number       Type             X           Y           Z
 ---------------------------------------------------------------------
      1          6           0        0.471245    0.180672   -0.043593
      2          6           0        0.211148   -0.696288   -1.275392
      3         17           0        2.296514    0.313010    0.165210
      4          1           0        0.839035   -0.299008   -2.078840
      5          1           0       -0.840139   -0.548357   -1.522563
      6          6           0        0.010352    1.555742   -0.247909
      7          7           0       -0.177885    2.694141   -0.470802
      8          6           0       -0.006950   -0.395803    1.216229
      9          7           0       -0.129861   -0.905869    2.268784
     10          6           0        0.483832   -2.169689   -1.018449
     11          1           0        1.492556   -2.343807   -0.636043
     12          1           0       -0.240559   -2.559047   -0.300902
     13          1           0        0.370451   -2.730465   -1.949756
     14         17           0       -2.677978   -0.012129   -0.040685
 ---------------------------------------------------------------------

 SCF Done:  E(RHF) =  -1220.67575039     A.U. after    2 cycles

 The electronic state is 1-A.
 Alpha  occ. eigenvalues -- -105.48125-105.28155 -15.41561 -15.40949 -11.28744
 Alpha  occ. eigenvalues --  -11.19115 -11.18812 -11.14860 -11.13221 -10.52925
 Alpha  occ. eigenvalues --  -10.32798  -7.69863  -7.69474  -7.69472  -7.49568
 Alpha  occ. eigenvalues --   -7.49528  -7.49517  -1.13114  -1.10906  -1.05615
 Alpha  occ. eigenvalues --   -0.94080  -0.87881  -0.76189  -0.73766  -0.69720
 Alpha  occ. eigenvalues --   -0.57580  -0.54279  -0.50908  -0.50117  -0.49123
 Alpha  occ. eigenvalues --   -0.45353  -0.42958  -0.41521  -0.40362  -0.39332
 Alpha  occ. eigenvalues --   -0.38266  -0.36845  -0.36652  -0.36220  -0.20952
 Alpha  occ. eigenvalues --   -0.20611  -0.20476
 Alpha virt. eigenvalues --    0.11297   0.12844   0.13180   0.15799   0.16575
 Alpha virt. eigenvalues --    0.17297   0.18618   0.19267   0.20931   0.22221
 Alpha virt. eigenvalues --    0.22807   0.23505   0.23608   0.24063   0.24851

 Mulliken charges:
               1
     1  C   -1.167285
     2  C    0.305423
     3  Cl   0.117982
     4  H    0.236374
     5  H    0.235304
     6  C   -1.078910
     7  N    0.983123
     8  C   -0.946055
     9  N    0.999912
    10  C   -0.349732
    11  H    0.224909
    12  H    0.281996
    13  H    0.081448
    14  Cl  -0.924489
 Sum of Mulliken charges =  -1.00000

 Dipole moment (field-independent basis, Debye):
    X=              9.5251    Y=             -2.9268    Z=             -3.4359  Tot=             10.5404

 Test job not archived.
 1\1\GINC-SE165\SP\RHF\Aug-CC-pVDZ\C5H5Cl2N2(1-)\OHZDE\09-Apr-2025\0\\#
 t hf aug-cc-pvdz iop(5/13=1,5/36=2,99/5=2) pseudo=read geom=check gues
 s=(read,tcheck) scf=(maxcycle=1)\\title\\-1,1\C,0,-0.078757,0.015557,-
 0.000203\C,0,-0.487698,0.168479,-1.47106\Cl,0,1.762049,0.011463,0.0641
 13\H,0,0.088077,1.009923,-1.868623\H,0,-1.547521,0.422816,-1.454657\C,
 0,-0.485479,1.172531,0.800405\N,0,-0.63445,2.169633,1.404278\C,0,-0.47
 5415,-1.259336,0.604326\N,0,-0.533016,-2.340504,1.063569\C,0,-0.26869,
 -1.100616,-2.27897\H,0,0.759081,-1.464887,-2.207776\H,0,-0.947471,-1.8

 Normal termination of Gaussian 16 at Wed Apr  9 02:49:46 2025.
