 Gaussian 16, Revision C.01,

 ----------------------------------------------------------------------
 #t hf aug-cc-pvdz symm=none int=(grid=ultrafine) guess=(read,tcheck) s
 table=(opt,rrhf)
 ----------------------------------------------------------------------
 -----
 title
 -----
 Symbolic Z-matrix:
 Charge = -1 Multiplicity = 1

 SCF Done:  E(RHF) =  -852.254563741     A.U. after   16 cycles
 Normal termination of Gaussian 16 at Wed Apr  9 02:35:00 2025.
 Gaussian 16:  ES64L-G16RevC.01  3-Jul-2019

 ----------------------------------------------------------------------
 #t hf aug-cc-pvdz iop(5/13=1,5/36=2,99/5=2) pseudo=read geom=check gue
 ss=(read,tcheck) scf=(maxcycle=1)
 ----------------------------------------------------------------------
 -----
 title
 -----
 Structure from the checkpoint file:  "E2SN2_119_mol2.chk"
 Charge = -1 Multiplicity = 1

                         Standard orientation:
 ---------------------------------------------------------------------
 Center     Atomic      Atomic             Coordinates (Angstroms)
 Number     Number       Type             X           Y           Z
 ---------------------------------------------------------------------
      1          6           0       -0.743600    0.518875   -0.252796
      2          6           0        0.357348   -0.365402    0.363363
      3         17           0       -2.311029   -0.405804   -0.270008
      4          1           0        0.362190   -0.126983    1.435588
      5          1           0       -0.529174    0.709819   -1.305365
      6          7           0       -0.938212    1.744428    0.457154
      7          1           0       -0.187307    2.365241    0.179446
      8          1           0       -0.809017    1.537739    1.458580
      9          7           0        1.672540    0.108256   -0.134308
     10          8           0        2.633744   -0.655621   -0.002179
     11          8           0        1.774379    1.263580   -0.566481
     12          7           0        0.274903   -1.784789    0.062300
     13          1           0       -0.554124   -2.123995    0.536363
     14          1           0        1.069897   -2.218642    0.518851
     15          1           0       -0.077069    0.495717    2.956536
 ---------------------------------------------------------------------

 SCF Done:  E(RHF) =  -852.730059516     A.U. after    2 cycles

 The electronic state is 1-A.
 Alpha  occ. eigenvalues -- -105.43461 -20.47459 -20.47442 -15.66486 -15.38761
 Alpha  occ. eigenvalues --  -15.35818 -11.21958 -11.19320 -10.48363  -7.65291
 Alpha  occ. eigenvalues --   -7.64945  -7.64922  -1.54112  -1.37945  -1.12494
 Alpha  occ. eigenvalues --   -1.07502  -0.95887  -0.93930  -0.78443  -0.71510
 Alpha  occ. eigenvalues --   -0.67352  -0.63432  -0.62890  -0.58692  -0.56082
 Alpha  occ. eigenvalues --   -0.52700  -0.51699  -0.46986  -0.43202  -0.39185
 Alpha  occ. eigenvalues --   -0.37266  -0.35271  -0.33654  -0.33346  -0.32775
 Alpha  occ. eigenvalues --   -0.31304  -0.10362
 Alpha virt. eigenvalues --    0.13284   0.14049   0.15285   0.15708   0.17132
 Alpha virt. eigenvalues --    0.18703   0.19419   0.20804   0.21771   0.22648
 Alpha virt. eigenvalues --    0.23741   0.24313   0.25068   0.26382   0.26413

 Mulliken charges:
               1
     1  C   -0.632878
     2  C   -2.141735
     3  Cl  -0.095325
     4  H    0.002896
     5  H    0.277050
     6  N    0.433713
     7  H    0.294529
     8  H    0.154175
     9  N    3.285558
    10  O   -1.513982
    11  O   -1.531259
    12  N    0.609844
    13  H    0.269575
    14  H    0.261705
    15  H   -0.673865
 Sum of Mulliken charges =  -1.00000

 Dipole moment (field-independent basis, Debye):
    X=             -0.0013    Y=             -2.2257    Z=             -8.0364  Tot=              8.3389

 Test job not archived.
 1\1\GINC-SE127\SP\RHF\Aug-CC-pVDZ\C2H7Cl1N3O2(1-)\OHZDE\09-Apr-2025\0\
 \#t hf aug-cc-pvdz iop(5/13=1,5/36=2,99/5=2) pseudo=read geom=check gu
 ess=(read,tcheck) scf=(maxcycle=1)\\title\\-1,1\C,0,-0.365863,-0.14988
 3,-1.457113\C,0,0.009045,-0.000642,0.029781\Cl,0,-0.55419,1.503773,-2.
 193399\H,0,1.106999,-0.011163,0.060113\H,0,-1.353048,-0.60431,-1.55355
 7\N,0,0.606441,-0.88152,-2.207589\H,0,0.458233,-1.862015,-2.000097\H,0
 ,1.532183,-0.626626,-1.833026\N,0,-0.399845,-1.236043,0.742769\O,0,-0.
 465946,-1.18042,1.974603\O,0,-0.562749,-2.279806,0.097835\N,0,-0.60218

 Normal termination of Gaussian 16 at Wed Apr  9 02:35:06 2025.
