 Gaussian 16, Revision C.01,

 ----------------------------------------------------------------------
 #t hf aug-cc-pvdz symm=none int=(grid=ultrafine) guess=(read,tcheck) s
 table=(opt,rrhf)
 ----------------------------------------------------------------------
 -----
 title
 -----
 Symbolic Z-matrix:
 Charge = -1 Multiplicity = 1

 SCF Done:  E(RHF) =  -935.213128319     A.U. after   16 cycles
 Normal termination of Gaussian 16 at Wed Apr  9 02:36:07 2025.
 Gaussian 16:  ES64L-G16RevC.01  3-Jul-2019

 ----------------------------------------------------------------------
 #t hf aug-cc-pvdz iop(5/13=1,5/36=2,99/5=2) pseudo=read geom=check gue
 ss=(read,tcheck) scf=(maxcycle=1)
 ----------------------------------------------------------------------
 -----
 title
 -----
 Structure from the checkpoint file:  "E2SN2_134_mol2.chk"
 Charge = -1 Multiplicity = 1

                         Standard orientation:
 ---------------------------------------------------------------------
 Center     Atomic      Atomic             Coordinates (Angstroms)
 Number     Number       Type             X           Y           Z
 ---------------------------------------------------------------------
      1          6           0       -0.083128    0.206884   -0.179722
      2          6           0       -0.486055   -0.188727    1.239132
      3         17           0       -0.235938   -1.214639   -1.260872
      4          1           0       -1.562930   -0.359917    1.145520
      5          1           0       -0.382379    0.730206    1.827946
      6          7           0       -0.801922    1.284068   -0.743613
      7          1           0       -0.567935    2.100314   -0.185691
      8          1           0       -1.833671    1.039769   -0.485983
      9          7           0        1.419043    0.582282   -0.114734
     10          8           0        1.644339    1.683800    0.387465
     11          8           0        2.287162   -0.211989   -0.458438
     12          6           0        0.300137   -1.324275    1.877340
     13          1           0        1.366299   -1.092422    1.965196
     14          1           0       -0.080936   -1.517895    2.884421
     15          1           0        0.205281   -2.244626    1.299043
     16          9           0       -3.032261    0.554579    0.215565
 ---------------------------------------------------------------------

 SCF Done:  E(RHF) =  -935.761687715     A.U. after    2 cycles

 The electronic state is 1-A.
 Alpha  occ. eigenvalues -- -105.43092 -26.10575 -20.47522 -20.47012 -15.65960
 Alpha  occ. eigenvalues --  -15.33339 -11.25890 -11.11521 -11.10828 -10.48033
 Alpha  occ. eigenvalues --   -7.64977  -7.64586  -7.64580  -1.54284  -1.38171
 Alpha  occ. eigenvalues --   -1.17593  -1.10436  -0.96026  -0.90976  -0.89077
 Alpha  occ. eigenvalues --   -0.76570  -0.70462  -0.62838  -0.62381  -0.61134
 Alpha  occ. eigenvalues --   -0.52866  -0.51152  -0.48756  -0.46788  -0.43667
 Alpha  occ. eigenvalues --   -0.40529  -0.38786  -0.37666  -0.36444  -0.33484
 Alpha  occ. eigenvalues --   -0.32830  -0.32340  -0.30890  -0.27002  -0.26593
 Alpha  occ. eigenvalues --   -0.25348
 Alpha virt. eigenvalues --    0.12293   0.13886   0.14347   0.15292   0.16634
 Alpha virt. eigenvalues --    0.18444   0.18804   0.19511   0.20103   0.22672
 Alpha virt. eigenvalues --    0.23374   0.23815   0.24496   0.25850   0.26634

 Mulliken charges:
               1
     1  C   -2.626418
     2  C    0.377357
     3  Cl   0.000238
     4  H    0.221450
     5  H    0.142039
     6  N    0.762308
     7  H    0.379836
     8  H    0.412533
     9  N    3.073171
    10  O   -1.527141
    11  O   -1.437292
    12  C   -0.231819
    13  H    0.184404
    14  H    0.116484
    15  H    0.191324
    16  F   -1.038476
 Sum of Mulliken charges =  -1.00000

 Dipole moment (field-independent basis, Debye):
    X=              6.0941    Y=             -2.1606    Z=              1.9892  Tot=              6.7649

 Test job not archived.
 1\1\GINC-SE462\SP\RHF\Aug-CC-pVDZ\C3H7Cl1F1N2O2(1-)\OHZDE\09-Apr-2025\
 0\\#t hf aug-cc-pvdz iop(5/13=1,5/36=2,99/5=2) pseudo=read geom=check
 guess=(read,tcheck) scf=(maxcycle=1)\\title\\-1,1\C,0,0.034153,-0.0434
 06,-1.493319\C,0,0.108629,0.059756,0.028461\Cl,0,0.220295,1.588508,-2.
 211075\H,0,1.15537,0.328388,0.201374\H,0,0.004558,-0.971337,0.3861\N,0
 ,0.970464,-0.912564,-2.095687\H,0,0.733101,-1.84686,-1.774698\H,0,1.89
 7444,-0.65351,-1.581721\N,0,-1.39719,-0.536552,-1.824572\O,0,-1.581476
 ,-1.735377,-1.612062\O,0,-2.271954,0.245793,-2.178626\C,0,-0.914496,0.

 Normal termination of Gaussian 16 at Wed Apr  9 02:36:15 2025.
