 Gaussian 16, Revision C.01,

 ----------------------------------------------------------------------
 #t hf aug-cc-pvdz symm=none int=(grid=ultrafine) guess=(read,tcheck) s
 table=(opt,rrhf)
 ----------------------------------------------------------------------
 -----
 title
 -----
 Symbolic Z-matrix:
 Charge = -1 Multiplicity = 1

 SCF Done:  E(RHF) =  -1042.95404832     A.U. after   16 cycles
 Normal termination of Gaussian 16 at Wed Apr  9 02:37:59 2025.
 Gaussian 16:  ES64L-G16RevC.01  3-Jul-2019

 ----------------------------------------------------------------------
 #t hf aug-cc-pvdz iop(5/13=1,5/36=2,99/5=2) pseudo=read geom=check gue
 ss=(read,tcheck) scf=(maxcycle=1)
 ----------------------------------------------------------------------
 -----
 title
 -----
 Structure from the checkpoint file:  "E2SN2_143_mol2.chk"
 Charge = -1 Multiplicity = 1

                         Standard orientation:
 ---------------------------------------------------------------------
 Center     Atomic      Atomic             Coordinates (Angstroms)
 Number     Number       Type             X           Y           Z
 ---------------------------------------------------------------------
      1          6           0       -0.839251   -0.616754    0.146234
      2          6           0        0.667758   -0.239054    0.178884
      3         17           0       -1.537523    0.005578   -1.483873
      4          1           0        1.048767   -0.401526    1.188723
      5          7           0       -0.889607   -2.014033    0.261325
      6          1           0       -0.128313   -2.382817   -0.310094
      7          1           0       -1.795767   -2.397336    0.032152
      8          6           0       -1.688378    0.009709    1.162221
      9          7           0       -2.422186    0.426191    1.980212
     10          7           0        0.766507    1.274296   -0.018628
     11          8           0        1.306759    1.695651   -1.035396
     12          8           0        0.287355    1.974307    0.872744
     13          7           0        1.420474   -1.014740   -0.705603
     14          1           0        2.407672   -1.055124   -0.151121
     15          1           0        1.455040   -0.570888   -1.615600
     16          9           0        3.270054   -0.919134    0.870867
 ---------------------------------------------------------------------

 SCF Done:  E(RHF) =  -1043.59723472     A.U. after    2 cycles

 The electronic state is 1-A.
 Alpha  occ. eigenvalues -- -105.46312 -26.12770 -20.47600 -20.47125 -15.66144
 Alpha  occ. eigenvalues --  -15.42868 -15.42037 -15.33945 -11.29116 -11.22215
 Alpha  occ. eigenvalues --  -11.19906 -10.51172  -7.68084  -7.67741  -7.67733
 Alpha  occ. eigenvalues --   -1.54275  -1.38335  -1.20382  -1.17544  -1.12270
 Alpha  occ. eigenvalues --   -1.07806  -0.97977  -0.92773  -0.85222  -0.75002
 Alpha  occ. eigenvalues --   -0.69950  -0.65952  -0.63071  -0.61751  -0.59829
 Alpha  occ. eigenvalues --   -0.56846  -0.53555  -0.52507  -0.49615  -0.45234
 Alpha  occ. eigenvalues --   -0.41620  -0.41324  -0.39463  -0.37516  -0.37035
 Alpha  occ. eigenvalues --   -0.36150  -0.35180  -0.33142  -0.32718  -0.29352
 Alpha  occ. eigenvalues --   -0.29165  -0.27119
 Alpha virt. eigenvalues --    0.11726   0.14351   0.15309   0.16414   0.16862
 Alpha virt. eigenvalues --    0.17488   0.18397   0.18816   0.20123   0.21290
 Alpha virt. eigenvalues --    0.22572   0.22764   0.24225   0.24640   0.25516

 Mulliken charges:
               1
     1  C   -1.646414
     2  C   -0.805457
     3  Cl  -0.004142
     4  H    0.155050
     5  N    0.798075
     6  H    0.322921
     7  H    0.151408
     8  C   -1.244056
     9  N    0.950732
    10  N    3.059760
    11  O   -1.498773
    12  O   -1.501290
    13  N   -0.046759
    14  H    0.775095
    15  H    0.540186
    16  F   -1.006337
 Sum of Mulliken charges =  -1.00000

 Dipole moment (field-independent basis, Debye):
    X=             -6.8340    Y=             -1.5230    Z=             -4.6410  Tot=              8.4001

 Test job not archived.
 1\1\GINC-SE398\SP\RHF\Aug-CC-pVDZ\C3H5Cl1F1N4O2(1-)\OHZDE\09-Apr-2025\
 0\\#t hf aug-cc-pvdz iop(5/13=1,5/36=2,99/5=2) pseudo=read geom=check
 guess=(read,tcheck) scf=(maxcycle=1)\\title\\-1,1\C,0,-0.685641,-0.093
 668,-1.488083\C,0,0.061158,-0.044868,-0.126206\Cl,0,-2.525566,-0.18160
 8,-1.11516\H,0,1.126746,-0.200368,-0.304197\N,0,-0.324168,1.078574,-2.
 168786\H,0,-0.312132,1.828047,-1.475796\H,0,-0.912477,1.269469,-2.9675
 47\C,0,-0.433315,-1.268465,-2.325869\N,0,-0.238296,-2.150019,-3.078113
 \N,0,-0.366729,-1.274178,0.676726\O,0,-1.003751,-1.102893,1.710213\O,0

 Normal termination of Gaussian 16 at Wed Apr  9 02:38:08 2025.
