 Gaussian 16, Revision C.01,

 ----------------------------------------------------------------------
 #t hf aug-cc-pvdz symm=none int=(grid=ultrafine) guess=(read,tcheck) s
 table=(opt,rrhf)
 ----------------------------------------------------------------------
 -----
 title
 -----
 Symbolic Z-matrix:
 Charge = -1 Multiplicity = 1

 SCF Done:  E(RHF) =  -1083.64257659     A.U. after   16 cycles
 Normal termination of Gaussian 16 at Wed Apr  9 02:54:02 2025.
 Gaussian 16:  ES64L-G16RevC.01  3-Jul-2019

 ----------------------------------------------------------------------
 #t hf aug-cc-pvdz iop(5/13=1,5/36=2,99/5=2) pseudo=read geom=check gue
 ss=(read,tcheck) scf=(maxcycle=1)
 ----------------------------------------------------------------------
 -----
 title
 -----
 Structure from the checkpoint file:  "E2SN2_323_mol1.chk"
 Charge = -1 Multiplicity = 1

                         Standard orientation:
 ---------------------------------------------------------------------
 Center     Atomic      Atomic             Coordinates (Angstroms)
 Number     Number       Type             X           Y           Z
 ---------------------------------------------------------------------
      1          6           0       -1.163474   -0.069326    0.417269
      2          1           0        0.470233   -0.956332    1.377814
      3         17           0       -1.096045    1.694981   -0.935098
      4          9           0       -1.357901   -1.347982    1.870457
      5          6           0        0.315427   -0.359152    0.483958
      6          1           0       -1.508728    0.590264    1.187947
      7          6           0       -2.096270   -0.928249   -0.400374
      8          1           0       -2.071322   -0.676134   -1.456366
      9          1           0       -1.835947   -1.974352   -0.252507
     10          1           0       -3.102635   -0.783487   -0.008567
     11          7           0        1.177154    0.861053    0.650009
     12          8           0        2.101951    1.046929   -0.130485
     13          8           0        0.905690    1.540788    1.630335
     14          7           0        0.887469   -1.155021   -0.644387
     15          8           0        1.823935   -1.891700   -0.328148
     16          8           0        0.432901   -1.031600   -1.775482
 ---------------------------------------------------------------------

 SCF Done:  E(RHF) =  -1084.31792295     A.U. after    2 cycles

 The electronic state is 1-A.
 Alpha  occ. eigenvalues -- -105.35035 -26.16514 -20.49667 -20.49276 -20.49151
 Alpha  occ. eigenvalues --  -20.48870 -15.69351 -15.69157 -11.26182 -11.24413
 Alpha  occ. eigenvalues --  -11.11980 -10.39880  -7.56718  -7.56550  -7.56524
 Alpha  occ. eigenvalues --   -1.57157  -1.55919  -1.40725  -1.40333  -1.24335
 Alpha  occ. eigenvalues --   -1.09012  -0.93585  -0.90726  -0.81692  -0.78888
 Alpha  occ. eigenvalues --   -0.73249  -0.71184  -0.67604  -0.64960  -0.63591
 Alpha  occ. eigenvalues --   -0.62939  -0.58483  -0.54078  -0.48123  -0.46887
 Alpha  occ. eigenvalues --   -0.43833  -0.40393  -0.39491  -0.38892  -0.38146
 Alpha  occ. eigenvalues --   -0.35319  -0.35003  -0.33733  -0.32525  -0.32331
 Alpha  occ. eigenvalues --   -0.27615  -0.26912  -0.25883
 Alpha virt. eigenvalues --    0.13377   0.14199   0.14927   0.15235   0.15875
 Alpha virt. eigenvalues --    0.16592   0.17118   0.20584   0.21608   0.22272
 Alpha virt. eigenvalues --    0.23933   0.24638   0.25213   0.25763   0.26081

 Mulliken charges:
               1
     1  C    0.292233
     2  H    0.399920
     3  Cl  -0.738978
     4  F   -0.912595
     5  C   -0.679480
     6  H   -0.013529
     7  C   -0.315661
     8  H    0.316006
     9  H    0.279059
    10  H    0.181400
    11  N    2.924504
    12  O   -1.446999
    13  O   -1.474590
    14  N    3.137691
    15  O   -1.487479
    16  O   -1.461503
 Sum of Mulliken charges =  -1.00000

 Dipole moment (field-independent basis, Debye):
    X=              0.9728    Y=             -1.3900    Z=             -0.7766  Tot=              1.8659

 Test job not archived.
 1\1\GINC-SE250\SP\RHF\Aug-CC-pVDZ\C3H5Cl1F1N2O4(1-)\OHZDE\09-Apr-2025\
 0\\#t hf aug-cc-pvdz iop(5/13=1,5/36=2,99/5=2) pseudo=read geom=check
 guess=(read,tcheck) scf=(maxcycle=1)\\title\\-1,1\C,0,0.6077524,-0.085
 69449,-0.05235437\H,0,1.67213368,1.70655009,0.13033204\Cl,0,-1.5325024
 9,-0.40356886,0.46193046\F,0,2.54835925,0.0064679,-0.15270042\C,0,0.63
 179753,1.42158232,0.00359978\H,0,0.85529144,-0.55567496,0.87826197\C,0
 ,0.62184778,-0.82331605,-1.36845256\H,0,-0.35967792,-0.86118753,-1.831
 5685\H,0,1.3387209,-0.3469277,-2.0341181\H,0,0.97877824,-1.83416732,-1

 Normal termination of Gaussian 16 at Wed Apr  9 02:54:12 2025.
