 Gaussian 16, Revision C.01,

 ----------------------------------------------------------------------
 #t hf aug-cc-pvdz symm=none int=(grid=ultrafine) guess=(read,tcheck) s
 table=(opt,rrhf)
 ----------------------------------------------------------------------
 -----
 title
 -----
 Symbolic Z-matrix:
 Charge = -1 Multiplicity = 1

 SCF Done:  E(RHF) =  -990.210019382     A.U. after   16 cycles
 Normal termination of Gaussian 16 at Wed Apr  9 02:37:07 2025.
 Gaussian 16:  ES64L-G16RevC.01  3-Jul-2019

 ----------------------------------------------------------------------
 #t hf aug-cc-pvdz iop(5/13=1,5/36=2,99/5=2) pseudo=read geom=check gue
 ss=(read,tcheck) scf=(maxcycle=1)
 ----------------------------------------------------------------------
 -----
 title
 -----
 Structure from the checkpoint file:  "E2SN2_133_mol1.chk"
 Charge = -1 Multiplicity = 1

                         Standard orientation:
 ---------------------------------------------------------------------
 Center     Atomic      Atomic             Coordinates (Angstroms)
 Number     Number       Type             X           Y           Z
 ---------------------------------------------------------------------
      1          6           0        0.187157   -0.043187   -0.352304
      2          6           0       -0.826935   -0.444344    0.589943
      3         17           0        1.714140   -1.279062   -0.451329
      4          9           0       -2.816558    0.731033   -0.489088
      5          1           0       -1.967291    0.378347    0.101912
      6          7           0       -0.192070    0.124619   -1.725376
      7          1           0       -1.170152    0.404172   -1.725312
      8          1           0       -0.077392   -0.749622   -2.216470
      9          7           0        0.813512    1.282481    0.126450
     10          8           0        1.886860    1.314572    0.709570
     11          8           0        0.107746    2.257910   -0.112621
     12          7           0       -0.392207   -0.256126    1.962113
     13          1           0        0.199024   -1.034651    2.256282
     14          1           0       -1.201071   -0.236060    2.570297
     15          6           0       -1.422620   -1.806827    0.284011
     16          1           0       -0.703449   -2.616985    0.486240
     17          1           0       -2.307778   -1.966825    0.909108
     18          1           0       -1.750354   -1.884152   -0.755472
 ---------------------------------------------------------------------

 SCF Done:  E(RHF) =  -990.816476845     A.U. after    2 cycles

 The electronic state is 1-A.
 Alpha  occ. eigenvalues -- -105.40358 -26.20728 -20.44499 -20.44140 -15.63768
 Alpha  occ. eigenvalues --  -15.37302 -15.34894 -11.25623 -11.09431 -11.07545
 Alpha  occ. eigenvalues --  -10.45164  -7.62055  -7.61764  -7.61757  -1.51689
 Alpha  occ. eigenvalues --   -1.35612  -1.30111  -1.11144  -1.04119  -0.93344
 Alpha  occ. eigenvalues --   -0.86697  -0.85869  -0.74466  -0.67349  -0.61761
 Alpha  occ. eigenvalues --   -0.60573  -0.58655  -0.57226  -0.55956  -0.50692
 Alpha  occ. eigenvalues --   -0.49544  -0.44988  -0.43067  -0.41681  -0.39798
 Alpha  occ. eigenvalues --   -0.37879  -0.37172  -0.36608  -0.34700  -0.33185
 Alpha  occ. eigenvalues --   -0.31657  -0.30862  -0.29383  -0.28977  -0.17570
 Alpha virt. eigenvalues --    0.12821   0.13511   0.14142   0.14353   0.16289
 Alpha virt. eigenvalues --    0.16639   0.17700   0.18403   0.20768   0.21017
 Alpha virt. eigenvalues --    0.22478   0.24625   0.25227   0.25774   0.26253

 Mulliken charges:
               1
     1  C   -2.315831
     2  C   -1.982594
     3  Cl  -0.149977
     4  F   -1.057282
     5  H    1.282429
     6  N    0.798595
     7  H    0.250351
     8  H    0.260500
     9  N    3.298457
    10  O   -1.522947
    11  O   -1.552368
    12  N    0.737919
    13  H    0.164449
    14  H    0.238496
    15  C    0.129489
    16  H    0.189150
    17  H    0.077501
    18  H    0.153663
 Sum of Mulliken charges =  -1.00000

 Dipole moment (field-independent basis, Debye):
    X=              0.6147    Y=             -4.0112    Z=              0.2514  Tot=              4.0658

 Test job not archived.
 1\1\GINC-SE071\SP\RHF\Aug-CC-pVDZ\C3H8Cl1F1N3O2(1-)\OHZDE\09-Apr-2025\
 0\\#t hf aug-cc-pvdz iop(5/13=1,5/36=2,99/5=2) pseudo=read geom=check
 guess=(read,tcheck) scf=(maxcycle=1)\\title\\-1,1\C,0,-0.18050625,-0.0
 2188558,-0.28058972\C,0,-0.29349328,0.09237735,1.15165266\Cl,0,1.67196
 638,-0.18370679,-0.92170424\F,0,-2.65231214,-0.84236845,1.40979942\H,0
 ,-1.72819782,-0.2649727,1.32290998\N,0,-0.85104751,-1.11188297,-0.9283
 387\H,0,-1.66652589,-1.3306467,-0.36094947\H,0,-0.23289353,-1.90830498
 ,-0.97544873\N,0,-0.68273782,1.28660774,-0.92442969\O,0,0.08864836,2.1

 Normal termination of Gaussian 16 at Wed Apr  9 02:37:18 2025.
