 Gaussian 16, Revision C.01,

 ----------------------------------------------------------------------
 #t hf aug-cc-pvdz symm=none int=(grid=ultrafine) guess=(read,tcheck) s
 table=(opt,rrhf)
 ----------------------------------------------------------------------
 -----
 title
 -----
 Symbolic Z-matrix:
 Charge = -1 Multiplicity = 1

 SCF Done:  E(RHF) =  -832.214722677     A.U. after   17 cycles
 Normal termination of Gaussian 16 at Wed Apr  9 02:38:14 2025.
 Gaussian 16:  ES64L-G16RevC.01  3-Jul-2019

 ----------------------------------------------------------------------
 #t hf aug-cc-pvdz iop(5/13=1,5/36=2,99/5=2) pseudo=read geom=check gue
 ss=(read,tcheck) scf=(maxcycle=1)
 ----------------------------------------------------------------------
 -----
 title
 -----
 Structure from the checkpoint file:  "E2SN2_149_mol1.chk"
 Charge = -1 Multiplicity = 1

                         Standard orientation:
 ---------------------------------------------------------------------
 Center     Atomic      Atomic             Coordinates (Angstroms)
 Number     Number       Type             X           Y           Z
 ---------------------------------------------------------------------
      1          6           0        0.570203   -0.080198   -0.281319
      2          6           0       -0.888902   -0.432351   -0.498027
      3         17           0        1.073886   -0.386622    1.484315
      4          1           0       -0.670524   -0.964546   -2.876597
      5          1           0       -0.931321   -0.397600   -1.739297
      6          7           0        1.465314   -0.843897   -1.118178
      7          1           0        0.971343   -0.906892   -2.027254
      8          1           0        1.477289   -1.791030   -0.753466
      9          6           0        0.799931    1.351706   -0.513828
     10          7           0        0.969894    2.494852   -0.726483
     11          7           0       -1.226400   -1.818914   -0.308864
     12          1           0       -0.699307   -2.243273    0.445004
     13          1           0       -1.031352   -2.285010   -1.197705
     14          6           0       -1.805465    0.468347    0.161688
     15          7           0       -2.555492    1.213090    0.682795
 ---------------------------------------------------------------------

 SCF Done:  E(RHF) =  -832.664926455     A.U. after    2 cycles

 The electronic state is 1-A.
 Alpha  occ. eigenvalues -- -105.45855 -15.41667 -15.39429 -15.38546 -15.38119
 Alpha  occ. eigenvalues --  -11.27400 -11.18385 -11.16437 -11.15865 -10.50700
 Alpha  occ. eigenvalues --   -7.67618  -7.67274  -7.67260  -1.15266  -1.10974
 Alpha  occ. eigenvalues --   -1.09127  -1.06519  -0.96801  -0.88727  -0.79024
 Alpha  occ. eigenvalues --   -0.64000  -0.63201  -0.59866  -0.57712  -0.54194
 Alpha  occ. eigenvalues --   -0.50723  -0.48498  -0.47081  -0.43133  -0.39744
 Alpha  occ. eigenvalues --   -0.39543  -0.38555  -0.36161  -0.35720  -0.35562
 Alpha  occ. eigenvalues --   -0.34913  -0.33413  -0.14394
 Alpha virt. eigenvalues --    0.12529   0.14219   0.15326   0.16701   0.17243
 Alpha virt. eigenvalues --    0.17671   0.18244   0.19052   0.20985   0.22208
 Alpha virt. eigenvalues --    0.23017   0.23608   0.24112   0.24500   0.24756

 Mulliken charges:
               1
     1  C   -1.417544
     2  C   -0.539894
     3  Cl  -0.013930
     4  H   -0.421193
     5  H    0.374593
     6  N    0.843216
     7  H    0.249118
     8  H    0.257175
     9  C   -1.370926
    10  N    0.967983
    11  N    0.807918
    12  H    0.185750
    13  H    0.298361
    14  C   -2.192099
    15  N    0.971472
 Sum of Mulliken charges =  -1.00000

 Dipole moment (field-independent basis, Debye):
    X=              4.1546    Y=             -4.3700    Z=              4.9047  Tot=              7.7727

 Test job not archived.
 1\1\GINC-SE164\SP\RHF\Aug-CC-pVDZ\C4H6Cl1N4(1-)\OHZDE\09-Apr-2025\0\\#
 t hf aug-cc-pvdz iop(5/13=1,5/36=2,99/5=2) pseudo=read geom=check gues
 s=(read,tcheck) scf=(maxcycle=1)\\title\\-1,1\C,0,-0.20341856,0.008222
 85,-0.36480911\C,0,-0.10209536,0.06541305,1.14728396\Cl,0,1.47264583,-
 0.24084121,-1.135413\H,0,-2.36590825,-0.75486334,1.58410816\H,0,-1.306
 0775,-0.02039619,1.44193921\N,0,-1.05098851,-1.06265672,-0.8334622\H,0
 ,-1.83754429,-1.07792562,-0.15856126\H,0,-0.54727674,-1.92996167,-0.67
 765795\C,0,-0.69856913,1.28250895,-0.90165868\N,0,-1.11777769,2.300795

 Normal termination of Gaussian 16 at Wed Apr  9 02:38:21 2025.
