 Gaussian 16, Revision C.01,

 ----------------------------------------------------------------------
 #t hf aug-cc-pvdz symm=none int=(grid=ultrafine) guess=(read,tcheck) s
 table=(opt,rrhf)
 ----------------------------------------------------------------------
 -----
 title
 -----
 Symbolic Z-matrix:
 Charge = -1 Multiplicity = 1

 SCF Done:  E(RHF) =  -417.131243086     A.U. after   16 cycles
 Normal termination of Gaussian 16 at Wed Apr  9 02:36:40 2025.
 Gaussian 16:  ES64L-G16RevC.01  3-Jul-2019

 ----------------------------------------------------------------------
 #t hf aug-cc-pvdz iop(5/13=1,5/36=2,99/5=2) pseudo=read geom=check gue
 ss=(read,tcheck) scf=(maxcycle=1)
 ----------------------------------------------------------------------
 -----
 title
 -----
 Structure from the checkpoint file:  "E2SN2_145_mol1.chk"
 Charge = -1 Multiplicity = 1

                         Standard orientation:
 ---------------------------------------------------------------------
 Center     Atomic      Atomic             Coordinates (Angstroms)
 Number     Number       Type             X           Y           Z
 ---------------------------------------------------------------------
      1          6           0       -0.565958   -0.324349    0.024283
      2          6           0        0.730275   -0.611095   -0.703215
      3          9           0       -1.590604   -0.960972   -0.736552
      4          1           0        0.851755   -2.995872    0.107427
      5          1           0        0.883492   -1.851521   -0.411910
      6          1           0        0.597697   -0.488171   -1.780016
      7          7           0       -0.474381   -0.821966    1.336883
      8          1           0       -0.088950   -1.771570    1.274502
      9          1           0       -1.376869   -0.821321    1.795087
     10          6           0       -0.985642    1.103639    0.034012
     11          7           0       -1.299571    2.235807    0.016685
     12          6           0        1.850145    0.139796   -0.211996
     13          7           0        2.813295    0.690340    0.187200
 ---------------------------------------------------------------------

 SCF Done:  E(RHF) =  -417.538984594     A.U. after    2 cycles

 The electronic state is 1-A.
 Alpha  occ. eigenvalues --  -26.33934 -15.41801 -15.38720 -15.37583 -11.28505
 Alpha  occ. eigenvalues --  -11.18280 -11.15501 -11.12296  -1.46073  -1.12778
 Alpha  occ. eigenvalues --   -1.10373  -1.07885  -0.92832  -0.81259  -0.67128
 Alpha  occ. eigenvalues --   -0.62080  -0.59546  -0.55708  -0.51950  -0.50764
 Alpha  occ. eigenvalues --   -0.47868  -0.46660  -0.45056  -0.44504  -0.39882
 Alpha  occ. eigenvalues --   -0.39176  -0.36501  -0.34677  -0.34193  -0.12567
 Alpha virt. eigenvalues --    0.13142   0.13923   0.17037   0.17935   0.18063
 Alpha virt. eigenvalues --    0.19430   0.19808   0.21098   0.22581   0.23427
 Alpha virt. eigenvalues --    0.24075   0.24499   0.25424   0.26195   0.26602

 Mulliken charges:
               1
     1  C    0.987420
     2  C    0.083763
     3  F   -0.945702
     4  H   -0.540772
     5  H    0.250881
     6  H    0.156756
     7  N    0.405157
     8  H    0.212822
     9  H    0.214836
    10  C   -1.991938
    11  N    0.902877
    12  C   -1.618474
    13  N    0.882375
 Sum of Mulliken charges =  -1.00000

 Dipole moment (field-independent basis, Debye):
    X=             -5.3333    Y=              2.4085    Z=             -0.9041  Tot=              5.9213

 Test job not archived.
 1\1\GINC-SE366\SP\RHF\Aug-CC-pVDZ\C4H5F1N3(1-)\OHZDE\09-Apr-2025\0\\#t
  hf aug-cc-pvdz iop(5/13=1,5/36=2,99/5=2) pseudo=read geom=check guess
 =(read,tcheck) scf=(maxcycle=1)\\title\\-1,1\C,0,-0.21901157,-0.092159
 99,-0.3414746\C,0,0.05139466,0.15859682,1.12675497\F,0,0.54504798,-1.2
 453384,-0.68853488\H,0,-1.43329819,-1.72979394,1.89403835\H,0,-0.62247
 568,-0.80120662,1.64797091\H,0,1.11448121,0.03713819,1.34420203\N,0,-1
 .60082807,-0.27907606,-0.52741059\H,0,-1.91863372,-0.93123183,0.199148
 4\H,0,-1.80344236,-0.63385748,-1.45343008\C,0,0.29749697,0.95105632,-1

 Normal termination of Gaussian 16 at Wed Apr  9 02:36:44 2025.
