 Gaussian 16, Revision C.01,

 ----------------------------------------------------------------------
 #t hf aug-cc-pvdz symm=none int=(grid=ultrafine) guess=(read,tcheck) s
 table=(opt,rrhf)
 ----------------------------------------------------------------------
 -----
 title
 -----
 Symbolic Z-matrix:
 Charge = -1 Multiplicity = 1

 SCF Done:  E(RHF) =  -825.785939602     A.U. after   14 cycles
 Normal termination of Gaussian 16 at Wed Apr  9 02:38:19 2025.
 Gaussian 16:  ES64L-G16RevC.01  3-Jul-2019

 ----------------------------------------------------------------------
 #t hf aug-cc-pvdz iop(5/13=1,5/36=2,99/5=2) pseudo=read geom=check gue
 ss=(read,tcheck) scf=(maxcycle=1)
 ----------------------------------------------------------------------
 -----
 title
 -----
 Structure from the checkpoint file:  "E2SN2_159_mol2.chk"
 Charge = -1 Multiplicity = 1

                         Standard orientation:
 ---------------------------------------------------------------------
 Center     Atomic      Atomic             Coordinates (Angstroms)
 Number     Number       Type             X           Y           Z
 ---------------------------------------------------------------------
      1          6           0       -0.095404   -0.515739    0.021544
      2          6           0        0.260943    0.966372    0.217836
      3         17           0       -1.925287   -0.607665   -0.332793
      4          1           0        1.319591    0.879543    0.501857
      5          7           0        0.601894   -1.148859   -1.058267
      6          1           0        0.414266   -0.635840   -1.913303
      7          1           0        1.611731   -0.966703   -0.785256
      8          6           0        0.182250   -1.299195    1.286462
      9          1           0        1.271434   -1.262492    1.385949
     10          1           0       -0.144029   -2.331652    1.151011
     11          1           0       -0.303993   -0.844994    2.148220
     12          7           0       -0.507554    1.554432    1.320364
     13          1           0       -1.453823    1.731091    0.997217
     14          1           0       -0.093969    2.451427    1.550347
     15          6           0        0.200839    1.779501   -1.074393
     16          1           0        0.975834    1.453909   -1.770212
     17          1           0       -0.780890    1.704571   -1.554820
     18          1           0        0.389437    2.833970   -0.845961
     19          9           0        2.841349   -0.345241    0.027673
 ---------------------------------------------------------------------

 SCF Done:  E(RHF) =  -826.248197934     A.U. after    2 cycles

 The electronic state is 1-A.
 Alpha  occ. eigenvalues -- -105.39828 -26.08929 -15.35636 -15.31444 -11.17824
 Alpha  occ. eigenvalues --  -11.11299 -11.09503 -11.06975 -10.44742  -7.61645
 Alpha  occ. eigenvalues --   -7.61354  -7.61345  -1.15476  -1.07653  -1.03259
 Alpha  occ. eigenvalues --   -0.90192  -0.86204  -0.83287  -0.72659  -0.61486
 Alpha  occ. eigenvalues --   -0.57598  -0.53316  -0.51041  -0.49077  -0.46126
 Alpha  occ. eigenvalues --   -0.43980  -0.42527  -0.39577  -0.37993  -0.37039
 Alpha  occ. eigenvalues --   -0.34503  -0.31270  -0.30678  -0.30177  -0.27425
 Alpha  occ. eigenvalues --   -0.25111  -0.24784  -0.23655
 Alpha virt. eigenvalues --    0.12135   0.13331   0.14006   0.14553   0.15395
 Alpha virt. eigenvalues --    0.15808   0.16330   0.17947   0.18231   0.18474
 Alpha virt. eigenvalues --    0.21005   0.21308   0.22931   0.24782   0.25716

 Mulliken charges:
               1
     1  C   -2.978941
     2  C   -1.007493
     3  Cl  -0.230553
     4  H    0.303123
     5  N    0.965445
     6  H    0.289974
     7  H    0.314181
     8  C    0.211385
     9  H    0.274100
    10  H    0.154681
    11  H    0.275343
    12  N    0.566490
    13  H    0.259577
    14  H    0.215066
    15  C   -0.049879
    16  H    0.194540
    17  H    0.203261
    18  H    0.069332
    19  F   -1.029633
 Sum of Mulliken charges =  -1.00000

 Dipole moment (field-independent basis, Debye):
    X=             -6.0586    Y=              3.9250    Z=             -0.1891  Tot=              7.2214

 Test job not archived.
 1\1\GINC-SE454\SP\RHF\Aug-CC-pVDZ\C4H11Cl1F1N2(1-)\OHZDE\09-Apr-2025\0
 \\#t hf aug-cc-pvdz iop(5/13=1,5/36=2,99/5=2) pseudo=read geom=check g
 uess=(read,tcheck) scf=(maxcycle=1)\\title\\-1,1\C,0,-0.012471,-0.0265
 06,-1.467816\C,0,0.014159,-0.085931,0.067738\Cl,0,-1.800292,0.084129,-
 1.991202\H,0,1.089368,-0.236593,0.241435\N,0,0.686779,1.093711,-2.0238
 92\H,0,0.292569,1.94695,-1.641714\H,0,1.651894,0.96388,-1.600591\C,0,0
 .576411,-1.290231,-2.056993\H,0,1.632289,-1.246869,-1.772722\H,0,0.482
 538,-1.260116,-3.143756\H,0,0.097999,-2.178304,-1.647351\N,0,-0.74108,

 Normal termination of Gaussian 16 at Wed Apr  9 02:38:29 2025.
