 Gaussian 16, Revision C.01,

 ----------------------------------------------------------------------
 #t hf aug-cc-pvdz symm=none int=(grid=ultrafine) guess=(read,tcheck) s
 table=(opt,rrhf)
 ----------------------------------------------------------------------
 -----
 title
 -----
 Symbolic Z-matrix:
 Charge = -1 Multiplicity = 1

 SCF Done:  E(RHF) =  -627.831849281     A.U. after   16 cycles
 Normal termination of Gaussian 16 at Wed Apr  9 02:57:12 2025.
 Gaussian 16:  ES64L-G16RevC.01  3-Jul-2019

 ----------------------------------------------------------------------
 #t hf aug-cc-pvdz iop(5/13=1,5/36=2,99/5=2) pseudo=read geom=check gue
 ss=(read,tcheck) scf=(maxcycle=1)
 ----------------------------------------------------------------------
 -----
 title
 -----
 Structure from the checkpoint file:  "E2SN2_376_mol1.chk"
 Charge = -1 Multiplicity = 1

                         Standard orientation:
 ---------------------------------------------------------------------
 Center     Atomic      Atomic             Coordinates (Angstroms)
 Number     Number       Type             X           Y           Z
 ---------------------------------------------------------------------
      1          6           0       -0.111392    0.303758    0.124455
      2          1           0        1.052886    1.103947   -1.471578
      3          9           0        0.400400   -1.181409    0.914450
      4          9           0       -0.866444    1.620817   -0.742604
      5          6           0        0.998090    0.177007   -0.903699
      6          1           0        0.735071   -0.636488   -1.579638
      7          7           0        0.042722    1.069624    1.295656
      8          1           0       -0.019094    0.443325    2.083712
      9          1           0       -0.686262    1.766329    1.305395
     10          7           0       -1.409520   -0.446645   -0.143686
     11          8           0       -1.505265   -1.099613   -1.174909
     12          8           0       -2.287190   -0.335700    0.702474
     13          6           0        2.305424   -0.093509   -0.308944
     14          7           0        3.409471   -0.261953    0.051474
 ---------------------------------------------------------------------

 SCF Done:  E(RHF) =  -628.433708632     A.U. after    2 cycles

 The electronic state is 1-A.
 Alpha  occ. eigenvalues --  -26.21013 -26.20349 -20.44904 -20.44847 -15.65211
 Alpha  occ. eigenvalues --  -15.38089 -15.37604 -11.31444 -11.16167 -11.15721
 Alpha  occ. eigenvalues --   -1.52638  -1.36418  -1.31036  -1.29240  -1.09137
 Alpha  occ. eigenvalues --   -1.08327  -0.95539  -0.89903  -0.71162  -0.65867
 Alpha  occ. eigenvalues --   -0.61919  -0.61128  -0.58898  -0.58142  -0.52971
 Alpha  occ. eigenvalues --   -0.50120  -0.47247  -0.41714  -0.41359  -0.38338
 Alpha  occ. eigenvalues --   -0.37642  -0.37220  -0.36435  -0.35383  -0.34963
 Alpha  occ. eigenvalues --   -0.34331  -0.32838  -0.30903  -0.30671
 Alpha virt. eigenvalues --    0.13825   0.14510   0.15443   0.16523   0.18224
 Alpha virt. eigenvalues --    0.20689   0.21112   0.23285   0.23763   0.24178
 Alpha virt. eigenvalues --    0.25442   0.26369   0.26384   0.26985   0.27992

 Mulliken charges:
               1
     1  C   -1.516677
     2  H    0.308988
     3  F   -0.925350
     4  F   -0.962072
     5  C    0.247675
     6  H    0.376610
     7  N    0.878041
     8  H    0.397899
     9  H    0.373012
    10  N    3.766937
    11  O   -1.716807
    12  O   -1.644671
    13  C   -1.460867
    14  N    0.877283
 Sum of Mulliken charges =  -1.00000

 Dipole moment (field-independent basis, Debye):
    X=             -1.7971    Y=              1.3512    Z=             -0.7040  Tot=              2.3560

 Test job not archived.
 1\1\GINC-SE332\SP\RHF\Aug-CC-pVDZ\C3H4F2N3O2(1-)\OHZDE\09-Apr-2025\0\\
 #t hf aug-cc-pvdz iop(5/13=1,5/36=2,99/5=2) pseudo=read geom=check gue
 ss=(read,tcheck) scf=(maxcycle=1)\\title\\-1,1\C,0,0.6932338,-0.058427
 22,-0.08275139\H,0,1.69276673,1.81795048,-0.23542486\F,0,-1.06287113,-
 0.11618095,-0.14987572\F,0,2.40562132,-0.11157388,0.26573448\C,0,0.675
 54411,1.45938806,-0.08914157\H,0,0.32005784,1.79289765,0.8856639\N,0,0
 .83899853,-0.80637631,-1.2665332\H,0,-0.00450122,-1.34346467,-1.397488
 5\H,0,1.65156487,-1.39410579,-1.16060729\N,0,0.5292887,-0.75928112,1.2

 Normal termination of Gaussian 16 at Wed Apr  9 02:57:18 2025.
