 Gaussian 16, Revision C.01,

 ----------------------------------------------------------------------
 #t hf aug-cc-pvdz symm=none int=(grid=ultrafine) guess=(read,tcheck) s
 table=(opt,rrhf)
 ----------------------------------------------------------------------
 -----
 title
 -----
 Symbolic Z-matrix:
 Charge = -1 Multiplicity = 1

 SCF Done:  E(RHF) =  -327.685774074     A.U. after   15 cycles
 Normal termination of Gaussian 16 at Wed Apr  9 03:01:29 2025.
 Gaussian 16:  ES64L-G16RevC.01  3-Jul-2019

 ----------------------------------------------------------------------
 #t hf aug-cc-pvdz iop(5/13=1,5/36=2,99/5=2) pseudo=read geom=check gue
 ss=(read,tcheck) scf=(maxcycle=1)
 ----------------------------------------------------------------------
 -----
 title
 -----
 Structure from the checkpoint file:  "E2SN2_71_mol1.chk"
 Charge = -1 Multiplicity = 1

                         Standard orientation:
 ---------------------------------------------------------------------
 Center     Atomic      Atomic             Coordinates (Angstroms)
 Number     Number       Type             X           Y           Z
 ---------------------------------------------------------------------
      1          6           0       -0.413903    0.013348   -0.008764
      2          6           0        0.807075    0.416532   -0.707595
      3          9           0       -0.727784   -1.432319   -0.172653
      4          1           0        1.518615    2.374457    0.644990
      5          1           0        1.160029    1.785736    0.009390
      6          1           0        0.691625    0.447872   -1.797239
      7          6           0       -1.650262    0.729069   -0.510035
      8          1           0       -2.535991    0.276605   -0.058468
      9          1           0       -1.604464    1.784666   -0.227945
     10          1           0       -1.714209    0.655584   -1.598918
     11          7           0        2.031522   -0.251704   -0.300805
     12          1           0        1.849842   -1.195306    0.028289
     13          1           0        2.452796    0.271824    0.471664
     14          7           0       -0.342083    0.129614    1.451717
     15          1           0        0.162841    0.998620    1.630063
     16          1           0        0.285445   -0.608254    1.754038
 ---------------------------------------------------------------------

 SCF Done:  E(RHF) =  -328.034365366     A.U. after    2 cycles

 The electronic state is 1-A.
 Alpha  occ. eigenvalues --  -26.24693 -15.32814 -15.30938 -11.16676 -11.07802
 Alpha  occ. eigenvalues --  -11.01810  -1.35488  -1.03647  -0.97944  -0.85654
 Alpha  occ. eigenvalues --   -0.72900  -0.61718  -0.54754  -0.52007  -0.49607
 Alpha  occ. eigenvalues --   -0.48913  -0.44450  -0.40999  -0.40221  -0.38664
 Alpha  occ. eigenvalues --   -0.38266  -0.34596  -0.33722  -0.29984  -0.24644
 Alpha  occ. eigenvalues --   -0.08637
 Alpha virt. eigenvalues --    0.13713   0.14401   0.14790   0.15746   0.16476
 Alpha virt. eigenvalues --    0.17149   0.17682   0.18300   0.19276   0.21982
 Alpha virt. eigenvalues --    0.22269   0.25628   0.26165   0.26588   0.27376

 Mulliken charges:
               1
     1  C   -0.214516
     2  C   -1.481309
     3  F   -1.051289
     4  H   -0.808324
     5  H    0.796911
     6  H   -0.168935
     7  C   -0.164456
     8  H    0.126121
     9  H    0.214267
    10  H    0.168180
    11  N    0.439278
    12  H    0.135961
    13  H    0.143256
    14  N    0.452924
    15  H    0.158379
    16  H    0.253554
 Sum of Mulliken charges =  -1.00000

 Dipole moment (field-independent basis, Debye):
    X=             -3.1840    Y=             -2.7830    Z=              0.1604  Tot=              4.2319

 Test job not archived.
 1\1\GINC-SE123\SP\RHF\Aug-CC-pVDZ\C3H10F1N2(1-)\OHZDE\09-Apr-2025\0\\#
 t hf aug-cc-pvdz iop(5/13=1,5/36=2,99/5=2) pseudo=read geom=check gues
 s=(read,tcheck) scf=(maxcycle=1)\\title\\-1,1\C,0,-0.19244613,0.053982
 71,-0.35383104\C,0,-0.1407859,0.13629693,1.10639719\F,0,1.1455884,-0.1
 5059416,-0.97281926\H,0,-2.42275174,-0.62994357,1.71856747\H,0,-1.6490
 4775,-0.1449559,1.50565447\H,0,0.29797697,1.07206297,1.47172224\C,0,-0
 .7215152,1.31550064,-1.00249931\H,0,-0.59158338,1.24540787,-2.08479152
 \H,0,-1.78562046,1.42739751,-0.77640759\H,0,-0.18478145,2.18919584,-0.

 Normal termination of Gaussian 16 at Wed Apr  9 03:01:33 2025.
