 Gaussian 16, Revision C.01,

 ----------------------------------------------------------------------
 #t hf aug-cc-pvdz symm=none int=(grid=ultrafine) guess=(read,tcheck) s
 table=(opt,rrhf)
 ----------------------------------------------------------------------
 -----
 title
 -----
 Symbolic Z-matrix:
 Charge = -1 Multiplicity = 1

 SCF Done:  E(RHF) =  -974.322165914     A.U. after   15 cycles
 Normal termination of Gaussian 16 at Wed Apr  9 02:56:39 2025.
 Gaussian 16:  ES64L-G16RevC.01  3-Jul-2019

 ----------------------------------------------------------------------
 #t hf aug-cc-pvdz iop(5/13=1,5/36=2,99/5=2) pseudo=read geom=check gue
 ss=(read,tcheck) scf=(maxcycle=1)
 ----------------------------------------------------------------------
 -----
 title
 -----
 Structure from the checkpoint file:  "E2SN2_350_mol2.chk"
 Charge = -1 Multiplicity = 1

                         Standard orientation:
 ---------------------------------------------------------------------
 Center     Atomic      Atomic             Coordinates (Angstroms)
 Number     Number       Type             X           Y           Z
 ---------------------------------------------------------------------
      1          6           0       -0.490029    1.093031   -0.063417
      2          6           0       -0.756741   -0.127220    0.835665
      3          9           0       -1.729545    1.751349   -0.209547
      4          1           0       -1.507589    0.164049    1.577283
      5          6           0        0.453085    2.051561    0.634474
      6          1           0        1.460402    1.634789    0.664622
      7          1           0        0.113061    2.254425    1.652659
      8          1           0        0.465071    2.987795    0.069700
      9          6           0       -0.001869    0.725502   -1.447420
     10          1           0        0.932319    0.162599   -1.386446
     11          1           0       -0.758024    0.147985   -1.982608
     12          1           0        0.186045    1.645629   -2.006121
     13          7           0        0.414511   -0.631130    1.423636
     14          1           0        0.270285   -1.525013    1.870147
     15          1           0        1.229307   -0.684655    0.805313
     16          7           0       -1.543850   -1.161504   -0.006771
     17          8           0       -0.931589   -2.122475   -0.464621
     18          8           0       -2.744622   -0.943033   -0.169682
     19         17           0        3.250789   -0.466735   -0.234004
 ---------------------------------------------------------------------

 SCF Done:  E(RHF) =  -974.915661337     A.U. after    2 cycles

 The electronic state is 1-A.
 Alpha  occ. eigenvalues -- -105.28413 -26.33454 -20.47893 -20.47596 -15.66103
 Alpha  occ. eigenvalues --  -15.37896 -11.22682 -11.22518 -11.11914 -11.11141
 Alpha  occ. eigenvalues --  -10.33006  -7.49780  -7.49744  -7.49736  -1.54474
 Alpha  occ. eigenvalues --   -1.45717  -1.38513  -1.11795  -0.97348  -0.92935
 Alpha  occ. eigenvalues --   -0.84471  -0.77971  -0.73811  -0.70050  -0.66062
 Alpha  occ. eigenvalues --   -0.64487  -0.63284  -0.59662  -0.57245  -0.54868
 Alpha  occ. eigenvalues --   -0.53342  -0.49965  -0.47465  -0.45235  -0.43770
 Alpha  occ. eigenvalues --   -0.42605  -0.40999  -0.38577  -0.37472  -0.36831
 Alpha  occ. eigenvalues --   -0.33601  -0.33415  -0.21303  -0.20759  -0.20682
 Alpha virt. eigenvalues --    0.12089   0.12403   0.13086   0.14294   0.15002
 Alpha virt. eigenvalues --    0.16200   0.16845   0.17885   0.18491   0.19701
 Alpha virt. eigenvalues --    0.21290   0.22231   0.22802   0.23850   0.24567

 Mulliken charges:
               1
     1  C    0.439030
     2  C   -1.650676
     3  F   -1.027164
     4  H   -0.025710
     5  C   -0.220015
     6  H    0.298821
     7  H    0.223323
     8  H    0.145697
     9  C   -0.098504
    10  H    0.181298
    11  H    0.209873
    12  H    0.205550
    13  N    0.962595
    14  H    0.239275
    15  H    0.075036
    16  N    2.975353
    17  O   -1.419331
    18  O   -1.536970
    19  Cl  -0.977484
 Sum of Mulliken charges =  -1.00000

 Dipole moment (field-independent basis, Debye):
    X=             -8.2486    Y=              2.7367    Z=              2.0864  Tot=              8.9377

 Test job not archived.
 1\1\GINC-SE058\SP\RHF\Aug-CC-pVDZ\C4H9Cl1F1N2O2(1-)\OHZDE\09-Apr-2025\
 0\\#t hf aug-cc-pvdz iop(5/13=1,5/36=2,99/5=2) pseudo=read geom=check
 guess=(read,tcheck) scf=(maxcycle=1)\\title\\-1,1\C,0,-0.022974,-0.007
 697,-0.016125\C,0,-0.335169,-0.273985,-1.499406\F,0,1.382084,-0.057146
 ,0.104296\H,0,0.454134,0.196167,-2.09486\C,0,-0.461377,1.392935,0.3598
 13\H,0,-1.549742,1.449928,0.398644\H,0,-0.084775,2.121676,-0.361698\H,
 0,-0.051007,1.623879,1.346681\C,0,-0.59852,-1.05061,0.916571\H,0,-1.68
 5925,-1.091031,0.820635\H,0,-0.163566,-2.031255,0.714404\H,0,-0.353353

 Normal termination of Gaussian 16 at Wed Apr  9 02:56:51 2025.
