 Gaussian 16, Revision C.01,

 ----------------------------------------------------------------------
 #t hf aug-cc-pvdz symm=none int=(grid=ultrafine) guess=(read,tcheck) s
 table=(opt,rrhf)
 ----------------------------------------------------------------------
 -----
 title
 -----
 Symbolic Z-matrix:
 Charge = -1 Multiplicity = 1

 SCF Done:  E(RHF) =  -1063.61876907     A.U. after   18 cycles
 Normal termination of Gaussian 16 at Wed Apr  9 02:45:58 2025.
 Gaussian 16:  ES64L-G16RevC.01  3-Jul-2019

 ----------------------------------------------------------------------
 #t hf aug-cc-pvdz iop(5/13=1,5/36=2,99/5=2) pseudo=read geom=check gue
 ss=(read,tcheck) scf=(maxcycle=1)
 ----------------------------------------------------------------------
 -----
 title
 -----
 Structure from the checkpoint file:  "E2SN2_226_mol2.chk"
 Charge = -1 Multiplicity = 1

                         Standard orientation:
 ---------------------------------------------------------------------
 Center     Atomic      Atomic             Coordinates (Angstroms)
 Number     Number       Type             X           Y           Z
 ---------------------------------------------------------------------
      1          6           0        0.177366    0.078707    0.188508
      2          6           0       -0.939535   -0.536189   -0.672197
      3         17           0        0.069940   -0.576469    1.891328
      4          1           0       -0.574856   -0.245544   -1.672126
      5          7           0        1.569793   -0.336703   -0.279704
      6          8           0        2.495189    0.336103    0.143064
      7          8           0        1.664282   -1.377281   -0.914682
      8          6           0        0.122514    1.531571    0.280657
      9          7           0       -0.019494    2.645605    0.633686
     10          6           0       -2.187789    0.178187   -0.414883
     11          7           0       -3.239035    0.669433   -0.228608
     12          6           0       -1.191594   -2.037080   -0.506600
     13          1           0       -1.641650   -2.265682    0.460402
     14          1           0       -0.262225   -2.589512   -0.615911
     15          1           0       -1.883346   -2.354611   -1.290903
     16          9           0        0.648078    1.049469   -1.887958
 ---------------------------------------------------------------------

 SCF Done:  E(RHF) =  -1064.26680165     A.U. after    2 cycles

 The electronic state is 1-A.
 Alpha  occ. eigenvalues -- -105.48432 -26.12805 -20.47632 -20.47502 -15.68663
 Alpha  occ. eigenvalues --  -15.41157 -15.39635 -11.31128 -11.18709 -11.18313
 Alpha  occ. eigenvalues --  -11.18057 -11.14604 -10.53243  -7.70189  -7.69798
 Alpha  occ. eigenvalues --   -7.69792  -1.55600  -1.39576  -1.20366  -1.12457
 Alpha  occ. eigenvalues --   -1.10668  -1.07317  -0.96989  -0.92991  -0.83851
 Alpha  occ. eigenvalues --   -0.77251  -0.70256  -0.65015  -0.63302  -0.61243
 Alpha  occ. eigenvalues --   -0.57983  -0.51987  -0.50518  -0.49420  -0.46986
 Alpha  occ. eigenvalues --   -0.46331  -0.44404  -0.42040  -0.39397  -0.38717
 Alpha  occ. eigenvalues --   -0.38445  -0.37091  -0.36599  -0.36463  -0.35752
 Alpha  occ. eigenvalues --   -0.33396  -0.29393  -0.28505  -0.28109
 Alpha virt. eigenvalues --    0.11717   0.12999   0.13836   0.15979   0.16884
 Alpha virt. eigenvalues --    0.17984   0.18406   0.19555   0.20957   0.21729
 Alpha virt. eigenvalues --    0.22848   0.23455   0.23950   0.24436   0.24888

 Mulliken charges:
               1
     1  C   -0.951965
     2  C    0.294796
     3  Cl  -0.042774
     4  H    0.523324
     5  N    3.668662
     6  O   -1.617891
     7  O   -1.691440
     8  C   -1.562402
     9  N    1.169776
    10  C   -1.692769
    11  N    1.022545
    12  C    0.108725
    13  H    0.241329
    14  H    0.205534
    15  H    0.197170
    16  F   -0.872620
 Sum of Mulliken charges =  -1.00000

 Dipole moment (field-independent basis, Debye):
    X=             -0.3929    Y=             -8.1107    Z=              3.1713  Tot=              8.7175

 Test job not archived.
 1\1\GINC-SE247\SP\RHF\Aug-CC-pVDZ\C5H4Cl1F1N3O2(1-)\OHZDE\09-Apr-2025\
 0\\#t hf aug-cc-pvdz iop(5/13=1,5/36=2,99/5=2) pseudo=read geom=check
 guess=(read,tcheck) scf=(maxcycle=1)\\title\\-1,1\C,0,-0.103338,0.0392
 85,0.010704\C,0,-0.594094,0.15581,-1.442554\Cl,0,1.705693,0.293084,0.0
 68888\H,0,-1.679167,0.234379,-1.258798\N,0,-0.660123,1.144667,0.904439
 \O,0,-0.572333,0.951512,2.105581\O,0,-1.014751,2.18232,0.363658\C,0,-0
 .378229,-1.251731,0.627167\N,0,-0.304046,-2.333012,1.086726\C,0,-0.337
 352,-1.104847,-2.135021\N,0,-0.121953,-2.06693,-2.774659\C,0,-0.013329

 Normal termination of Gaussian 16 at Wed Apr  9 02:46:09 2025.
