 Gaussian 16, Revision C.01,

 ----------------------------------------------------------------------
 #t hf aug-cc-pvdz symm=none int=(grid=ultrafine) guess=(read,tcheck) s
 table=(opt,rrhf)
 ----------------------------------------------------------------------
 -----
 title
 -----
 Symbolic Z-matrix:
 Charge = -1 Multiplicity = 1

 SCF Done:  E(RHF) =  -502.436589549     A.U. after   15 cycles
 Normal termination of Gaussian 16 at Wed Apr  9 02:53:12 2025.
 Gaussian 16:  ES64L-G16RevC.01  3-Jul-2019

 ----------------------------------------------------------------------
 #t hf aug-cc-pvdz iop(5/13=1,5/36=2,99/5=2) pseudo=read geom=check gue
 ss=(read,tcheck) scf=(maxcycle=1)
 ----------------------------------------------------------------------
 -----
 title
 -----
 Structure from the checkpoint file:  "E2SN2_315_mol2.chk"
 Charge = -1 Multiplicity = 1

                         Standard orientation:
 ---------------------------------------------------------------------
 Center     Atomic      Atomic             Coordinates (Angstroms)
 Number     Number       Type             X           Y           Z
 ---------------------------------------------------------------------
      1          6           0       -0.390476   -0.249031    0.411534
      2          6           0        0.375002    0.778964   -0.426547
      3          9           0       -0.989737    0.456883    1.520361
      4          1           0        0.755635    0.215590   -1.283872
      5          6           0       -1.595586   -0.733676   -0.328165
      6          7           0       -2.519269   -1.164792   -0.914291
      7          7           0        0.437615   -1.271206    0.855766
      8          1           0        1.301899   -1.415125    0.189520
      9          1           0       -0.072950   -2.121242    1.050269
     10          6           0        1.598894    1.266388    0.349065
     11          1           0        2.036411    2.131774   -0.161916
     12          1           0        2.327750    0.457662    0.355698
     13          1           0        1.326691    1.561163    1.365699
     14          6           0       -0.526874    1.929072   -0.861442
     15          1           0       -0.885526    2.483799    0.009081
     16          1           0       -1.396631    1.581978   -1.427047
     17          1           0        0.034120    2.618345   -1.499852
     18          9           0        2.365115   -1.391578   -0.748647
 ---------------------------------------------------------------------

 SCF Done:  E(RHF) =  -502.934779416     A.U. after    2 cycles

 The electronic state is 1-A.
 Alpha  occ. eigenvalues --  -26.30903 -26.10941 -15.39829 -15.32720 -11.24828
 Alpha  occ. eigenvalues --  -11.16521 -11.10905 -11.10759 -11.08057  -1.42658
 Alpha  occ. eigenvalues --   -1.18083  -1.10403  -1.05926  -0.94738  -0.81504
 Alpha  occ. eigenvalues --   -0.80323  -0.68466  -0.62166  -0.56721  -0.56054
 Alpha  occ. eigenvalues --   -0.50996  -0.49662  -0.48040  -0.45208  -0.44911
 Alpha  occ. eigenvalues --   -0.43025  -0.41493  -0.39011  -0.38053  -0.36346
 Alpha  occ. eigenvalues --   -0.35541  -0.34943  -0.30569  -0.27362  -0.27101
 Alpha  occ. eigenvalues --   -0.26113
 Alpha virt. eigenvalues --    0.12313   0.13335   0.13729   0.14611   0.16187
 Alpha virt. eigenvalues --    0.16307   0.17269   0.18341   0.19382   0.19927
 Alpha virt. eigenvalues --    0.21923   0.23519   0.24067   0.24198   0.24873

 Mulliken charges:
               1
     1  C    1.237106
     2  C   -1.188799
     3  F   -1.016047
     4  H    0.235359
     5  C   -2.329339
     6  N    1.018667
     7  N    0.337583
     8  H    0.454737
     9  H    0.240574
    10  C    0.024633
    11  H    0.104391
    12  H    0.263181
    13  H    0.212842
    14  C   -0.115037
    15  H    0.255170
    16  H    0.193285
    17  H    0.143547
    18  F   -1.071854
 Sum of Mulliken charges =  -1.00000

 Dipole moment (field-independent basis, Debye):
    X=             -2.9142    Y=              5.0057    Z=              1.6595  Tot=              6.0252

 Test job not archived.
 1\1\GINC-SE051\SP\RHF\Aug-CC-pVDZ\C5H9F2N2(1-)\OHZDE\09-Apr-2025\0\\#t
  hf aug-cc-pvdz iop(5/13=1,5/36=2,99/5=2) pseudo=read geom=check guess
 =(read,tcheck) scf=(maxcycle=1)\\title\\-1,1\C,0,0.059191,0.126934,0.0
 35961\C,0,-0.453634,0.239505,-1.402597\F,0,1.497901,0.01178,-0.025516\
 H,0,-1.53326,0.388674,-1.30547\C,0,-0.112023,1.425995,0.7553\N,0,-0.28
 5155,2.423563,1.353195\N,0,-0.503093,-0.954883,0.700361\H,0,-1.48641,-
 1.223042,0.284717\H,0,-0.504785,-0.830369,1.703138\C,0,-0.264122,-1.09
 5823,-2.122355\H,0,-0.450872,-0.964566,-3.194415\H,0,-0.998056,-1.7928

 Normal termination of Gaussian 16 at Wed Apr  9 02:53:21 2025.
