 Gaussian 16, Revision C.01,

 ----------------------------------------------------------------------
 #t hf aug-cc-pvdz symm=none int=(grid=ultrafine) guess=(read,tcheck) s
 table=(opt,rrhf)
 ----------------------------------------------------------------------
 -----
 title
 -----
 Symbolic Z-matrix:
 Charge = -1 Multiplicity = 1

 SCF Done:  E(RHF) =  -516.054047321     A.U. after   15 cycles
 Normal termination of Gaussian 16 at Wed Apr  9 02:41:33 2025.
 Gaussian 16:  ES64L-G16RevC.01  3-Jul-2019

 ----------------------------------------------------------------------
 #t hf aug-cc-pvdz iop(5/13=1,5/36=2,99/5=2) pseudo=read geom=check gue
 ss=(read,tcheck) scf=(maxcycle=1)
 ----------------------------------------------------------------------
 -----
 title
 -----
 Structure from the checkpoint file:  "E2SN2_200_mol1.chk"
 Charge = -1 Multiplicity = 1

                         Standard orientation:
 ---------------------------------------------------------------------
 Center     Atomic      Atomic             Coordinates (Angstroms)
 Number     Number       Type             X           Y           Z
 ---------------------------------------------------------------------
      1          6           0        0.918001   -0.300399    0.307161
      2          1           0       -0.116476   -0.481558   -1.539955
      3          9           0        0.141223    0.609195    1.630933
      4          9           0        1.633982   -1.390490   -0.885685
      5          6           0       -0.359892   -0.157677   -0.525454
      6          1           0        0.996558   -1.113759    1.009935
      7          7           0        1.914432    0.700328    0.100897
      8          1           0        2.762576    0.224965   -0.167666
      9          1           0        2.012585    1.203255    0.970025
     10          6           0       -0.842924    1.227387   -0.587483
     11          7           0       -1.282424    2.299977   -0.770252
     12          6           0       -1.418797   -1.027248   -0.007995
     13          7           0       -2.262068   -1.750824    0.369794
 ---------------------------------------------------------------------

 SCF Done:  E(RHF) =  -516.549068592     A.U. after    2 cycles

 The electronic state is 1-A.
 Alpha  occ. eigenvalues --  -26.18720 -26.17795 -15.40162 -15.38911 -15.36270
 Alpha  occ. eigenvalues --  -11.24888 -11.19572 -11.17784 -11.16984  -1.28165
 Alpha  occ. eigenvalues --   -1.26267  -1.10932  -1.09344  -1.06048  -0.96715
 Alpha  occ. eigenvalues --   -0.75025  -0.66157  -0.59039  -0.57787  -0.54342
 Alpha  occ. eigenvalues --   -0.52996  -0.49040  -0.47883  -0.40681  -0.39007
 Alpha  occ. eigenvalues --   -0.38719  -0.36952  -0.36513  -0.35260  -0.34399
 Alpha  occ. eigenvalues --   -0.34111  -0.33500  -0.31849  -0.28857
 Alpha virt. eigenvalues --    0.13548   0.14297   0.15305   0.16372   0.18336
 Alpha virt. eigenvalues --    0.19082   0.22830   0.23101   0.23474   0.24216
 Alpha virt. eigenvalues --    0.25335   0.25622   0.26102   0.26647   0.26973

 Mulliken charges:
               1
     1  C   -0.216670
     2  H    0.382986
     3  F   -0.906659
     4  F   -0.933137
     5  C    0.562225
     6  H   -0.017393
     7  N    0.505704
     8  H    0.291258
     9  H    0.303191
    10  C   -1.532859
    11  N    0.994039
    12  C   -1.371198
    13  N    0.938512
 Sum of Mulliken charges =  -1.00000

 Dipole moment (field-independent basis, Debye):
    X=              2.8021    Y=             -0.5586    Z=             -0.9428  Tot=              3.0088

 Test job not archived.
 1\1\GINC-SE114\SP\RHF\Aug-CC-pVDZ\C4H4F2N3(1-)\OHZDE\09-Apr-2025\0\\#t
  hf aug-cc-pvdz iop(5/13=1,5/36=2,99/5=2) pseudo=read geom=check guess
 =(read,tcheck) scf=(maxcycle=1)\\title\\-1,1\C,0,0.66570939,-0.0856372
 9,0.02473026\H,0,1.69252147,1.76635935,0.19955349\F,0,-1.11365357,-0.0
 8676807,0.15505443\F,0,2.3970165,-0.11569168,-0.32950251\C,0,0.656542,
 1.44558482,0.0683577\H,0,0.52401077,-0.58305548,-0.92084616\N,0,0.8348
 2641,-0.74648891,1.27834433\H,0,1.64198626,-1.34531341,1.19264401\H,0,
 -0.01265582,-1.26426383,1.45621137\C,0,-0.13468183,1.97494734,1.186082

 Normal termination of Gaussian 16 at Wed Apr  9 02:41:39 2025.
