 Gaussian 16, Revision C.01,

 ----------------------------------------------------------------------
 #t hf aug-cc-pvdz symm=none int=(grid=ultrafine) guess=(read,tcheck) s
 table=(opt,rrhf)
 ----------------------------------------------------------------------
 -----
 title
 -----
 Symbolic Z-matrix:
 Charge = -1 Multiplicity = 1

 SCF Done:  E(RHF) =  -899.246378057     A.U. after   15 cycles
 Normal termination of Gaussian 16 at Wed Apr  9 02:55:11 2025.
 Gaussian 16:  ES64L-G16RevC.01  3-Jul-2019

 ----------------------------------------------------------------------
 #t hf aug-cc-pvdz iop(5/13=1,5/36=2,99/5=2) pseudo=read geom=check gue
 ss=(read,tcheck) scf=(maxcycle=1)
 ----------------------------------------------------------------------
 -----
 title
 -----
 Structure from the checkpoint file:  "E2SN2_336_mol2.chk"
 Charge = -1 Multiplicity = 1

                         Standard orientation:
 ---------------------------------------------------------------------
 Center     Atomic      Atomic             Coordinates (Angstroms)
 Number     Number       Type             X           Y           Z
 ---------------------------------------------------------------------
      1          6           0        0.614261    0.650828   -0.431477
      2          6           0        0.419908   -0.532591    0.525307
      3          9           0        1.986798    0.952249   -0.499537
      4          1           0       -0.649238   -0.810778    0.448988
      5          6           0        0.103553    0.358490   -1.825106
      6          1           0        0.257886    1.228186   -2.467045
      7          1           0       -0.958894    0.109956   -1.761309
      8          1           0        0.655284   -0.491238   -2.232545
      9          6           0       -0.026062    1.861498    0.118221
     10          7           0       -0.460435    2.867762    0.539082
     11          6           0        0.770271   -0.198660    1.976395
     12          1           0        1.786504    0.194319    2.056287
     13          1           0        0.689270   -1.096126    2.592096
     14          1           0        0.064372    0.539389    2.360762
     15          6           0        1.233467   -1.649768    0.047695
     16          7           0        1.900703   -2.550295   -0.304399
     17         17           0       -2.852979   -0.788529   -0.035906
 ---------------------------------------------------------------------

 SCF Done:  E(RHF) =  -899.754754420     A.U. after    2 cycles

 The electronic state is 1-A.
 Alpha  occ. eigenvalues -- -105.28887 -26.37123 -15.42924 -15.41420 -11.28105
 Alpha  occ. eigenvalues --  -11.19339 -11.18657 -11.17920 -11.14705 -11.14019
 Alpha  occ. eigenvalues --  -10.33477  -7.50250  -7.50215  -7.50203  -1.49417
 Alpha  occ. eigenvalues --   -1.13027  -1.12050  -1.03109  -0.93742  -0.81509
 Alpha  occ. eigenvalues --   -0.80842  -0.74313  -0.65763  -0.62983  -0.59261
 Alpha  occ. eigenvalues --   -0.56385  -0.52753  -0.51527  -0.50554  -0.50256
 Alpha  occ. eigenvalues --   -0.46625  -0.46346  -0.44916  -0.43867  -0.42368
 Alpha  occ. eigenvalues --   -0.40808  -0.40187  -0.37935  -0.37243  -0.21383
 Alpha  occ. eigenvalues --   -0.21213  -0.21100
 Alpha virt. eigenvalues --    0.12087   0.12270   0.13579   0.14057   0.15442
 Alpha virt. eigenvalues --    0.16439   0.17353   0.18751   0.19918   0.20176
 Alpha virt. eigenvalues --    0.21338   0.22525   0.23666   0.24199   0.24233

 Mulliken charges:
               1
     1  C    1.184748
     2  C   -0.331100
     3  F   -0.963667
     4  H    0.230583
     5  C    0.009227
     6  H    0.182503
     7  H    0.329859
     8  H    0.261621
     9  C   -2.079868
    10  N    1.118434
    11  C    0.020221
    12  H    0.241673
    13  H    0.141363
    14  H    0.254185
    15  C   -1.704818
    16  N    1.054742
    17  Cl  -0.949706
 Sum of Mulliken charges =  -1.00000

 Dipole moment (field-independent basis, Debye):
    X=              7.8778    Y=              2.5673    Z=              0.0860  Tot=              8.2860

 Test job not archived.
 1\1\GINC-SE342\SP\RHF\Aug-CC-pVDZ\C6H7Cl1F1N2(1-)\OHZDE\09-Apr-2025\0\
 \#t hf aug-cc-pvdz iop(5/13=1,5/36=2,99/5=2) pseudo=read geom=check gu
 ess=(read,tcheck) scf=(maxcycle=1)\\title\\-1,1\C,0,0.037954,-0.000161
 ,0.017165\C,0,-0.539861,0.099047,-1.400571\F,0,1.440956,0.065281,-0.06
 4373\H,0,-1.637873,0.169651,-1.275393\C,0,-0.455887,1.106728,0.922374\
 H,0,-0.023683,0.992222,1.918549\H,0,-1.546887,1.058594,0.967496\H,0,-0
 .14799,2.06789,0.50546\C,0,-0.259549,-1.323977,0.597602\N,0,-0.411199,
 -2.382761,1.081699\C,0,-0.190757,-1.10325,-2.279507\H,0,0.889235,-1.26

 Normal termination of Gaussian 16 at Wed Apr  9 02:55:21 2025.
