 Gaussian 16, Revision C.01,

 ----------------------------------------------------------------------
 #t hf aug-cc-pvdz symm=none int=(grid=ultrafine) guess=(read,tcheck) s
 table=(opt,rrhf)
 ----------------------------------------------------------------------
 -----
 title
 -----
 Symbolic Z-matrix:
 Charge = -1 Multiplicity = 1

 SCF Done:  E(RHF) =  -611.831004498     A.U. after   17 cycles
 Normal termination of Gaussian 16 at Wed Apr  9 02:44:36 2025.
 Gaussian 16:  ES64L-G16RevC.01  3-Jul-2019

 ----------------------------------------------------------------------
 #t hf aug-cc-pvdz iop(5/13=1,5/36=2,99/5=2) pseudo=read geom=check gue
 ss=(read,tcheck) scf=(maxcycle=1)
 ----------------------------------------------------------------------
 -----
 title
 -----
 Structure from the checkpoint file:  "E2SN2_224_mol2.chk"
 Charge = -1 Multiplicity = 1

                         Standard orientation:
 ---------------------------------------------------------------------
 Center     Atomic      Atomic             Coordinates (Angstroms)
 Number     Number       Type             X           Y           Z
 ---------------------------------------------------------------------
      1          6           0        0.082513   -0.123513   -0.352078
      2          6           0        0.895304   -1.236703    0.264239
      3          9           0        0.083999   -0.313085   -1.749863
      4          1           0        0.626657   -2.155179   -0.266366
      5          1           0        0.585336   -1.297586    1.301560
      6          7           0       -1.390984   -0.232917   -0.016860
      7          8           0       -2.090343    0.728654   -0.307612
      8          8           0       -1.802173   -1.319321    0.377683
      9          6           0        0.560336    1.233249   -0.085803
     10          7           0        1.097733    2.257438   -0.323103
     11          6           0        2.387410   -0.948515    0.158552
     12          1           0        2.638207   -0.098029    0.793673
     13          1           0        2.681203   -0.713546   -0.867878
     14          1           0        2.966496   -1.814800    0.491878
     15          9           0       -0.068265    0.655944    1.800623
 ---------------------------------------------------------------------

 SCF Done:  E(RHF) =  -612.414717318     A.U. after    2 cycles

 The electronic state is 1-A.
 Alpha  occ. eigenvalues --  -26.35700 -26.12114 -20.45928 -20.45906 -15.65935
 Alpha  occ. eigenvalues --  -15.36124 -11.29213 -11.16016 -11.12117 -11.11743
 Alpha  occ. eigenvalues --   -1.53605  -1.47634  -1.37267  -1.19396  -1.06949
 Alpha  occ. eigenvalues --   -1.00652  -0.91797  -0.79162  -0.74945  -0.68326
 Alpha  occ. eigenvalues --   -0.64224  -0.61648  -0.58525  -0.55225  -0.51749
 Alpha  occ. eigenvalues --   -0.50377  -0.47547  -0.45573  -0.43255  -0.40205
 Alpha  occ. eigenvalues --   -0.39241  -0.37908  -0.36534  -0.35301  -0.34040
 Alpha  occ. eigenvalues --   -0.31536  -0.28587  -0.28105  -0.25525
 Alpha virt. eigenvalues --    0.11754   0.13588   0.13896   0.16746   0.16912
 Alpha virt. eigenvalues --    0.19095   0.20074   0.20764   0.22096   0.23639
 Alpha virt. eigenvalues --    0.24323   0.24720   0.25371   0.25750   0.25985

 Mulliken charges:
               1
     1  C    1.100283
     2  C   -0.201681
     3  F   -1.087676
     4  H    0.182826
     5  H    0.369913
     6  N    3.408015
     7  O   -1.578614
     8  O   -1.592589
     9  C   -1.946323
    10  N    1.023417
    11  C   -0.326547
    12  H    0.260933
    13  H    0.233478
    14  H    0.062467
    15  F   -0.907902
 Sum of Mulliken charges =  -1.00000

 Dipole moment (field-independent basis, Debye):
    X=              1.7071    Y=             -5.9699    Z=             -3.2325  Tot=              7.0002

 Test job not archived.
 1\1\GINC-SE227\SP\RHF\Aug-CC-pVDZ\C4H5F2N2O2(1-)\OHZDE\09-Apr-2025\0\\
 #t hf aug-cc-pvdz iop(5/13=1,5/36=2,99/5=2) pseudo=read geom=check gue
 ss=(read,tcheck) scf=(maxcycle=1)\\title\\-1,1\C,0,-0.040838,0.00512,-
 0.013941\C,0,-0.351482,0.099041,-1.488507\F,0,1.361503,-0.051737,0.127
 302\H,0,0.373027,0.796167,-1.920264\H,0,-1.353802,0.506541,-1.560065\N
 ,0,-0.384909,1.279813,0.729234\O,0,-0.35114,1.225699,1.951605\O,0,-0.5
 2341,2.30195,0.065105\C,0,-0.606042,-1.151406,0.681049\N,0,-0.601721,-
 2.217549,1.188386\C,0,-0.272058,-1.269381,-2.153124\H,0,-1.082518,-1.8

 Normal termination of Gaussian 16 at Wed Apr  9 02:44:43 2025.
