 Gaussian 16, Revision C.01,

 ----------------------------------------------------------------------
 #t hf aug-cc-pvdz symm=none int=(grid=ultrafine) guess=(read,tcheck) s
 table=(opt,rrhf)
 ----------------------------------------------------------------------
 -----
 title
 -----
 Symbolic Z-matrix:
 Charge = -1 Multiplicity = 1

 SCF Done:  E(RHF) =  -935.180938141     A.U. after   16 cycles
 Normal termination of Gaussian 16 at Wed Apr  9 02:40:19 2025.
 Gaussian 16:  ES64L-G16RevC.01  3-Jul-2019

 ----------------------------------------------------------------------
 #t hf aug-cc-pvdz iop(5/13=1,5/36=2,99/5=2) pseudo=read geom=check gue
 ss=(read,tcheck) scf=(maxcycle=1)
 ----------------------------------------------------------------------
 -----
 title
 -----
 Structure from the checkpoint file:  "E2SN2_172_mol1.chk"
 Charge = -1 Multiplicity = 1

                         Standard orientation:
 ---------------------------------------------------------------------
 Center     Atomic      Atomic             Coordinates (Angstroms)
 Number     Number       Type             X           Y           Z
 ---------------------------------------------------------------------
      1          6           0       -0.119786   -0.083642   -0.496757
      2          1           0        0.807577   -1.872192   -0.102139
      3         17           0        0.465924    1.913176   -0.190123
      4          9           0       -0.980584   -1.825731   -0.973262
      5          6           0        1.093607   -0.830891    0.029404
      6          1           0       -0.238750    0.020841   -1.556375
      7          7           0       -1.399587    0.008722    0.236949
      8          8           0       -1.439977   -0.376499    1.402336
      9          8           0       -2.337695    0.511920   -0.367391
     10          6           0        1.492802   -0.594700    1.483598
     11          1           0        1.752296    0.450812    1.656753
     12          1           0        0.697462   -0.877941    2.169962
     13          1           0        2.375289   -1.210561    1.693045
     14          7           0        2.181272   -0.554149   -0.919979
     15          1           0        2.938045   -1.198673   -0.720579
     16          1           0        2.522478    0.385309   -0.745047
 ---------------------------------------------------------------------

 SCF Done:  E(RHF) =  -935.728971545     A.U. after    2 cycles

 The electronic state is 1-A.
 Alpha  occ. eigenvalues -- -105.37986 -26.12849 -20.43890 -20.43876 -15.64904
 Alpha  occ. eigenvalues --  -15.36947 -11.24823 -11.14634 -11.10102 -10.42811
 Alpha  occ. eigenvalues --   -7.59672  -7.59448  -7.59432  -1.51709  -1.35391
 Alpha  occ. eigenvalues --   -1.20471  -1.07860  -0.98450  -0.87447  -0.84363
 Alpha  occ. eigenvalues --   -0.76930  -0.68986  -0.62425  -0.60662  -0.58951
 Alpha  occ. eigenvalues --   -0.56733  -0.51572  -0.48200  -0.46951  -0.41871
 Alpha  occ. eigenvalues --   -0.40452  -0.35256  -0.34984  -0.33544  -0.32098
 Alpha  occ. eigenvalues --   -0.31063  -0.29784  -0.29038  -0.28725  -0.27777
 Alpha  occ. eigenvalues --   -0.25846
 Alpha virt. eigenvalues --    0.11817   0.13260   0.14309   0.15620   0.16186
 Alpha virt. eigenvalues --    0.16728   0.16824   0.19480   0.20691   0.23202
 Alpha virt. eigenvalues --    0.23526   0.24946   0.25680   0.26451   0.27379

 Mulliken charges:
               1
     1  C   -0.044486
     2  H    0.274098
     3  Cl  -0.530482
     4  F   -0.905468
     5  C   -1.721595
     6  H    0.034621
     7  N    3.316123
     8  O   -1.579116
     9  O   -1.567078
    10  C    0.059435
    11  H    0.200285
    12  H    0.257131
    13  H    0.123010
    14  N    0.694207
    15  H    0.172179
    16  H    0.217136
 Sum of Mulliken charges =  -1.00000

 Dipole moment (field-independent basis, Debye):
    X=              5.3404    Y=              0.9163    Z=              2.3506  Tot=              5.9063

 Test job not archived.
 1\1\GINC-SE051\SP\RHF\Aug-CC-pVDZ\C3H7Cl1F1N2O2(1-)\OHZDE\09-Apr-2025\
 0\\#t hf aug-cc-pvdz iop(5/13=1,5/36=2,99/5=2) pseudo=read geom=check
 guess=(read,tcheck) scf=(maxcycle=1)\\title\\-1,1\C,0,0.56734234,-0.01
 178201,0.05434024\H,0,1.63845268,1.73588762,0.16840125\Cl,0,-1.4970955
 9,-0.40395176,-0.03874066\F,0,2.56781769,-0.02132062,0.08451817\C,0,0.
 57715053,1.50650951,0.10170824\H,0,0.79162143,-0.49798465,-0.87365011\
 N,0,0.84103046,-0.86423153,1.23042223\O,0,0.90207974,-0.33801665,2.338
 35962\O,0,0.94791442,-2.06511787,1.01845899\C,0,-0.16085774,2.18204575

 Normal termination of Gaussian 16 at Wed Apr  9 02:40:26 2025.
