 Gaussian 16, Revision C.01,

 ----------------------------------------------------------------------
 #t hf aug-cc-pvdz symm=none int=(grid=ultrafine) guess=(read,tcheck) s
 table=(opt,rrhf)
 ----------------------------------------------------------------------
 -----
 title
 -----
 Symbolic Z-matrix:
 Charge = -1 Multiplicity = 1

 SCF Done:  E(RHF) =  -614.213522662     A.U. after   16 cycles
 Normal termination of Gaussian 16 at Wed Apr  9 02:56:45 2025.
 Gaussian 16:  ES64L-G16RevC.01  3-Jul-2019

 ----------------------------------------------------------------------
 #t hf aug-cc-pvdz iop(5/13=1,5/36=2,99/5=2) pseudo=read geom=check gue
 ss=(read,tcheck) scf=(maxcycle=1)
 ----------------------------------------------------------------------
 -----
 title
 -----
 Structure from the checkpoint file:  "E2SN2_359_mol2.chk"
 Charge = -1 Multiplicity = 1

                         Standard orientation:
 ---------------------------------------------------------------------
 Center     Atomic      Atomic             Coordinates (Angstroms)
 Number     Number       Type             X           Y           Z
 ---------------------------------------------------------------------
      1          6           0       -0.675926   -0.413012   -0.564708
      2          6           0        0.245347   -0.019190    0.625114
      3          9           0        0.094405   -1.232906   -1.419398
      4          1           0       -0.301148    0.828550    1.072204
      5          6           0       -1.866288   -1.200102   -0.062306
      6          1           0       -1.567131   -2.148494    0.386702
      7          1           0       -2.512372   -1.393114   -0.920618
      8          1           0       -2.373664   -0.546193    0.651133
      9          7           0       -1.162258    0.710130   -1.302959
     10          1           0       -0.367575    1.290704   -1.553156
     11          1           0       -1.673876    1.231768   -0.556653
     12          7           0        1.532099    0.477018    0.058297
     13          8           0        2.531447   -0.243146    0.125458
     14          8           0        1.531214    1.586543   -0.483536
     15          6           0        0.525779   -1.124024    1.621502
     16          1           0        1.301534   -0.816589    2.326064
     17          1           0       -0.386244   -1.320398    2.185730
     18          1           0        0.859015   -2.038050    1.126961
     19          9           0       -2.032425    1.498749    1.101763
 ---------------------------------------------------------------------

 SCF Done:  E(RHF) =  -614.819854823     A.U. after    2 cycles

 The electronic state is 1-A.
 Alpha  occ. eigenvalues --  -26.30966 -26.10247 -20.46153 -20.45890 -15.65196
 Alpha  occ. eigenvalues --  -15.32538 -11.21845 -11.15500 -11.11973 -11.08923
 Alpha  occ. eigenvalues --   -1.52887  -1.43294  -1.36576  -1.16776  -1.06140
 Alpha  occ. eigenvalues --   -0.99693  -0.87725  -0.84058  -0.73956  -0.68413
 Alpha  occ. eigenvalues --   -0.63384  -0.62134  -0.61389  -0.56200  -0.54645
 Alpha  occ. eigenvalues --   -0.51733  -0.47634  -0.46961  -0.45434  -0.43190
 Alpha  occ. eigenvalues --   -0.43141  -0.41442  -0.38915  -0.37878  -0.36045
 Alpha  occ. eigenvalues --   -0.35082  -0.31979  -0.29776  -0.26411  -0.26265
 Alpha  occ. eigenvalues --   -0.25753
 Alpha virt. eigenvalues --    0.12659   0.12943   0.14403   0.14526   0.16180
 Alpha virt. eigenvalues --    0.16870   0.17974   0.18168   0.18669   0.19877
 Alpha virt. eigenvalues --    0.20471   0.22856   0.24127   0.24766   0.25539

 Mulliken charges:
               1
     1  C   -0.661447
     2  C   -1.049601
     3  F   -1.156758
     4  H    0.169707
     5  C   -0.056734
     6  H    0.191812
     7  H    0.113617
     8  H    0.348843
     9  N    0.734437
    10  H    0.277071
    11  H    0.324189
    12  N    3.125032
    13  O   -1.525190
    14  O   -1.564382
    15  C    0.044793
    16  H    0.148315
    17  H    0.260213
    18  H    0.282319
    19  F   -1.006237
 Sum of Mulliken charges =  -1.00000

 Dipole moment (field-independent basis, Debye):
    X=              3.3505    Y=             -4.7507    Z=              0.4118  Tot=              5.8279

 Test job not archived.
 1\1\GINC-SE015\SP\RHF\Aug-CC-pVDZ\C4H9F2N2O2(1-)\OHZDE\09-Apr-2025\0\\
 #t hf aug-cc-pvdz iop(5/13=1,5/36=2,99/5=2) pseudo=read geom=check gue
 ss=(read,tcheck) scf=(maxcycle=1)\\title\\-1,1\C,0,-0.003207,0.00605,0
 .009198\C,0,-0.471264,-0.100123,-1.470385\F,0,1.406655,-0.084703,-0.00
 4404\H,0,-1.546907,-0.318905,-1.359309\C,0,-0.40876,1.343653,0.588184\
 H,0,0.082545,2.173814,0.078279\H,0,-0.119147,1.342094,1.640562\H,0,-1.
 496797,1.387789,0.497362\N,0,-0.532688,-1.022982,0.848081\H,0,-0.34629
 3,-1.917557,0.405161\H,0,-1.558477,-0.858706,0.740363\N,0,0.204886,-1.

 Normal termination of Gaussian 16 at Wed Apr  9 02:56:56 2025.
