 Gaussian 16, Revision C.01,

 ----------------------------------------------------------------------
 #t hf aug-cc-pvdz symm=none int=(grid=ultrafine) guess=(read,tcheck) s
 table=(opt,rrhf)
 ----------------------------------------------------------------------
 -----
 title
 -----
 Symbolic Z-matrix:
 Charge = -1 Multiplicity = 1

 SCF Done:  E(RHF) =  -784.403571536     A.U. after   15 cycles
 Normal termination of Gaussian 16 at Wed Apr  9 02:40:35 2025.
 Gaussian 16:  ES64L-G16RevC.01  3-Jul-2019

 ----------------------------------------------------------------------
 #t hf aug-cc-pvdz iop(5/13=1,5/36=2,99/5=2) pseudo=read geom=check gue
 ss=(read,tcheck) scf=(maxcycle=1)
 ----------------------------------------------------------------------
 -----
 title
 -----
 Structure from the checkpoint file:  "E2SN2_193_mol1.chk"
 Charge = -1 Multiplicity = 1

                         Standard orientation:
 ---------------------------------------------------------------------
 Center     Atomic      Atomic             Coordinates (Angstroms)
 Number     Number       Type             X           Y           Z
 ---------------------------------------------------------------------
      1          6           0        0.320289    0.513037   -0.147584
      2          1           0       -1.122667    0.782304    1.349391
      3         17           0        1.764223   -1.151772   -0.186768
      4          9           0       -1.055158    1.922508   -0.507944
      5          6           0       -0.662346   -0.064926    0.843656
      6          1           0        0.168984    0.368188   -1.201952
      7          1           0       -0.151080   -0.701043    1.566793
      8          7           0        1.181824    1.512918    0.387656
      9          1           0        0.652891    2.356908    0.178902
     10          1           0        2.050108    1.506342   -0.130409
     11          6           0       -1.717354   -0.833301    0.191121
     12          7           0       -2.572843   -1.473490   -0.293275
 ---------------------------------------------------------------------

 SCF Done:  E(RHF) =  -784.804679376     A.U. after    2 cycles

 The electronic state is 1-A.
 Alpha  occ. eigenvalues -- -105.34493 -26.13955 -15.38198 -15.36623 -11.23925
 Alpha  occ. eigenvalues --  -11.15890 -11.14907 -10.39324  -7.56150  -7.55985
 Alpha  occ. eigenvalues --   -7.55971  -1.21757  -1.09091  -1.07739  -0.93265
 Alpha  occ. eigenvalues --   -0.81848  -0.71882  -0.61342  -0.57180  -0.52116
 Alpha  occ. eigenvalues --   -0.50726  -0.49050  -0.46323  -0.36816  -0.36070
 Alpha  occ. eigenvalues --   -0.34428  -0.32485  -0.30223  -0.29609  -0.26759
 Alpha  occ. eigenvalues --   -0.26660  -0.25264
 Alpha virt. eigenvalues --    0.13790   0.14804   0.15662   0.16393   0.17356
 Alpha virt. eigenvalues --    0.18747   0.20882   0.22841   0.23592   0.25481
 Alpha virt. eigenvalues --    0.26037   0.26671   0.27221   0.28102   0.29317

 Mulliken charges:
               1
     1  C   -0.928637
     2  H    0.432410
     3  Cl  -0.607074
     4  F   -0.919349
     5  C    0.396474
     6  H    0.034962
     7  H    0.257551
     8  N    0.394549
     9  H    0.293514
    10  H    0.221057
    11  C   -1.324518
    12  N    0.749062
 Sum of Mulliken charges =  -1.00000

 Dipole moment (field-independent basis, Debye):
    X=              2.4372    Y=              1.3498    Z=              2.3106  Tot=              3.6195

 Test job not archived.
 1\1\GINC-SE114\SP\RHF\Aug-CC-pVDZ\C3H5Cl1F1N2(1-)\OHZDE\09-Apr-2025\0\
 \#t hf aug-cc-pvdz iop(5/13=1,5/36=2,99/5=2) pseudo=read geom=check gu
 ess=(read,tcheck) scf=(maxcycle=1)\\title\\-1,1\C,0,0.45500382,-0.0737
 2937,0.07181033\H,0,1.50913316,1.68885449,0.49331845\Cl,0,-1.72590402,
 -0.29421953,0.302229\F,0,2.37096398,-0.04554955,-0.5083834\C,0,0.53131
 207,1.43494751,0.08729022\H,0,0.38000352,-0.59905229,-0.86305699\H,0,-
 0.25587594,1.85413854,0.71464884\N,0,0.84930173,-0.69868261,1.28936934
 \H,0,1.83787237,-0.86284195,1.11202934\H,0,0.35839898,-1.57816052,1.37

 Normal termination of Gaussian 16 at Wed Apr  9 02:40:40 2025.
