 Gaussian 16, Revision C.01,

 ----------------------------------------------------------------------
 #t hf aug-cc-pvdz symm=none int=(grid=ultrafine) guess=(read,tcheck) s
 table=(opt,rrhf)
 ----------------------------------------------------------------------
 -----
 title
 -----
 Symbolic Z-matrix:
 Charge = -1 Multiplicity = 1

 SCF Done:  E(RHF) =  -823.512803041     A.U. after   14 cycles
 Normal termination of Gaussian 16 at Wed Apr  9 02:51:15 2025.
 Gaussian 16:  ES64L-G16RevC.01  3-Jul-2019

 ----------------------------------------------------------------------
 #t hf aug-cc-pvdz iop(5/13=1,5/36=2,99/5=2) pseudo=read geom=check gue
 ss=(read,tcheck) scf=(maxcycle=1)
 ----------------------------------------------------------------------
 -----
 title
 -----
 Structure from the checkpoint file:  "E2SN2_299_mol2.chk"
 Charge = -1 Multiplicity = 1

                         Standard orientation:
 ---------------------------------------------------------------------
 Center     Atomic      Atomic             Coordinates (Angstroms)
 Number     Number       Type             X           Y           Z
 ---------------------------------------------------------------------
      1          6           0       -0.975798    0.093569    0.216869
      2          6           0       -0.300953    0.851298   -0.916057
      3          9           0       -2.034401    0.896151    0.715922
      4          1           0       -1.074312    1.080691   -1.655993
      5          1           0        0.438429    0.185454   -1.369064
      6          6           0       -1.688899   -1.102642   -0.318128
      7          7           0       -2.241185   -2.054543   -0.729422
      8          7           0       -0.078856   -0.194496    1.261269
      9          1           0       -0.375427   -0.977182    1.826711
     10          1           0        0.880248   -0.345493    0.922502
     11          6           0        0.385380    2.122128   -0.426490
     12          1           0        1.271355    1.870022    0.153990
     13          1           0        0.704645    2.720930   -1.283949
     14          1           0       -0.294460    2.719848    0.183936
     15         17           0        2.851825   -0.668381   -0.016560
 ---------------------------------------------------------------------

 SCF Done:  E(RHF) =  -823.956079232     A.U. after    2 cycles

 The electronic state is 1-A.
 Alpha  occ. eigenvalues -- -105.28502 -26.34189 -15.41873 -15.37419 -11.27882
 Alpha  occ. eigenvalues --  -11.18317 -11.12947 -11.10977 -10.33098  -7.49872
 Alpha  occ. eigenvalues --   -7.49831  -7.49823  -1.46530  -1.12520  -1.09478
 Alpha  occ. eigenvalues --   -0.94411  -0.84406  -0.74102  -0.72812  -0.66554
 Alpha  occ. eigenvalues --   -0.60457  -0.59389  -0.53666  -0.51591  -0.48854
 Alpha  occ. eigenvalues --   -0.47728  -0.46162  -0.42944  -0.40214  -0.39807
 Alpha  occ. eigenvalues --   -0.38941  -0.37844  -0.34308  -0.21446  -0.20853
 Alpha  occ. eigenvalues --   -0.20753
 Alpha virt. eigenvalues --    0.12145   0.13381   0.13716   0.14643   0.17084
 Alpha virt. eigenvalues --    0.17747   0.18364   0.19743   0.20278   0.22391
 Alpha virt. eigenvalues --    0.23094   0.23285   0.24580   0.25200   0.25573

 Mulliken charges:
               1
     1  C    1.171776
     2  C   -0.245057
     3  F   -0.979577
     4  H    0.078837
     5  H    0.230723
     6  C   -2.225344
     7  N    0.978168
     8  N    0.386929
     9  H    0.247180
    10  H    0.120710
    11  C   -0.292938
    12  H    0.213126
    13  H    0.100182
    14  H    0.183428
    15  Cl  -0.968144
 Sum of Mulliken charges =  -1.00000

 Dipole moment (field-independent basis, Debye):
    X=             -6.6503    Y=              4.3589    Z=              0.2197  Tot=              7.9546

 Test job not archived.
 1\1\GINC-SE398\SP\RHF\Aug-CC-pVDZ\C4H7Cl1F1N2(1-)\OHZDE\09-Apr-2025\0\
 \#t hf aug-cc-pvdz iop(5/13=1,5/36=2,99/5=2) pseudo=read geom=check gu
 ess=(read,tcheck) scf=(maxcycle=1)\\title\\-1,1\C,0,0.07569,0.063663,0
 .028695\C,0,-0.415404,0.049101,-1.410647\F,0,1.469654,-0.202147,0.0224
 05\H,0,0.177254,0.78679,-1.960903\H,0,-1.462482,0.363545,-1.409276\C,0
 ,0.003272,1.447081,0.58238\N,0,-0.063914,2.530974,1.030665\N,0,-0.5780
 62,-0.90229,0.814698\H,0,-0.555118,-0.684792,1.800824\H,0,-1.54683,-1.
 063876,0.510031\C,0,-0.29618,-1.333616,-2.0428\H,0,-1.033073,-2.008463

 Normal termination of Gaussian 16 at Wed Apr  9 02:51:21 2025.
