 Gaussian 16, Revision C.01,

 ----------------------------------------------------------------------
 #t hf aug-cc-pvdz symm=none int=(grid=ultrafine) guess=(read,tcheck) s
 table=(opt,rrhf)
 ----------------------------------------------------------------------
 -----
 title
 -----
 Symbolic Z-matrix:
 Charge = -1 Multiplicity = 1

 SCF Done:  E(RHF) =  -836.263628350     A.U. after   16 cycles
 Normal termination of Gaussian 16 at Wed Apr  9 02:41:05 2025.
 Gaussian 16:  ES64L-G16RevC.01  3-Jul-2019

 ----------------------------------------------------------------------
 #t hf aug-cc-pvdz iop(5/13=1,5/36=2,99/5=2) pseudo=read geom=check gue
 ss=(read,tcheck) scf=(maxcycle=1)
 ----------------------------------------------------------------------
 -----
 title
 -----
 Structure from the checkpoint file:  "E2SN2_188_mol2.chk"
 Charge = -1 Multiplicity = 1

                         Standard orientation:
 ---------------------------------------------------------------------
 Center     Atomic      Atomic             Coordinates (Angstroms)
 Number     Number       Type             X           Y           Z
 ---------------------------------------------------------------------
      1          6           0       -0.940170    0.257045    0.288175
      2          6           0        0.349251    0.566503   -0.449889
      3         17           0       -1.464775   -1.413016   -0.176098
      4          1           0        0.288712    0.259469   -1.500006
      5          1           0       -0.731234    0.234046    1.356723
      6          6           0       -2.034977    1.253396   -0.019576
      7          1           0       -2.172880    1.369854   -1.097444
      8          1           0       -2.975295    0.921744    0.427613
      9          1           0       -1.740290    2.205727    0.422830
     10          7           0        1.462126   -0.389169    0.066938
     11          8           0        2.384367   -0.589728   -0.730084
     12          8           0        1.430471   -0.812518    1.217681
     13          7           0        0.692630    1.923181   -0.296833
     14          1           0        1.613468    2.119467   -0.671155
     15          1           0        0.583098    2.257045    0.716778
     16          1           0        0.188984    2.672133    2.134564
 ---------------------------------------------------------------------

 SCF Done:  E(RHF) =  -836.724139595     A.U. after    2 cycles

 The electronic state is 1-A.
 Alpha  occ. eigenvalues -- -105.44423 -20.46823 -20.46264 -15.64771 -15.35528
 Alpha  occ. eigenvalues --  -11.21566 -11.19082 -11.11915 -10.49307  -7.66240
 Alpha  occ. eigenvalues --   -7.65905  -7.65886  -1.53090  -1.37155  -1.10368
 Alpha  occ. eigenvalues --   -1.00159  -0.91560  -0.87470  -0.77059  -0.69858
 Alpha  occ. eigenvalues --   -0.65541  -0.61898  -0.61102  -0.57793  -0.53593
 Alpha  occ. eigenvalues --   -0.48518  -0.46790  -0.45981  -0.41802  -0.39732
 Alpha  occ. eigenvalues --   -0.38393  -0.35931  -0.34054  -0.33730  -0.32083
 Alpha  occ. eigenvalues --   -0.30993  -0.10300
 Alpha virt. eigenvalues --    0.12584   0.13105   0.14647   0.14923   0.16944
 Alpha virt. eigenvalues --    0.17846   0.18058   0.19078   0.21398   0.21812
 Alpha virt. eigenvalues --    0.22162   0.23764   0.24642   0.25876   0.25958

 Mulliken charges:
               1
     1  C   -0.229923
     2  C   -1.682310
     3  Cl  -0.178503
     4  H    0.014255
     5  H    0.373483
     6  C   -0.248276
     7  H    0.241255
     8  H    0.131205
     9  H    0.234560
    10  N    2.946818
    11  O   -1.454119
    12  O   -1.430849
    13  N    0.819736
    14  H    0.279866
    15  H   -0.050485
    16  H   -0.766713
 Sum of Mulliken charges =  -1.00000

 Dipole moment (field-independent basis, Debye):
    X=             -2.6378    Y=             -6.1688    Z=             -7.2615  Tot=              9.8865

 Test job not archived.
 1\1\GINC-SE042\SP\RHF\Aug-CC-pVDZ\C3H8Cl1N2O2(1-)\OHZDE\09-Apr-2025\0\
 \#t hf aug-cc-pvdz iop(5/13=1,5/36=2,99/5=2) pseudo=read geom=check gu
 ess=(read,tcheck) scf=(maxcycle=1)\\title\\-1,1\C,0,-0.130519,0.000722
 ,0.019579\C,0,-0.470284,-0.004019,-1.459491\Cl,0,1.637147,0.357146,0.1
 87459\H,0,0.279717,-0.555975,-2.037007\H,0,-0.6625,0.823478,0.495023\C
 ,0,-0.465639,-1.310768,0.693163\H,0,-0.030067,-2.155606,0.153806\H,0,-
 0.088574,-1.308399,1.718827\H,0,-1.552589,-1.399216,0.707746\N,0,-0.26
 9433,1.43178,-2.022563\O,0,-0.039989,1.485552,-3.235188\O,0,-0.428134,

 Normal termination of Gaussian 16 at Wed Apr  9 02:41:12 2025.
