 Gaussian 16, Revision C.01,

 ----------------------------------------------------------------------
 #t hf aug-cc-pvdz symm=none int=(grid=ultrafine) guess=(read,tcheck) s
 table=(opt,rrhf)
 ----------------------------------------------------------------------
 -----
 title
 -----
 Symbolic Z-matrix:
 Charge = -1 Multiplicity = 1

 SCF Done:  E(RHF) =  -1291.30268860     A.U. after   16 cycles
 Normal termination of Gaussian 16 at Wed Apr  9 03:04:10 2025.
 Gaussian 16:  ES64L-G16RevC.01  3-Jul-2019

 ----------------------------------------------------------------------
 #t hf aug-cc-pvdz iop(5/13=1,5/36=2,99/5=2) pseudo=read geom=check gue
 ss=(read,tcheck) scf=(maxcycle=1)
 ----------------------------------------------------------------------
 -----
 title
 -----
 Structure from the checkpoint file:  "E2SN2_93_mol2.chk"
 Charge = -1 Multiplicity = 1

                         Standard orientation:
 ---------------------------------------------------------------------
 Center     Atomic      Atomic             Coordinates (Angstroms)
 Number     Number       Type             X           Y           Z
 ---------------------------------------------------------------------
      1          6           0        0.437855   -0.612994   -0.120555
      2          6           0       -0.049652    0.841417    0.131072
      3         17           0        1.838276   -0.519789   -1.340491
      4          1           0       -0.819887    0.757536    0.919477
      5          6           0        1.060370   -1.163051    1.093797
      6          7           0        1.499666   -1.642570    2.073923
      7          7           0       -0.609036   -1.386205   -0.643626
      8          1           0       -1.540902   -1.044801   -0.366140
      9          1           0       -0.501689   -2.374762   -0.470505
     10          7           0       -0.674759    1.479909   -0.998471
     11          1           0       -0.210169    1.210124   -1.856889
     12          1           0       -1.645883    1.176566   -1.017317
     13          6           0        1.062396    1.653567    0.651714
     14          7           0        1.928525    2.319496    1.081786
     15         17           0       -3.329926   -0.035076    0.261662
 ---------------------------------------------------------------------

 SCF Done:  E(RHF) =  -1291.82596801     A.U. after    2 cycles

 The electronic state is 1-A.
 Alpha  occ. eigenvalues -- -105.46966-105.31371 -15.44055 -15.41883 -15.40412
 Alpha  occ. eigenvalues --  -15.39189 -11.29693 -11.22586 -11.20650 -11.18710
 Alpha  occ. eigenvalues --  -10.51838 -10.36029  -7.68756  -7.68406  -7.68388
 Alpha  occ. eigenvalues --   -7.52809  -7.52763  -7.52749  -1.17502  -1.13346
 Alpha  occ. eigenvalues --   -1.12113  -1.08913  -0.98738  -0.90747  -0.81202
 Alpha  occ. eigenvalues --   -0.77339  -0.69423  -0.64807  -0.62975  -0.56976
 Alpha  occ. eigenvalues --   -0.55878  -0.54052  -0.52530  -0.50258  -0.47678
 Alpha  occ. eigenvalues --   -0.42561  -0.42026  -0.39697  -0.38791  -0.38254
 Alpha  occ. eigenvalues --   -0.36762  -0.35594  -0.34644  -0.24506  -0.24032
 Alpha  occ. eigenvalues --   -0.23831
 Alpha virt. eigenvalues --    0.12852   0.13891   0.15388   0.16247   0.17051
 Alpha virt. eigenvalues --    0.17938   0.18156   0.18337   0.20409   0.21115
 Alpha virt. eigenvalues --    0.22118   0.22704   0.23278   0.23547   0.24360

 Mulliken charges:
               1
     1  C   -1.445446
     2  C    0.036133
     3  Cl   0.035902
     4  H    0.218187
     5  C   -1.291103
     6  N    0.923425
     7  N    0.885723
     8  H    0.086152
     9  H    0.221968
    10  N    0.637824
    11  H    0.242757
    12  H    0.269953
    13  C   -1.866622
    14  N    0.983383
    15  Cl  -0.938239
 Sum of Mulliken charges =  -1.00000

 Dipole moment (field-independent basis, Debye):
    X=              4.7449    Y=             -2.3545    Z=             -4.0821  Tot=              6.6874

 Test job not archived.
 1\1\GINC-SE109\SP\RHF\Aug-CC-pVDZ\C4H5Cl2N4(1-)\OHZDE\09-Apr-2025\0\\#
 t hf aug-cc-pvdz iop(5/13=1,5/36=2,99/5=2) pseudo=read geom=check gues
 s=(read,tcheck) scf=(maxcycle=1)\\title\\-1,1\C,0,-0.190735,-0.035025,
 -1.505186\C,0,0.026808,0.164346,0.020992\Cl,0,-1.967861,-0.526236,-1.7
 47353\H,0,1.06308,0.535902,0.120829\C,0,-0.077817,1.250416,-2.21203\N,
 0,0.07608,2.256814,-2.801135\N,0,0.659484,-1.042937,-1.983393\H,0,1.51
 8562,-1.145838,-1.423638\H,0,0.858255,-0.964271,-2.969821\N,0,-0.06582
 5,-1.035134,0.812803\H,0,-0.789498,-1.642524,0.448268\H,0,0.837812,-1.

 Normal termination of Gaussian 16 at Wed Apr  9 03:04:19 2025.
