 Gaussian 16, Revision C.01,

 ----------------------------------------------------------------------
 #t hf aug-cc-pvdz symm=none int=(grid=ultrafine) guess=(read,tcheck) s
 table=(opt,rrhf)
 ----------------------------------------------------------------------
 -----
 title
 -----
 Symbolic Z-matrix:
 Charge = -1 Multiplicity = 1

 SCF Done:  E(RHF) =  -763.503358732     A.U. after   17 cycles
 Normal termination of Gaussian 16 at Wed Apr  9 02:33:15 2025.
 Gaussian 16:  ES64L-G16RevC.01  3-Jul-2019

 ----------------------------------------------------------------------
 #t hf aug-cc-pvdz iop(5/13=1,5/36=2,99/5=2) pseudo=read geom=check gue
 ss=(read,tcheck) scf=(maxcycle=1)
 ----------------------------------------------------------------------
 -----
 title
 -----
 Structure from the checkpoint file:  "E2SN2_105_mol1.chk"
 Charge = -1 Multiplicity = 1

                         Standard orientation:
 ---------------------------------------------------------------------
 Center     Atomic      Atomic             Coordinates (Angstroms)
 Number     Number       Type             X           Y           Z
 ---------------------------------------------------------------------
      1          6           0       -0.269081   -0.023330    0.373899
      2          6           0        1.101166    0.426562    0.061058
      3         17           0       -0.892388   -1.431164   -0.812377
      4          1           0        2.252496    1.866827    1.688460
      5          1           0        1.417324    1.285291    0.898622
      6          6           0       -0.391042   -0.595600    1.771883
      7          1           0        0.291195   -1.439874    1.847135
      8          1           0       -0.064290    0.177300    2.477404
      9          1           0       -1.415493   -0.902082    1.990741
     10          6           0       -1.249785    1.038027    0.155119
     11          7           0       -2.034417    1.903401    0.017097
     12          7           0        2.082827   -0.585273    0.399193
     13          1           0        2.798221   -0.090919    0.944053
     14          1           0        2.512588   -0.956447   -0.440587
     15          6           0        1.299256    1.064700   -1.294850
     16          1           0        2.250208    1.609883   -1.276154
     17          1           0        1.339201    0.312459   -2.094540
     18          1           0        0.507194    1.778300   -1.541397
 ---------------------------------------------------------------------

 SCF Done:  E(RHF) =  -763.902449181     A.U. after    2 cycles

 The electronic state is 1-A.
 Alpha  occ. eigenvalues -- -105.42423 -15.40424 -15.34552 -11.22300 -11.17595
 Alpha  occ. eigenvalues --  -11.12175 -11.10728 -11.09735 -10.47185  -7.64085
 Alpha  occ. eigenvalues --   -7.63782  -7.63777  -1.11091  -1.06592  -0.98803
 Alpha  occ. eigenvalues --   -0.87343  -0.86422  -0.77804  -0.69945  -0.58203
 Alpha  occ. eigenvalues --   -0.54016  -0.51947  -0.50135  -0.49006  -0.46392
 Alpha  occ. eigenvalues --   -0.44048  -0.42916  -0.41140  -0.39448  -0.37631
 Alpha  occ. eigenvalues --   -0.36867  -0.33535  -0.32644  -0.32382  -0.29715
 Alpha  occ. eigenvalues --   -0.10032
 Alpha virt. eigenvalues --    0.12891   0.13050   0.13744   0.14846   0.15403
 Alpha virt. eigenvalues --    0.15958   0.16379   0.17869   0.18713   0.19631
 Alpha virt. eigenvalues --    0.20413   0.21875   0.23313   0.23348   0.24881

 Mulliken charges:
               1
     1  C   -1.026062
     2  C   -1.404267
     3  Cl  -0.196574
     4  H   -0.534635
     5  H    0.236163
     6  C    0.333627
     7  H    0.293596
     8  H    0.362016
     9  H    0.166893
    10  C   -1.491854
    11  N    0.966425
    12  N    0.540286
    13  H    0.346946
    14  H    0.262825
    15  C   -0.422327
    16  H    0.136317
    17  H    0.179202
    18  H    0.251421
 Sum of Mulliken charges =  -1.00000

 Dipole moment (field-independent basis, Debye):
    X=             -2.8517    Y=             -6.3855    Z=             -3.7570  Tot=              7.9386

 Test job not archived.
 1\1\GINC-SE333\SP\RHF\Aug-CC-pVDZ\C5H10Cl1N2(1-)\OHZDE\09-Apr-2025\0\\
 #t hf aug-cc-pvdz iop(5/13=1,5/36=2,99/5=2) pseudo=read geom=check gue
 ss=(read,tcheck) scf=(maxcycle=1)\\title\\-1,1\C,0,-0.12549689,-0.0068
 541,-0.44628487\C,0,-0.214732,-0.04255468,1.02633512\Cl,0,1.70736253,0
 .00407252,-1.09302064\H,0,-2.40255569,-0.50940372,2.04802059\H,0,-1.41
 617355,-0.09432789,1.33087207\C,0,-0.7727572,-1.21119535,-1.10000207\H
 ,0,-0.26917819,-2.10201225,-0.73018989\H,0,-1.81892194,-1.24454911,-0.
 77392296\H,0,-0.71502588,-1.1548107,-2.18849534\C,0,-0.66511109,1.2375

 Normal termination of Gaussian 16 at Wed Apr  9 02:33:23 2025.
