 Gaussian 16, Revision C.01,

 ----------------------------------------------------------------------
 #t hf aug-cc-pvdz symm=none int=(grid=ultrafine) guess=(read,tcheck) s
 table=(opt,rrhf)
 ----------------------------------------------------------------------
 -----
 title
 -----
 Symbolic Z-matrix:
 Charge = -1 Multiplicity = 1

 SCF Done:  E(RHF) =  -492.164719681     A.U. after   17 cycles
 Normal termination of Gaussian 16 at Wed Apr  9 02:36:56 2025.
 Gaussian 16:  ES64L-G16RevC.01  3-Jul-2019

 ----------------------------------------------------------------------
 #t hf aug-cc-pvdz iop(5/13=1,5/36=2,99/5=2) pseudo=read geom=check gue
 ss=(read,tcheck) scf=(maxcycle=1)
 ----------------------------------------------------------------------
 -----
 title
 -----
 Structure from the checkpoint file:  "E2SN2_140_mol1.chk"
 Charge = -1 Multiplicity = 1

                         Standard orientation:
 ---------------------------------------------------------------------
 Center     Atomic      Atomic             Coordinates (Angstroms)
 Number     Number       Type             X           Y           Z
 ---------------------------------------------------------------------
      1          6           0        0.147968   -0.100851    0.281165
      2          6           0        0.993826   -0.037926   -0.911501
      3          9           0        0.139768   -1.351329    0.972954
      4          1           0        1.391491    2.339966   -1.035735
      5          1           0        1.032823    1.386269   -1.156814
      6          1           0        0.636024   -0.673963   -1.723849
      7          7           0        0.396242    0.875015    1.299597
      8          1           0        0.648125    1.740495    0.819469
      9          1           0        1.219739    0.560928    1.797305
     10          7           0        2.414411   -0.154807   -0.660239
     11          1           0        2.623253   -0.728525    0.148825
     12          1           0        2.786890    0.786608   -0.500122
     13          7           0       -1.293518    0.065192   -0.192698
     14          8           0       -1.830414   -0.919269   -0.699773
     15          8           0       -1.802956    1.179900   -0.106511
 ---------------------------------------------------------------------

 SCF Done:  E(RHF) =  -492.656958212     A.U. after    2 cycles

 The electronic state is 1-A.
 Alpha  occ. eigenvalues --  -26.31650 -20.45247 -20.45024 -15.63952 -15.36734
 Alpha  occ. eigenvalues --  -15.34056 -11.26358 -11.06414  -1.52111  -1.43577
 Alpha  occ. eigenvalues --   -1.35900  -1.09366  -1.01937  -0.93340  -0.77645
 Alpha  occ. eigenvalues --   -0.69306  -0.64958  -0.61636  -0.59384  -0.56980
 Alpha  occ. eigenvalues --   -0.55814  -0.53332  -0.51034  -0.47176  -0.45044
 Alpha  occ. eigenvalues --   -0.43894  -0.36377  -0.35991  -0.34479  -0.33648
 Alpha  occ. eigenvalues --   -0.30684  -0.28182  -0.11511
 Alpha virt. eigenvalues --    0.13501   0.15056   0.15516   0.16836   0.17562
 Alpha virt. eigenvalues --    0.18945   0.19696   0.20541   0.20867   0.23529
 Alpha virt. eigenvalues --    0.24142   0.25578   0.25843   0.27150   0.28387

 Mulliken charges:
               1
     1  C    0.241505
     2  C   -1.570299
     3  F   -1.076266
     4  H   -0.737522
     5  H    0.673784
     6  H   -0.158881
     7  N    0.463837
     8  H    0.273267
     9  H    0.267792
    10  N    0.465567
    11  H    0.148529
    12  H    0.165325
    13  N    2.651247
    14  O   -1.423581
    15  O   -1.384303
 Sum of Mulliken charges =  -1.00000

 Dipole moment (field-independent basis, Debye):
    X=             -0.3831    Y=             -3.2775    Z=              3.5878  Tot=              4.8745

 Test job not archived.
 1\1\GINC-SE247\SP\RHF\Aug-CC-pVDZ\C2H7F1N3O2(1-)\OHZDE\09-Apr-2025\0\\
 #t hf aug-cc-pvdz iop(5/13=1,5/36=2,99/5=2) pseudo=read geom=check gue
 ss=(read,tcheck) scf=(maxcycle=1)\\title\\-1,1\C,0,-0.09752505,0.01441
 917,-0.35793035\C,0,-0.12371327,0.153072,1.09877027\F,0,1.19916477,-0.
 08619854,-0.95021919\H,0,-2.33383402,-0.69342591,1.57495513\H,0,-1.518
 21564,-0.10120207,1.38291721\H,0,0.29065592,1.10194767,1.44577047\N,0,
 -0.83598839,-1.07915881,-0.91463274\H,0,-1.67545589,-1.18574434,-0.342
 8312\H,0,-0.27024045,-1.90567974,-0.76867762\N,0,0.35926687,-0.9981073

 Normal termination of Gaussian 16 at Wed Apr  9 02:37:01 2025.
