 Gaussian 16, Revision C.01,

 ----------------------------------------------------------------------
 #t hf aug-cc-pvdz symm=none int=(grid=ultrafine) guess=(read,tcheck) s
 table=(opt,rrhf)
 ----------------------------------------------------------------------
 -----
 title
 -----
 Symbolic Z-matrix:
 Charge = -1 Multiplicity = 1

 SCF Done:  E(RHF) =  -1292.93571399     A.U. after   16 cycles
 Normal termination of Gaussian 16 at Wed Apr  9 02:41:48 2025.
 Gaussian 16:  ES64L-G16RevC.01  3-Jul-2019

 ----------------------------------------------------------------------
 #t hf aug-cc-pvdz iop(5/13=1,5/36=2,99/5=2) pseudo=read geom=check gue
 ss=(read,tcheck) scf=(maxcycle=1)
 ----------------------------------------------------------------------
 -----
 title
 -----
 Structure from the checkpoint file:  "E2SN2_209_mol1.chk"
 Charge = -1 Multiplicity = 1

                         Standard orientation:
 ---------------------------------------------------------------------
 Center     Atomic      Atomic             Coordinates (Angstroms)
 Number     Number       Type             X           Y           Z
 ---------------------------------------------------------------------
      1          6           0        0.338462    0.108502   -0.489598
      2          1           0        0.325530   -2.021150   -0.265920
      3         17           0       -1.624977    1.306124   -0.874758
      4         17           0        2.440020   -0.717359   -0.536127
      5          6           0       -0.355677   -1.231747   -0.581642
      6          1           0        0.650118    0.709140   -1.317600
      7          1           0       -0.588316   -1.381977   -1.638592
      8          7           0        0.527035    0.715375    0.838694
      9          8           0        0.181086    0.041060    1.806240
     10          8           0        1.032551    1.829251    0.875819
     11          6           0       -1.593807   -1.402294    0.180855
     12          7           0       -2.567896   -1.733128    0.746021
 ---------------------------------------------------------------------

 SCF Done:  E(RHF) =  -1293.45138875     A.U. after    2 cycles

 The electronic state is 1-A.
 Alpha  occ. eigenvalues -- -105.37963-105.35702 -20.48129 -20.47984 -15.68693
 Alpha  occ. eigenvalues --  -15.39770 -11.30419 -11.20045 -11.17859 -10.42741
 Alpha  occ. eigenvalues --  -10.40485  -7.59577  -7.59381  -7.59375  -7.57311
 Alpha  occ. eigenvalues --   -7.57136  -7.57134  -1.55576  -1.39543  -1.10643
 Alpha  occ. eigenvalues --   -1.05707  -0.93371  -0.84594  -0.82293  -0.74822
 Alpha  occ. eigenvalues --   -0.68488  -0.64785  -0.63019  -0.58859  -0.55331
 Alpha  occ. eigenvalues --   -0.53097  -0.48592  -0.40340  -0.38094  -0.37617
 Alpha  occ. eigenvalues --   -0.37049  -0.35128  -0.33474  -0.29991  -0.29626
 Alpha  occ. eigenvalues --   -0.27944  -0.27532  -0.25221
 Alpha virt. eigenvalues --    0.13323   0.13349   0.14402   0.15121   0.17888
 Alpha virt. eigenvalues --    0.20157   0.21148   0.21772   0.23252   0.23529
 Alpha virt. eigenvalues --    0.24493   0.25325   0.25736   0.26140   0.27385

 Mulliken charges:
               1
     1  C   -0.104741
     2  H    0.365497
     3  Cl  -0.613697
     4  Cl  -0.574800
     5  C    0.179598
     6  H   -0.033442
     7  H    0.332590
     8  N    2.860106
     9  O   -1.342833
    10  O   -1.467828
    11  C   -1.528449
    12  N    0.927998
 Sum of Mulliken charges =  -1.00000

 Dipole moment (field-independent basis, Debye):
    X=              2.1307    Y=             -1.6521    Z=             -1.9962  Tot=              3.3547

 Test job not archived.
 1\1\GINC-SE366\SP\RHF\Aug-CC-pVDZ\C3H3Cl2N2O2(1-)\OHZDE\09-Apr-2025\0\
 \#t hf aug-cc-pvdz iop(5/13=1,5/36=2,99/5=2) pseudo=read geom=check gu
 ess=(read,tcheck) scf=(maxcycle=1)\\title\\-1,1\C,0,0.61824342,-0.0439
 6403,-0.04169555\H,0,1.81622817,1.71075917,-0.3088955\Cl,0,-1.71101996
 ,0.04893865,-0.10204291\Cl,0,2.77669842,-0.45742987,0.47876388\C,0,0.7
 6954543,1.45705982,-0.14466052\H,0,0.39036519,-0.58952679,0.84932473\H
 ,0,0.46689612,1.86058695,0.82456734\N,0,0.68478008,-0.84579324,-1.2749
 2598\O,0,0.95083625,-0.24095804,-2.31122479\O,0,0.49353101,-2.04978789

 Normal termination of Gaussian 16 at Wed Apr  9 02:41:54 2025.
