 Gaussian 16, Revision C.01,

 ----------------------------------------------------------------------
 #t hf aug-cc-pvdz symm=none int=(grid=ultrafine) guess=(read,tcheck) s
 table=(opt,rrhf)
 ----------------------------------------------------------------------
 -----
 title
 -----
 Symbolic Z-matrix:
 Charge = -1 Multiplicity = 1

 SCF Done:  E(RHF) =  -611.800334901     A.U. after   16 cycles
 Normal termination of Gaussian 16 at Wed Apr  9 02:44:35 2025.
 Gaussian 16:  ES64L-G16RevC.01  3-Jul-2019

 ----------------------------------------------------------------------
 #t hf aug-cc-pvdz iop(5/13=1,5/36=2,99/5=2) pseudo=read geom=check gue
 ss=(read,tcheck) scf=(maxcycle=1)
 ----------------------------------------------------------------------
 -----
 title
 -----
 Structure from the checkpoint file:  "E2SN2_224_mol1.chk"
 Charge = -1 Multiplicity = 1

                         Standard orientation:
 ---------------------------------------------------------------------
 Center     Atomic      Atomic             Coordinates (Angstroms)
 Number     Number       Type             X           Y           Z
 ---------------------------------------------------------------------
      1          6           0        0.150034   -0.278597    0.038043
      2          1           0       -0.794830   -1.790101    1.169075
      3          9           0        0.034452   -0.269886   -1.705432
      4          9           0        0.309402   -0.018034    1.770158
      5          6           0       -0.917947   -1.349490    0.180478
      6          1           0       -0.672575   -2.098085   -0.574761
      7          7           0       -0.047818    1.209792   -0.039909
      8          8           0       -1.186308    1.646123    0.062206
      9          8           0        0.956483    1.888086   -0.202418
     10          6           0        1.528413   -0.730668   -0.026120
     11          7           0        2.614679   -1.174441   -0.074543
     12          6           0       -2.360429   -0.908918   -0.027133
     13          1           0       -2.683272   -0.219659    0.750645
     14          1           0       -2.469690   -0.420764   -0.993848
     15          1           0       -3.004172   -1.795208   -0.002381
 ---------------------------------------------------------------------

 SCF Done:  E(RHF) =  -612.384386901     A.U. after    2 cycles

 The electronic state is 1-A.
 Alpha  occ. eigenvalues --  -26.21386 -26.20848 -20.45139 -20.45059 -15.66238
 Alpha  occ. eigenvalues --  -15.38839 -11.31268 -11.16826 -11.12803 -11.10862
 Alpha  occ. eigenvalues --   -1.53186  -1.36862  -1.30728  -1.29266  -1.09018
 Alpha  occ. eigenvalues --   -0.99356  -0.91629  -0.81208  -0.73068  -0.67657
 Alpha  occ. eigenvalues --   -0.61041  -0.60714  -0.54532  -0.52722  -0.48400
 Alpha  occ. eigenvalues --   -0.46466  -0.43488  -0.42574  -0.40489  -0.39140
 Alpha  occ. eigenvalues --   -0.37888  -0.37281  -0.36263  -0.35416  -0.34820
 Alpha  occ. eigenvalues --   -0.34144  -0.33973  -0.30842  -0.30481
 Alpha virt. eigenvalues --    0.11893   0.14009   0.14429   0.15757   0.16555
 Alpha virt. eigenvalues --    0.19073   0.20590   0.21737   0.22334   0.23873
 Alpha virt. eigenvalues --    0.24668   0.24831   0.25122   0.25359   0.27285

 Mulliken charges:
               1
     1  C    0.836522
     2  H    0.219354
     3  F   -0.907055
     4  F   -0.901730
     5  C   -0.066008
     6  H    0.292889
     7  N    3.889280
     8  O   -1.750564
     9  O   -1.654608
    10  C   -2.453816
    11  N    1.186643
    12  C   -0.222609
    13  H    0.238861
    14  H    0.243667
    15  H    0.049175
 Sum of Mulliken charges =  -1.00000

 Dipole moment (field-independent basis, Debye):
    X=             -4.7865    Y=             -1.5392    Z=              0.1467  Tot=              5.0300

 Test job not archived.
 1\1\GINC-SE109\SP\RHF\Aug-CC-pVDZ\C4H5F2N2O2(1-)\OHZDE\09-Apr-2025\0\\
 #t hf aug-cc-pvdz iop(5/13=1,5/36=2,99/5=2) pseudo=read geom=check gue
 ss=(read,tcheck) scf=(maxcycle=1)\\title\\-1,1\C,0,0.57988376,-0.05056
 992,-0.02607625\H,0,1.64468895,1.74465864,0.29013486\F,0,-1.16457755,-
 0.07774968,0.07013074\F,0,2.30903515,-0.24270699,-0.28421202\C,0,0.634
 18986,1.46745318,-0.00763943\H,0,-0.06200367,1.76743069,0.77741833\N,0
 ,0.42945325,-0.94876458,-1.22238019\O,0,0.38474453,-0.43097516,-2.3300
 1996\O,0,0.36111623,-2.14932391,-1.00079306\C,0,0.69047914,-0.7269167,

 Normal termination of Gaussian 16 at Wed Apr  9 02:44:42 2025.
