 Gaussian 16, Revision C.01,

 ----------------------------------------------------------------------
 #t hf aug-cc-pvdz symm=none int=(grid=ultrafine) guess=(read,tcheck) s
 table=(opt,rrhf)
 ----------------------------------------------------------------------
 -----
 title
 -----
 Symbolic Z-matrix:
 Charge = -1 Multiplicity = 1

 SCF Done:  E(RHF) =  -974.213678319     A.U. after   16 cycles
 Normal termination of Gaussian 16 at Wed Apr  9 03:03:23 2025.
 Gaussian 16:  ES64L-G16RevC.01  3-Jul-2019

 ----------------------------------------------------------------------
 #t hf aug-cc-pvdz iop(5/13=1,5/36=2,99/5=2) pseudo=read geom=check gue
 ss=(read,tcheck) scf=(maxcycle=1)
 ----------------------------------------------------------------------
 -----
 title
 -----
 Structure from the checkpoint file:  "E2SN2_78_mol1.chk"
 Charge = -1 Multiplicity = 1

                         Standard orientation:
 ---------------------------------------------------------------------
 Center     Atomic      Atomic             Coordinates (Angstroms)
 Number     Number       Type             X           Y           Z
 ---------------------------------------------------------------------
      1          6           0       -0.294941   -0.041883   -0.374455
      2          6           0        0.906704   -0.480445    0.320342
      3         17           0       -1.809584   -1.261519   -0.238080
      4          9           0        2.909082    0.921925   -0.227678
      5          1           0        1.886816    0.462259    0.071419
      6          6           0       -0.118870    0.164653   -1.859439
      7          1           0       -1.015009    0.597356   -2.304980
      8          1           0        0.737633    0.822065   -2.013131
      9          1           0        0.097920   -0.805680   -2.297432
     10          7           0        1.516265   -1.585030   -0.421094
     11          1           0        1.340514   -2.464793    0.056618
     12          1           0        2.515242   -1.415105   -0.440810
     13          6           0        0.824064   -0.743383    1.808876
     14          1           0        0.174097   -1.605446    2.030620
     15          1           0        1.833563   -0.971681    2.166309
     16          1           0        0.450563    0.105184    2.383144
     17          7           0       -0.832995    1.229177    0.266750
     18          8           0       -0.650078    2.278790   -0.351374
     19          8           0       -1.365521    1.161418    1.370523
 ---------------------------------------------------------------------

 SCF Done:  E(RHF) =  -974.806060672     A.U. after    2 cycles

 The electronic state is 1-A.
 Alpha  occ. eigenvalues -- -105.41071 -26.17142 -20.46338 -20.46175 -15.65695
 Alpha  occ. eigenvalues --  -15.34304 -11.23479 -11.10685 -11.08552 -11.07986
 Alpha  occ. eigenvalues --  -10.45859  -7.62760  -7.62463  -7.62451  -1.53366
 Alpha  occ. eigenvalues --   -1.37147  -1.25740  -1.06398  -1.00316  -0.87549
 Alpha  occ. eigenvalues --   -0.85121  -0.84370  -0.73627  -0.68735  -0.61904
 Alpha  occ. eigenvalues --   -0.60756  -0.57724  -0.54097  -0.48603  -0.47371
 Alpha  occ. eigenvalues --   -0.47263  -0.44678  -0.42677  -0.41614  -0.38626
 Alpha  occ. eigenvalues --   -0.38264  -0.36374  -0.35151  -0.33949  -0.33771
 Alpha  occ. eigenvalues --   -0.32645  -0.31206  -0.30624  -0.29475  -0.18231
 Alpha virt. eigenvalues --    0.13176   0.13428   0.13976   0.14779   0.15447
 Alpha virt. eigenvalues --    0.16269   0.16998   0.17629   0.17661   0.19112
 Alpha virt. eigenvalues --    0.20872   0.21872   0.23871   0.25161   0.26119

 Mulliken charges:
               1
     1  C   -1.100682
     2  C   -1.557593
     3  Cl  -0.285499
     4  F   -1.087310
     5  H    1.134651
     6  C    0.000827
     7  H    0.177398
     8  H    0.303534
     9  H    0.334053
    10  N    0.270397
    11  H    0.193091
    12  H    0.291249
    13  C   -0.064795
    14  H    0.173580
    15  H    0.100055
    16  H    0.204543
    17  N    2.887714
    18  O   -1.451124
    19  O   -1.524088
 Sum of Mulliken charges =  -1.00000

 Dipole moment (field-independent basis, Debye):
    X=             -2.9534    Y=             -2.6475    Z=             -0.1208  Tot=              3.9682

 Test job not archived.
 1\1\GINC-SE162\SP\RHF\Aug-CC-pVDZ\C4H9Cl1F1N2O2(1-)\OHZDE\09-Apr-2025\
 0\\#t hf aug-cc-pvdz iop(5/13=1,5/36=2,99/5=2) pseudo=read geom=check
 guess=(read,tcheck) scf=(maxcycle=1)\\title\\-1,1\C,0,-0.17807042,0.01
 044301,-0.40368622\C,0,-0.24735031,-0.02843642,1.04983369\Cl,0,1.62808
 184,-0.00599808,-1.1370331\F,0,-2.55712103,0.39785615,1.92145055\H,0,-
 1.58375994,0.04961327,1.39507126\C,0,-0.81989204,1.22562807,-1.0283668
 5\H,0,-0.83641445,1.14612506,-2.11566204\H,0,-1.83442552,1.31405783,-0
 .63809777\H,0,-0.24445522,2.09230849,-0.71512701\N,0,0.16123743,1.2700

 Normal termination of Gaussian 16 at Wed Apr  9 03:03:34 2025.
