 Gaussian 16, Revision C.01,

 ----------------------------------------------------------------------
 #t hf aug-cc-pvdz symm=none int=(grid=ultrafine) guess=(read,tcheck) s
 table=(opt,rrhf)
 ----------------------------------------------------------------------
 -----
 title
 -----
 Symbolic Z-matrix:
 Charge = -1 Multiplicity = 1

 SCF Done:  E(RHF) =  -476.152362874     A.U. after   16 cycles
 Normal termination of Gaussian 16 at Wed Apr  9 02:44:12 2025.
 Gaussian 16:  ES64L-G16RevC.01  3-Jul-2019

 ----------------------------------------------------------------------
 #t hf aug-cc-pvdz iop(5/13=1,5/36=2,99/5=2) pseudo=read geom=check gue
 ss=(read,tcheck) scf=(maxcycle=1)
 ----------------------------------------------------------------------
 -----
 title
 -----
 Structure from the checkpoint file:  "E2SN2_230_mol1.chk"
 Charge = -1 Multiplicity = 1

                         Standard orientation:
 ---------------------------------------------------------------------
 Center     Atomic      Atomic             Coordinates (Angstroms)
 Number     Number       Type             X           Y           Z
 ---------------------------------------------------------------------
      1          6           0        0.065255    0.500911   -0.209035
      2          1           0       -1.382987   -0.042616   -1.715118
      3          9           0       -0.245909    0.607466    1.383592
      4          1           0        0.711642    0.120952   -1.867267
      5          6           0       -1.385123    0.336487   -0.696849
      6          1           0       -1.796892    1.352908   -0.715846
      7          7           0        0.883198   -0.705538   -0.158985
      8          8           0        0.288151   -1.803882   -0.226423
      9          8           0        2.062850   -0.609007    0.220264
     10          6           0        0.771763    1.827790   -0.379628
     11          1           0        0.512896    2.293897   -1.328616
     12          1           0        0.485451    2.480917    0.450174
     13          1           0        1.845791    1.655679   -0.349704
     14          7           0       -2.268935   -0.496550    0.113324
     15          1           0       -2.133172   -0.182242    1.067274
     16          1           0       -1.848771   -1.420093    0.088752
 ---------------------------------------------------------------------

 SCF Done:  E(RHF) =  -476.627601267     A.U. after    2 cycles

 The electronic state is 1-A.
 Alpha  occ. eigenvalues --  -26.23065 -20.39429 -20.39187 -15.61263 -15.33559
 Alpha  occ. eigenvalues --  -11.23068 -11.12549 -11.09539  -1.46386  -1.32437
 Alpha  occ. eigenvalues --   -1.29888  -1.04191  -0.96840  -0.83708  -0.78136
 Alpha  occ. eigenvalues --   -0.65494  -0.58647  -0.56639  -0.56210  -0.54189
 Alpha  occ. eigenvalues --   -0.49605  -0.46812  -0.43975  -0.42173  -0.40133
 Alpha  occ. eigenvalues --   -0.39784  -0.37030  -0.35936  -0.32374  -0.29720
 Alpha  occ. eigenvalues --   -0.29121  -0.27304  -0.13157
 Alpha virt. eigenvalues --    0.13354   0.14012   0.14736   0.15228   0.16313
 Alpha virt. eigenvalues --    0.17125   0.17443   0.18680   0.21514   0.23653
 Alpha virt. eigenvalues --    0.24300   0.24557   0.26011   0.26972   0.27746

 Mulliken charges:
               1
     1  C   -0.600819
     2  H    0.085971
     3  F   -1.010237
     4  H   -0.153877
     5  C   -0.530716
     6  H    0.208307
     7  N    3.222082
     8  O   -1.618013
     9  O   -1.614447
    10  C   -0.319024
    11  H    0.171345
    12  H    0.240330
    13  H    0.269217
    14  N    0.187812
    15  H    0.249801
    16  H    0.212269
 Sum of Mulliken charges =  -1.00000

 Dipole moment (field-independent basis, Debye):
    X=             -1.8089    Y=              2.9285    Z=              0.9260  Tot=              3.5645

 Test job not archived.
 1\1\GINC-SE455\SP\RHF\Aug-CC-pVDZ\C3H8F1N2O2(1-)\OHZDE\09-Apr-2025\0\\
 #t hf aug-cc-pvdz iop(5/13=1,5/36=2,99/5=2) pseudo=read geom=check gue
 ss=(read,tcheck) scf=(maxcycle=1)\\title\\-1,1\C,0,0.45614912,0.043707
 61,0.04232014\H,0,1.98163473,1.50648807,-0.3984534\F,0,-1.14195472,0.3
 4435333,0.0600109\H,0,2.1376773,-0.58883593,-0.24797441\C,0,0.9432175,
 1.49859783,-0.07872985\H,0,0.90093623,1.89961092,0.94128312\N,0,0.4810
 139,-0.76160621,-1.17337149\O,0,0.60777992,-0.15449578,-2.25980509\O,0
 ,0.10448554,-1.94442824,-1.11104406\C,0,0.55456515,-0.67589286,1.36947

 Normal termination of Gaussian 16 at Wed Apr  9 02:44:19 2025.
