 Gaussian 16, Revision C.01,

 ----------------------------------------------------------------------
 #t hf aug-cc-pvdz symm=none int=(grid=ultrafine) guess=(read,tcheck) s
 table=(opt,rrhf)
 ----------------------------------------------------------------------
 -----
 title
 -----
 Symbolic Z-matrix:
 Charge = -1 Multiplicity = 1

 SCF Done:  E(RHF) =  -935.228970439     A.U. after   16 cycles
 Normal termination of Gaussian 16 at Wed Apr  9 02:35:18 2025.
 Gaussian 16:  ES64L-G16RevC.01  3-Jul-2019

 ----------------------------------------------------------------------
 #t hf aug-cc-pvdz iop(5/13=1,5/36=2,99/5=2) pseudo=read geom=check gue
 ss=(read,tcheck) scf=(maxcycle=1)
 ----------------------------------------------------------------------
 -----
 title
 -----
 Structure from the checkpoint file:  "E2SN2_121_mol2.chk"
 Charge = -1 Multiplicity = 1

                         Standard orientation:
 ---------------------------------------------------------------------
 Center     Atomic      Atomic             Coordinates (Angstroms)
 Number     Number       Type             X           Y           Z
 ---------------------------------------------------------------------
      1          6           0        0.519487    0.698820   -0.488611
      2          6           0        0.088655   -0.638295    0.134626
      3         17           0       -0.583793    2.025125    0.099380
      4          1           0        0.746116   -1.355396   -0.368161
      5          1           0        0.332755    0.640089   -1.561139
      6          7           0        1.885487    1.038516   -0.242914
      7          1           0        2.386201    0.110963   -0.383738
      8          1           0        1.977819    1.255535    0.745042
      9          7           0       -1.322155   -0.916420   -0.250519
     10          8           0       -2.172634   -1.081602    0.626497
     11          8           0       -1.565865   -0.956628   -1.459076
     12          6           0        0.334887   -0.754205    1.617879
     13          1           0       -0.126475   -1.662072    2.007865
     14          1           0        1.415352   -0.852003    1.717943
     15          1           0       -0.049120    0.099103    2.180471
     16          9           0        2.616481   -1.450011   -0.388494
 ---------------------------------------------------------------------

 SCF Done:  E(RHF) =  -935.777341782     A.U. after    2 cycles

 The electronic state is 1-A.
 Alpha  occ. eigenvalues -- -105.42987 -26.11276 -20.46772 -20.46282 -15.65675
 Alpha  occ. eigenvalues --  -15.33977 -11.20825 -11.16127 -11.10918 -10.47897
 Alpha  occ. eigenvalues --   -7.64821  -7.64486  -7.64480  -1.53359  -1.37129
 Alpha  occ. eigenvalues --   -1.18039  -1.08589  -1.00030  -0.92622  -0.85030
 Alpha  occ. eigenvalues --   -0.77228  -0.69290  -0.63302  -0.61975  -0.61421
 Alpha  occ. eigenvalues --   -0.56084  -0.51090  -0.50113  -0.45279  -0.43023
 Alpha  occ. eigenvalues --   -0.42159  -0.38421  -0.37188  -0.35602  -0.33990
 Alpha  occ. eigenvalues --   -0.33209  -0.32369  -0.30609  -0.27682  -0.27145
 Alpha  occ. eigenvalues --   -0.26138
 Alpha virt. eigenvalues --    0.13423   0.14289   0.15369   0.15659   0.16582
 Alpha virt. eigenvalues --    0.17819   0.18138   0.19042   0.19559   0.22572
 Alpha virt. eigenvalues --    0.24119   0.24300   0.25238   0.26917   0.27144

 Mulliken charges:
               1
     1  C   -1.304207
     2  C   -0.341030
     3  Cl  -0.165720
     4  H    0.309054
     5  H    0.153676
     6  N    0.488901
     7  H    0.266958
     8  H    0.299464
     9  N    2.767764
    10  O   -1.408407
    11  O   -1.511244
    12  C   -0.183339
    13  H    0.115633
    14  H    0.286662
    15  H    0.235998
    16  F   -1.010162
 Sum of Mulliken charges =  -1.00000

 Dipole moment (field-independent basis, Debye):
    X=             -4.3918    Y=              2.3779    Z=              2.6943  Tot=              5.6746

 Test job not archived.
 1\1\GINC-SE343\SP\RHF\Aug-CC-pVDZ\C3H7Cl1F1N2O2(1-)\OHZDE\09-Apr-2025\
 0\\#t hf aug-cc-pvdz iop(5/13=1,5/36=2,99/5=2) pseudo=read geom=check
 guess=(read,tcheck) scf=(maxcycle=1)\\title\\-1,1\C,0,-0.063838,-0.037
 597,-1.485609\C,0,0.058927,-0.114965,0.044378\Cl,0,-1.820753,0.115769,
 -1.945798\H,0,1.127515,-0.308505,0.185606\H,0,0.244538,-1.001099,-1.89
 2058\N,0,0.701628,1.015073,-2.075241\H,0,1.618683,0.966129,-1.539036\H
 ,0,0.27246,1.896465,-1.809454\N,0,-0.717969,-1.287933,0.530849\O,0,-1.
 621721,-1.122574,1.352825\O,0,-0.409262,-2.386341,0.061997\C,0,-0.2743

 Normal termination of Gaussian 16 at Wed Apr  9 02:35:26 2025.
