 Gaussian 16, Revision C.01,

 ----------------------------------------------------------------------
 #t hf aug-cc-pvdz symm=none int=(grid=ultrafine) guess=(read,tcheck) s
 table=(opt,rrhf)
 ----------------------------------------------------------------------
 -----
 title
 -----
 Symbolic Z-matrix:
 Charge = -1 Multiplicity = 1

 SCF Done:  E(RHF) =  -1291.25706182     A.U. after   17 cycles
 Normal termination of Gaussian 16 at Wed Apr  9 03:03:40 2025.
 Gaussian 16:  ES64L-G16RevC.01  3-Jul-2019

 ----------------------------------------------------------------------
 #t hf aug-cc-pvdz iop(5/13=1,5/36=2,99/5=2) pseudo=read geom=check gue
 ss=(read,tcheck) scf=(maxcycle=1)
 ----------------------------------------------------------------------
 -----
 title
 -----
 Structure from the checkpoint file:  "E2SN2_93_mol1.chk"
 Charge = -1 Multiplicity = 1

                         Standard orientation:
 ---------------------------------------------------------------------
 Center     Atomic      Atomic             Coordinates (Angstroms)
 Number     Number       Type             X           Y           Z
 ---------------------------------------------------------------------
      1          6           0        0.451192   -0.644110    0.051320
      2          6           0       -0.375461    0.437734   -0.303662
      3         17           0        2.718212    0.183779   -0.703843
      4         17           0       -3.155661   -0.493395   -0.023429
      5          1           0       -1.724556   -0.114425    0.003893
      6          6           0        0.884092   -0.784852    1.416513
      7          7           0        1.163063   -0.951792    2.547806
      8          7           0        0.408437   -1.775014   -0.692136
      9          1           0        0.166684   -1.556735   -1.652355
     10          1           0        1.214917   -2.371523   -0.587434
     11          7           0       -0.527719    0.572783   -1.728941
     12          1           0        0.245617    1.129810   -2.084358
     13          1           0       -1.412968    1.008919   -1.955143
     14          6           0       -0.299368    1.627215    0.498638
     15          7           0       -0.331751    2.632810    1.110722
 ---------------------------------------------------------------------

 SCF Done:  E(RHF) =  -1291.77978439     A.U. after    2 cycles

 The electronic state is 1-A.
 Alpha  occ. eigenvalues -- -105.39909-105.33268 -15.44910 -15.44400 -15.41041
 Alpha  occ. eigenvalues --  -15.40134 -11.29446 -11.20840 -11.18465 -11.17482
 Alpha  occ. eigenvalues --  -10.44708 -10.37959  -7.61600  -7.61369  -7.61361
 Alpha  occ. eigenvalues --   -7.54749  -7.54657  -7.54648  -1.19568  -1.13351
 Alpha  occ. eigenvalues --   -1.11714  -1.08992  -0.95617  -0.88121  -0.82096
 Alpha  occ. eigenvalues --   -0.78908  -0.73439  -0.65078  -0.62360  -0.60932
 Alpha  occ. eigenvalues --   -0.56368  -0.52246  -0.51537  -0.49314  -0.46141
 Alpha  occ. eigenvalues --   -0.41723  -0.41404  -0.40268  -0.39154  -0.36584
 Alpha  occ. eigenvalues --   -0.31756  -0.31578  -0.28563  -0.25737  -0.25519
 Alpha  occ. eigenvalues --   -0.22467
 Alpha virt. eigenvalues --    0.12086   0.12863   0.13813   0.14969   0.15741
 Alpha virt. eigenvalues --    0.16641   0.17916   0.18625   0.20703   0.21483
 Alpha virt. eigenvalues --    0.22242   0.22727   0.23902   0.24226   0.24871

 Mulliken charges:
               1
     1  C   -0.073546
     2  C   -1.034560
     3  Cl  -0.720327
     4  Cl  -0.515233
     5  H    1.050655
     6  C   -2.045153
     7  N    1.028429
     8  N    0.908909
     9  H    0.286500
    10  H    0.128610
    11  N    0.411371
    12  H    0.300677
    13  H    0.255222
    14  C   -1.981108
    15  N    0.999554
 Sum of Mulliken charges =  -1.00000

 Dipole moment (field-independent basis, Debye):
    X=             -2.0748    Y=             -3.5112    Z=             -4.5497  Tot=              6.1101

 Test job not archived.
 1\1\GINC-SE029\SP\RHF\Aug-CC-pVDZ\C4H5Cl2N4(1-)\OHZDE\09-Apr-2025\0\\#
 t hf aug-cc-pvdz iop(5/13=1,5/36=2,99/5=2) pseudo=read geom=check gues
 s=(read,tcheck) scf=(maxcycle=1)\\title\\-1,1\C,0,-0.47498757,0.005044
 45,-0.27378383\C,0,-0.26795773,0.03610129,1.11759295\Cl,0,1.89919897,0
 .09773135,-1.13963697\Cl,0,-2.90241116,0.48482602,2.35587658\H,0,-1.66
 801583,0.1334442,1.61748348\C,0,-0.73232077,-1.25357733,-0.92233138\N,
 0,-1.03288472,-2.26751932,-1.43914986\N,0,-0.94288889,1.11451905,-0.89
 316498\H,0,-0.64407979,1.94729721,-0.39788247\H,0,-0.77771331,1.135653

 Normal termination of Gaussian 16 at Wed Apr  9 03:03:49 2025.
