 Gaussian 16, Revision C.01,

 ----------------------------------------------------------------------
 #t hf aug-cc-pvdz symm=none int=(grid=ultrafine) guess=(read,tcheck) s
 table=(opt,rrhf)
 ----------------------------------------------------------------------
 -----
 title
 -----
 Symbolic Z-matrix:
 Charge = -1 Multiplicity = 1

 SCF Done:  E(RHF) =  -604.589587552     A.U. after   18 cycles
 Normal termination of Gaussian 16 at Wed Apr  9 03:01:51 2025.
 Gaussian 16:  ES64L-G16RevC.01  3-Jul-2019

 ----------------------------------------------------------------------
 #t hf aug-cc-pvdz iop(5/13=1,5/36=2,99/5=2) pseudo=read geom=check gue
 ss=(read,tcheck) scf=(maxcycle=1)
 ----------------------------------------------------------------------
 -----
 title
 -----
 Structure from the checkpoint file:  "E2SN2_63_mol1.chk"
 Charge = -1 Multiplicity = 1

                         Standard orientation:
 ---------------------------------------------------------------------
 Center     Atomic      Atomic             Coordinates (Angstroms)
 Number     Number       Type             X           Y           Z
 ---------------------------------------------------------------------
      1          6           0        0.695229    0.377695    0.088388
      2          6           0       -0.739695    0.576195   -0.305010
      3          9           0        1.208799    1.623096    0.472394
      4          1           0        0.478144    0.476837   -2.166676
      5          1           0       -0.402389    0.696240   -1.587136
      6          6           0        0.909553   -0.533109    1.212994
      7          7           0        1.119330   -1.184213    2.168854
      8          6           0        1.576032   -0.050417   -1.147489
      9          7           0        2.660003   -0.500356   -1.360841
     10          7           0       -1.456268   -0.648914   -0.284162
     11          8           0       -0.790770   -1.676202   -0.535553
     12          8           0       -2.692691   -0.645034   -0.136175
     13          6           0       -1.490327    1.775929    0.195774
     14          1           0       -0.906160    2.676849    0.006955
     15          1           0       -2.440753    1.852918   -0.334008
     16          1           0       -1.706551    1.715790    1.268245
 ---------------------------------------------------------------------

 SCF Done:  E(RHF) =  -605.169204898     A.U. after    2 cycles

 The electronic state is 1-A.
 Alpha  occ. eigenvalues --  -26.36379 -20.45422 -20.45388 -15.65320 -15.41062
 Alpha  occ. eigenvalues --  -15.33719 -11.27936 -11.18134 -11.17119 -11.14957
 Alpha  occ. eigenvalues --  -11.13845  -1.51691  -1.48680  -1.35617  -1.11177
 Alpha  occ. eigenvalues --   -1.06156  -1.04066  -0.90607  -0.87156  -0.73667
 Alpha  occ. eigenvalues --   -0.69381  -0.66234  -0.61965  -0.61124  -0.59634
 Alpha  occ. eigenvalues --   -0.53244  -0.51760  -0.50124  -0.48164  -0.47016
 Alpha  occ. eigenvalues --   -0.46058  -0.43494  -0.41847  -0.39081  -0.38297
 Alpha  occ. eigenvalues --   -0.36821  -0.35123  -0.33730  -0.32440  -0.31764
 Alpha  occ. eigenvalues --   -0.17516
 Alpha virt. eigenvalues --    0.11859   0.13499   0.13619   0.15497   0.16859
 Alpha virt. eigenvalues --    0.17788   0.18787   0.20341   0.21266   0.22011
 Alpha virt. eigenvalues --    0.22508   0.23027   0.23961   0.24412   0.25050

 Mulliken charges:
               1
     1  C    1.766173
     2  C   -1.026822
     3  F   -0.963677
     4  H    0.134961
     5  H    0.398754
     6  C   -2.181502
     7  N    1.101859
     8  C   -1.655388
     9  N    0.963342
    10  N    2.972781
    11  O   -1.493571
    12  O   -1.547745
    13  C   -0.096530
    14  H    0.193524
    15  H    0.203269
    16  H    0.230572
 Sum of Mulliken charges =  -1.00000

 Dipole moment (field-independent basis, Debye):
    X=             -5.2760    Y=              5.3391    Z=              1.3119  Tot=              7.6200

 Test job not archived.
 1\1\GINC-SE412\SP\RHF\Aug-CC-pVDZ\C5H5F1N3O2(1-)\OHZDE\09-Apr-2025\0\\
 #t hf aug-cc-pvdz iop(5/13=1,5/36=2,99/5=2) pseudo=read geom=check gue
 ss=(read,tcheck) scf=(maxcycle=1)\\title\\-1,1\C,0,-0.22989517,0.03680
 064,-0.29896608\C,0,0.37883837,-0.10231287,1.06604724\F,0,0.53340547,0
 .96878544,-1.0138189\H,0,-1.38748759,1.24345685,1.23277436\H,0,-0.4681
 0393,0.79395374,1.56747253\C,0,-0.25361498,-1.19020001,-1.09529831\N,0
 ,-0.20921237,-2.12881658,-1.80144239\C,0,-1.66897904,0.67703042,-0.223
 94064\N,0,-2.62057935,0.82455968,-0.92796517\N,0,-0.03195733,-1.306328

 Normal termination of Gaussian 16 at Wed Apr  9 03:02:00 2025.
