 Gaussian 16, Revision C.01,

 ----------------------------------------------------------------------
 #t hf aug-cc-pvdz symm=none int=(grid=ultrafine) guess=(read,tcheck) s
 table=(opt,rrhf)
 ----------------------------------------------------------------------
 -----
 title
 -----
 Symbolic Z-matrix:
 Charge = -1 Multiplicity = 1

 SCF Done:  E(RHF) =  -1010.92432000     A.U. after   17 cycles
 Normal termination of Gaussian 16 at Wed Apr  9 02:50:38 2025.
 Gaussian 16:  ES64L-G16RevC.01  3-Jul-2019

 ----------------------------------------------------------------------
 #t hf aug-cc-pvdz iop(5/13=1,5/36=2,99/5=2) pseudo=read geom=check gue
 ss=(read,tcheck) scf=(maxcycle=1)
 ----------------------------------------------------------------------
 -----
 title
 -----
 Structure from the checkpoint file:  "E2SN2_281_mol1.chk"
 Charge = -1 Multiplicity = 1

                         Standard orientation:
 ---------------------------------------------------------------------
 Center     Atomic      Atomic             Coordinates (Angstroms)
 Number     Number       Type             X           Y           Z
 ---------------------------------------------------------------------
      1          6           0       -0.699850    0.006036    0.411417
      2          1           0        0.402295   -1.755665    0.646925
      3         17           0        0.140089    1.915725   -0.405703
      4          9           0       -1.641642   -1.643388    0.856905
      5          6           0        0.411800   -0.933980   -0.066300
      6          6           0       -1.865732    0.170617   -0.428597
      7          7           0       -2.810019    0.338985   -1.109770
      8          6           0       -0.760733    0.493207    1.841368
      9          1           0       -1.035207   -0.351532    2.468765
     10          1           0        0.199456    0.902481    2.143621
     11          1           0       -1.515132    1.275972    1.919532
     12          7           0        1.798119   -0.355101    0.093757
     13          8           0        2.512157   -0.225528   -0.895850
     14          8           0        2.159459   -0.129154    1.248331
     15          6           0        0.191441   -1.436799   -1.472106
     16          1           0       -0.763261   -1.960803   -1.473896
     17          1           0        0.166531   -0.607673   -2.179479
     18          1           0        0.987396   -2.123816   -1.763118
 ---------------------------------------------------------------------

 SCF Done:  E(RHF) =  -1011.53767549     A.U. after    2 cycles

 The electronic state is 1-A.
 Alpha  occ. eigenvalues -- -105.36087 -26.17621 -20.47437 -20.46884 -15.66674
 Alpha  occ. eigenvalues --  -15.38180 -11.27675 -11.20515 -11.16894 -11.12401
 Alpha  occ. eigenvalues --  -11.12157 -10.40919  -7.57762  -7.57570  -7.57558
 Alpha  occ. eigenvalues --   -1.54329  -1.38169  -1.25640  -1.08975  -1.04478
 Alpha  occ. eigenvalues --   -0.94743  -0.86621  -0.82607  -0.79001  -0.73680
 Alpha  occ. eigenvalues --   -0.66120  -0.63839  -0.62611  -0.54692  -0.52773
 Alpha  occ. eigenvalues --   -0.48840  -0.48486  -0.47043  -0.45044  -0.43114
 Alpha  occ. eigenvalues --   -0.41963  -0.41478  -0.38358  -0.36492  -0.35634
 Alpha  occ. eigenvalues --   -0.33611  -0.33293  -0.32739  -0.32020  -0.28155
 Alpha  occ. eigenvalues --   -0.27633  -0.27052
 Alpha virt. eigenvalues --    0.12538   0.13512   0.14127   0.15457   0.15558
 Alpha virt. eigenvalues --    0.16054   0.16708   0.17986   0.19505   0.20398
 Alpha virt. eigenvalues --    0.21505   0.22472   0.23175   0.23963   0.24391

 Mulliken charges:
               1
     1  C   -0.032733
     2  H    0.297090
     3  Cl  -0.602442
     4  F   -0.853071
     5  C   -0.281831
     6  C   -2.096345
     7  N    1.076111
     8  C    0.083430
     9  H    0.338199
    10  H    0.308850
    11  H    0.206444
    12  N    2.834488
    13  O   -1.457409
    14  O   -1.522187
    15  C   -0.166136
    16  H    0.379582
    17  H    0.375988
    18  H    0.111971
 Sum of Mulliken charges =  -1.00000

 Dipole moment (field-independent basis, Debye):
    X=              3.5313    Y=             -2.0944    Z=              1.4856  Tot=              4.3662

 Test job not archived.
 1\1\GINC-SE435\SP\RHF\Aug-CC-pVDZ\C5H7Cl1F1N2O2(1-)\OHZDE\09-Apr-2025\
 0\\#t hf aug-cc-pvdz iop(5/13=1,5/36=2,99/5=2) pseudo=read geom=check
 guess=(read,tcheck) scf=(maxcycle=1)\\title\\-1,1\C,0,0.43805986,-0.07
 050166,0.0841161\H,0,1.65822177,1.59362666,0.42420437\Cl,0,-1.77487731
 ,-0.10037074,0.43356469\F,0,2.28489322,-0.11097755,-0.54325754\C,0,0.6
 3182879,1.44936096,0.09306826\C,0,0.23630817,-0.72778881,-1.18838583\N
 ,0,0.04395378,-1.27794205,-2.21032188\C,0,0.77104384,-0.91537008,1.292
 88412\H,0,1.85305891,-0.9294462,1.40054699\H,0,0.2999958,-0.50639444,2

 Normal termination of Gaussian 16 at Wed Apr  9 02:50:49 2025.
