 Gaussian 16, Revision C.01,

 ----------------------------------------------------------------------
 #t hf aug-cc-pvdz symm=none int=(grid=ultrafine) guess=(read,tcheck) s
 table=(opt,rrhf)
 ----------------------------------------------------------------------
 -----
 title
 -----
 Symbolic Z-matrix:
 Charge = -1 Multiplicity = 1

 SCF Done:  E(RHF) =  -515.178104086     A.U. after   18 cycles
 Normal termination of Gaussian 16 at Wed Apr  9 02:55:42 2025.
 Gaussian 16:  ES64L-G16RevC.01  3-Jul-2019

 ----------------------------------------------------------------------
 #t hf aug-cc-pvdz iop(5/13=1,5/36=2,99/5=2) pseudo=read geom=check gue
 ss=(read,tcheck) scf=(maxcycle=1)
 ----------------------------------------------------------------------
 -----
 title
 -----
 Structure from the checkpoint file:  "E2SN2_358_mol1.chk"
 Charge = -1 Multiplicity = 1

                         Standard orientation:
 ---------------------------------------------------------------------
 Center     Atomic      Atomic             Coordinates (Angstroms)
 Number     Number       Type             X           Y           Z
 ---------------------------------------------------------------------
      1          6           0       -0.964533   -0.367124   -0.177642
      2          1           0        0.342783    0.401264   -1.690258
      3          9           0       -1.187176    0.373414    1.297794
      4          1           0       -0.784756   -1.320852   -1.808804
      5          6           0        0.250325    0.487524   -0.613551
      6          6           0       -2.294542    0.076391   -0.784182
      7          1           0       -2.765191    0.830630   -0.140284
      8          1           0       -2.154017    0.473049   -1.789139
      9          1           0       -2.953146   -0.787266   -0.872208
     10          7           0       -0.718847   -1.650146    0.447720
     11          1           0       -0.997673   -2.367975   -0.199414
     12          1           0       -1.235497   -1.671396    1.318760
     13          7           0        1.500670   -0.143797   -0.088901
     14          8           0        2.188118   -0.790067   -0.879849
     15          8           0        1.783071    0.026142    1.095797
     16          6           0        0.230880    1.944215   -0.174403
     17          1           0       -0.695804    2.410800   -0.516584
     18          1           0        0.278476    2.017559    0.906613
     19          1           0        1.074353    2.476430   -0.629478
 ---------------------------------------------------------------------

 SCF Done:  E(RHF) =  -515.694998751     A.U. after    2 cycles

 The electronic state is 1-A.
 Alpha  occ. eigenvalues --  -26.20671 -20.43755 -20.43490 -15.62947 -15.33524
 Alpha  occ. eigenvalues --  -11.22508 -11.15616 -11.10764 -11.09173  -1.50605
 Alpha  occ. eigenvalues --   -1.34367  -1.30357  -1.04208  -0.98743  -0.86169
 Alpha  occ. eigenvalues --   -0.82926  -0.72990  -0.66267  -0.60927  -0.58626
 Alpha  occ. eigenvalues --   -0.58095  -0.55611  -0.51377  -0.48486  -0.45421
 Alpha  occ. eigenvalues --   -0.44878  -0.42992  -0.40887  -0.38736  -0.36418
 Alpha  occ. eigenvalues --   -0.35662  -0.34637  -0.33033  -0.32541  -0.29793
 Alpha  occ. eigenvalues --   -0.28853  -0.10347
 Alpha virt. eigenvalues --    0.12519   0.13217   0.14103   0.14301   0.15318
 Alpha virt. eigenvalues --    0.16051   0.16491   0.17867   0.18443   0.20540
 Alpha virt. eigenvalues --    0.21365   0.23323   0.23799   0.24735   0.25365

 Mulliken charges:
               1
     1  C   -1.490172
     2  H    0.123502
     3  F   -0.985336
     4  H   -0.477814
     5  C   -0.729694
     6  C   -0.096323
     7  H    0.273450
     8  H    0.178867
     9  H    0.101486
    10  N    0.648063
    11  H    0.335124
    12  H    0.242954
    13  N    3.271034
    14  O   -1.498994
    15  O   -1.563719
    16  C   -0.099657
    17  H    0.253109
    18  H    0.364980
    19  H    0.149141
 Sum of Mulliken charges =  -1.00000

 Dipole moment (field-independent basis, Debye):
    X=             -1.1025    Y=              4.3995    Z=              1.6540  Tot=              4.8277

 Test job not archived.
 1\1\GINC-SE455\SP\RHF\Aug-CC-pVDZ\C4H10F1N2O2(1-)\OHZDE\09-Apr-2025\0\
 \#t hf aug-cc-pvdz iop(5/13=1,5/36=2,99/5=2) pseudo=read geom=check gu
 ess=(read,tcheck) scf=(maxcycle=1)\\title\\-1,1\C,0,0.56279004,-0.0941
 6307,-0.04213962\H,0,1.58304048,1.74479702,-0.44811922\F,0,-1.08486678
 ,-0.27824734,-0.20405315\H,0,2.44312845,-0.01220241,0.20325001\C,0,0.5
 7479383,1.44736939,-0.18304473\C,0,0.93621082,-0.84455817,-1.31923989\
 H,0,0.03660077,-1.02739759,-1.92112257\H,0,1.67174049,-0.28849643,-1.8
 9959694\H,0,1.39448459,-1.79680367,-1.05348643\N,0,0.54593837,-0.66699

 Normal termination of Gaussian 16 at Wed Apr  9 02:55:50 2025.
