 Gaussian 16, Revision C.01,

 ----------------------------------------------------------------------
 #t hf aug-cc-pvdz symm=none int=(grid=ultrafine) guess=(read,tcheck) s
 table=(opt,rrhf)
 ----------------------------------------------------------------------
 -----
 title
 -----
 Symbolic Z-matrix:
 Charge = -1 Multiplicity = 1

 SCF Done:  E(RHF) =  -816.201352966     A.U. after   16 cycles
 Normal termination of Gaussian 16 at Wed Apr  9 03:02:03 2025.
 Gaussian 16:  ES64L-G16RevC.01  3-Jul-2019

 ----------------------------------------------------------------------
 #t hf aug-cc-pvdz iop(5/13=1,5/36=2,99/5=2) pseudo=read geom=check gue
 ss=(read,tcheck) scf=(maxcycle=1)
 ----------------------------------------------------------------------
 -----
 title
 -----
 Structure from the checkpoint file:  "E2SN2_70_mol2.chk"
 Charge = -1 Multiplicity = 1

                         Standard orientation:
 ---------------------------------------------------------------------
 Center     Atomic      Atomic             Coordinates (Angstroms)
 Number     Number       Type             X           Y           Z
 ---------------------------------------------------------------------
      1          6           0        0.345879    0.021970   -0.081211
      2          6           0       -1.138873    0.001013   -0.512702
      3         17           0        0.497025   -0.142768    1.717155
      4          1           0       -1.140884    0.102065   -1.613003
      5          6           0        1.106946   -1.081791   -0.676323
      6          7           0        1.688852   -1.971545   -1.177621
      7          6           0        0.972498    1.291355   -0.457777
      8          7           0        1.544377    2.264144   -0.784530
      9          7           0       -1.784116    1.185706   -0.015914
     10          1           0       -2.265596    0.964421    0.850990
     11          1           0       -2.525421    1.352807   -0.761110
     12          6           0       -1.828934   -1.314472   -0.176818
     13          1           0       -1.954072   -1.426585    0.904345
     14          1           0       -1.301003   -2.191884   -0.565612
     15          1           0       -2.812532   -1.251958   -0.647737
     16          1           0       -3.338809    1.021588   -2.084071
 ---------------------------------------------------------------------

 SCF Done:  E(RHF) =  -816.635375881     A.U. after    2 cycles

 The electronic state is 1-A.
 Alpha  occ. eigenvalues -- -105.49725 -15.45207 -15.43712 -15.34450 -11.29550
 Alpha  occ. eigenvalues --  -11.22190 -11.20897 -11.17376 -11.12143 -10.54530
 Alpha  occ. eigenvalues --   -7.71477  -7.71073  -7.71069  -1.16221  -1.13761
 Alpha  occ. eigenvalues --   -1.09801  -1.03557  -0.92106  -0.87797  -0.73837
 Alpha  occ. eigenvalues --   -0.71235  -0.61700  -0.54939  -0.54219  -0.52801
 Alpha  occ. eigenvalues --   -0.52118  -0.50152  -0.45901  -0.44320  -0.43442
 Alpha  occ. eigenvalues --   -0.42712  -0.41202  -0.39743  -0.39122  -0.38232
 Alpha  occ. eigenvalues --   -0.37405  -0.31513  -0.10310
 Alpha virt. eigenvalues --    0.12342   0.13412   0.14413   0.15272   0.16238
 Alpha virt. eigenvalues --    0.16904   0.17594   0.18162   0.18785   0.19897
 Alpha virt. eigenvalues --    0.21258   0.21532   0.22123   0.22563   0.23123

 Mulliken charges:
               1
     1  C   -0.593796
     2  C   -1.411905
     3  Cl   0.115567
     4  H    0.128461
     5  C   -1.150295
     6  N    0.930326
     7  C   -1.100501
     8  N    0.986771
     9  N    0.734733
    10  H    0.268648
    11  H    0.249094
    12  C   -0.000307
    13  H    0.197103
    14  H    0.253989
    15  H    0.158607
    16  H   -0.766493
 Sum of Mulliken charges =  -1.00000

 Dipole moment (field-independent basis, Debye):
    X=              6.8761    Y=             -5.3048    Z=              9.0856  Tot=             12.5686

 Test job not archived.
 1\1\GINC-SE113\SP\RHF\Aug-CC-pVDZ\C5H7Cl1N3(1-)\OHZDE\09-Apr-2025\0\\#
 t hf aug-cc-pvdz iop(5/13=1,5/36=2,99/5=2) pseudo=read geom=check gues
 s=(read,tcheck) scf=(maxcycle=1)\\title\\-1,1\C,0,-0.56048,-0.031274,-
 1.55391\C,0,0.097852,0.050298,-0.157107\Cl,0,-2.364422,-0.129583,-1.41
 1677\H,0,1.186977,0.110306,-0.333411\C,0,-0.260611,1.148263,-2.372714\
 N,0,0.007287,2.102197,-3.005025\C,0,-0.112221,-1.231609,-2.263874\N,0,
 0.253751,-2.145815,-2.904518\N,0,-0.113143,-1.194866,0.529685\H,0,-0.9
 13446,-1.102601,1.148809\H,0,0.758244,-1.252786,1.138047\C,0,-0.307034

 Normal termination of Gaussian 16 at Wed Apr  9 03:02:11 2025.
