 Gaussian 16, Revision C.01,

 ----------------------------------------------------------------------
 #t hf aug-cc-pvdz symm=none int=(grid=ultrafine) guess=(read,tcheck) s
 table=(opt,rrhf)
 ----------------------------------------------------------------------
 -----
 title
 -----
 Symbolic Z-matrix:
 Charge = -1 Multiplicity = 1

 SCF Done:  E(RHF) =  -1292.94658986     A.U. after   16 cycles
 Normal termination of Gaussian 16 at Wed Apr  9 02:39:44 2025.
 Gaussian 16:  ES64L-G16RevC.01  3-Jul-2019

 ----------------------------------------------------------------------
 #t hf aug-cc-pvdz iop(5/13=1,5/36=2,99/5=2) pseudo=read geom=check gue
 ss=(read,tcheck) scf=(maxcycle=1)
 ----------------------------------------------------------------------
 -----
 title
 -----
 Structure from the checkpoint file:  "E2SN2_174_mol1.chk"
 Charge = -1 Multiplicity = 1

                         Standard orientation:
 ---------------------------------------------------------------------
 Center     Atomic      Atomic             Coordinates (Angstroms)
 Number     Number       Type             X           Y           Z
 ---------------------------------------------------------------------
      1          6           0       -0.577786    0.072185   -0.172394
      2          1           0        0.379228   -1.012352    1.425918
      3         17           0       -0.139598    2.335484   -0.446779
      4         17           0       -0.995706   -2.202855   -0.394402
      5          6           0        0.523672   -0.110298    0.835756
      6          1           0       -0.395982    0.023788   -1.227590
      7          1           0        0.624675    0.755379    1.484502
      8          6           0       -1.888348    0.326444    0.349831
      9          7           0       -2.944576    0.531327    0.826902
     10          7           0        1.858379   -0.274940    0.185128
     11          8           0        2.808914   -0.324462    0.964224
     12          8           0        1.934887   -0.368814   -1.032490
 ---------------------------------------------------------------------

 SCF Done:  E(RHF) =  -1293.46117401     A.U. after    2 cycles

 The electronic state is 1-A.
 Alpha  occ. eigenvalues -- -105.36346-105.36302 -20.49511 -20.48633 -15.68783
 Alpha  occ. eigenvalues --  -15.41809 -11.28365 -11.22365 -11.19696 -10.41107
 Alpha  occ. eigenvalues --  -10.41061  -7.57935  -7.57887  -7.57763  -7.57752
 Alpha  occ. eigenvalues --   -7.57718  -7.57706  -1.56359  -1.40283  -1.12138
 Alpha  occ. eigenvalues --   -1.05961  -0.93985  -0.83272  -0.80343  -0.77399
 Alpha  occ. eigenvalues --   -0.68745  -0.66008  -0.65465  -0.62630  -0.53370
 Alpha  occ. eigenvalues --   -0.52422  -0.50524  -0.43048  -0.40372  -0.38770
 Alpha  occ. eigenvalues --   -0.38260  -0.35236  -0.32567  -0.28730  -0.28271
 Alpha  occ. eigenvalues --   -0.28154  -0.27933  -0.25032
 Alpha virt. eigenvalues --    0.13981   0.14747   0.15253   0.15951   0.17214
 Alpha virt. eigenvalues --    0.17993   0.20116   0.21573   0.22045   0.22836
 Alpha virt. eigenvalues --    0.23662   0.24607   0.25895   0.26699   0.26903

 Mulliken charges:
               1
     1  C    0.522513
     2  H    0.250253
     3  Cl  -0.609350
     4  Cl  -0.605786
     5  C    0.018880
     6  H   -0.048107
     7  H    0.212772
     8  C   -1.563407
     9  N    0.918571
    10  N    2.645016
    11  O   -1.436775
    12  O   -1.304579
 Sum of Mulliken charges =  -1.00000

 Dipole moment (field-independent basis, Debye):
    X=              3.0591    Y=             -0.5965    Z=              1.3759  Tot=              3.4069

 Test job not archived.
 1\1\GINC-SE208\SP\RHF\Aug-CC-pVDZ\C3H3Cl2N2O2(1-)\OHZDE\09-Apr-2025\0\
 \#t hf aug-cc-pvdz iop(5/13=1,5/36=2,99/5=2) pseudo=read geom=check gu
 ess=(read,tcheck) scf=(maxcycle=1)\\title\\-1,1\C,0,0.53886501,-0.0602
 0021,0.04961533\H,0,1.56400291,1.81752093,0.31410333\Cl,0,-1.77057912,
 -0.14788142,0.27006608\Cl,0,2.77244713,-0.2829096,-0.55143559\C,0,0.57
 30569,1.44359706,0.06699134\H,0,0.36152379,-0.61413664,-0.8506835\H,0,
 -0.16831704,1.8564661,0.74549894\C,0,0.74531603,-0.72007929,1.30535282
 \N,0,0.92094614,-1.21491109,2.35867527\N,0,0.25401624,2.02770918,-1.27

 Normal termination of Gaussian 16 at Wed Apr  9 02:39:51 2025.
