 Gaussian 16, Revision C.01,

 ----------------------------------------------------------------------
 #t hf aug-cc-pvdz symm=none int=(grid=ultrafine) guess=(read,tcheck) s
 table=(opt,rrhf)
 ----------------------------------------------------------------------
 -----
 title
 -----
 Symbolic Z-matrix:
 Charge = -1 Multiplicity = 1

 SCF Done:  E(RHF) =  -862.481567264     A.U. after   16 cycles
 Normal termination of Gaussian 16 at Wed Apr  9 02:34:11 2025.
 Gaussian 16:  ES64L-G16RevC.01  3-Jul-2019

 ----------------------------------------------------------------------
 #t hf aug-cc-pvdz iop(5/13=1,5/36=2,99/5=2) pseudo=read geom=check gue
 ss=(read,tcheck) scf=(maxcycle=1)
 ----------------------------------------------------------------------
 -----
 title
 -----
 Structure from the checkpoint file:  "E2SN2_108_mol1.chk"
 Charge = -1 Multiplicity = 1

                         Standard orientation:
 ---------------------------------------------------------------------
 Center     Atomic      Atomic             Coordinates (Angstroms)
 Number     Number       Type             X           Y           Z
 ---------------------------------------------------------------------
      1          6           0        0.411973   -0.471224   -0.264271
      2          6           0       -0.671124    0.324939    0.389442
      3         17           0        2.131832    0.165802    0.241458
      4          9           0       -2.554900   -1.230318   -0.309810
      5          1           0       -1.789047   -0.434469   -0.054365
      6          6           0        0.394507   -1.923633    0.184081
      7          1           0        0.572204   -2.001677    1.257504
      8          1           0       -0.596838   -2.320282   -0.043759
      9          1           0        1.167973   -2.495607   -0.334067
     10          6           0        0.359263   -0.361539   -1.776882
     11          1           0        1.153264   -0.954156   -2.238423
     12          1           0       -0.616430   -0.739316   -2.094752
     13          1           0        0.460984    0.676151   -2.097455
     14          7           0       -0.751879    0.271288    1.841696
     15          1           0        0.177263    0.289153    2.254592
     16          1           0       -1.212726   -0.587962    2.112080
     17          6           0       -0.746162    1.679069   -0.091033
     18          7           0       -0.827327    2.776815   -0.516820
 ---------------------------------------------------------------------

 SCF Done:  E(RHF) =  -862.966381126     A.U. after    2 cycles

 The electronic state is 1-A.
 Alpha  occ. eigenvalues -- -105.40475 -26.19508 -15.35480 -15.34694 -11.18304
 Alpha  occ. eigenvalues --  -11.12739 -11.10788 -11.10762 -11.10046 -10.45338
 Alpha  occ. eigenvalues --   -7.62236  -7.61956  -7.61947  -1.28391  -1.07208
 Alpha  occ. eigenvalues --   -1.04222  -0.98429  -0.86141  -0.83178  -0.80371
 Alpha  occ. eigenvalues --   -0.64977  -0.57816  -0.53583  -0.53129  -0.50305
 Alpha  occ. eigenvalues --   -0.46836  -0.46214  -0.44300  -0.43052  -0.41355
 Alpha  occ. eigenvalues --   -0.38779  -0.37739  -0.36197  -0.35915  -0.34893
 Alpha  occ. eigenvalues --   -0.33068  -0.31598  -0.30527  -0.30179  -0.19726
 Alpha virt. eigenvalues --    0.12436   0.12886   0.14037   0.15132   0.16048
 Alpha virt. eigenvalues --    0.16125   0.16830   0.17822   0.18339   0.20097
 Alpha virt. eigenvalues --    0.20852   0.23573   0.23722   0.24974   0.25243

 Mulliken charges:
               1
     1  C   -1.186377
     2  C   -1.202048
     3  Cl  -0.312869
     4  F   -1.056333
     5  H    1.232994
     6  C    0.075665
     7  H    0.127785
     8  H    0.227789
     9  H    0.180536
    10  C    0.103335
    11  H    0.149441
    12  H    0.238045
    13  H    0.255830
    14  N    0.695118
    15  H    0.190164
    16  H    0.237498
    17  C   -1.874569
    18  N    0.917996
 Sum of Mulliken charges =  -1.00000

 Dipole moment (field-independent basis, Debye):
    X=              4.5512    Y=             -4.9816    Z=              0.5771  Tot=              6.7722

 Test job not archived.
 1\1\GINC-SE132\SP\RHF\Aug-CC-pVDZ\C5H9Cl1F1N2(1-)\OHZDE\09-Apr-2025\0\
 \#t hf aug-cc-pvdz iop(5/13=1,5/36=2,99/5=2) pseudo=read geom=check gu
 ess=(read,tcheck) scf=(maxcycle=1)\\title\\-1,1\C,0,-0.15927251,0.0122
 5869,-0.34092349\C,0,-0.0249838,0.0904876,1.1457376\Cl,0,1.53808485,-0
 .20531825,-1.17225795\F,0,-2.51795359,-0.06696136,1.61124988\H,0,-1.40
 692985,0.1174819,1.48176079\C,0,-0.95635597,-1.20801979,-0.77265765\H,
 0,-0.45485476,-2.12784322,-0.46880724\H,0,-1.92810737,-1.15076995,-0.2
 7826125\H,0,-1.07576592,-1.22513879,-1.85862725\C,0,-0.74408761,1.2857

 Normal termination of Gaussian 16 at Wed Apr  9 02:34:21 2025.
