 Gaussian 16, Revision C.01,

 ----------------------------------------------------------------------
 #t hf aug-cc-pvdz symm=none int=(grid=ultrafine) guess=(read,tcheck) s
 table=(opt,rrhf)
 ----------------------------------------------------------------------
 -----
 title
 -----
 Symbolic Z-matrix:
 Charge = -1 Multiplicity = 1

 SCF Done:  E(RHF) =  -1220.26265076     A.U. after   15 cycles
 Normal termination of Gaussian 16 at Wed Apr  9 02:49:33 2025.
 Gaussian 16:  ES64L-G16RevC.01  3-Jul-2019

 ----------------------------------------------------------------------
 #t hf aug-cc-pvdz iop(5/13=1,5/36=2,99/5=2) pseudo=read geom=check gue
 ss=(read,tcheck) scf=(maxcycle=1)
 ----------------------------------------------------------------------
 -----
 title
 -----
 Structure from the checkpoint file:  "E2SN2_279_mol2.chk"
 Charge = -1 Multiplicity = 1

                         Standard orientation:
 ---------------------------------------------------------------------
 Center     Atomic      Atomic             Coordinates (Angstroms)
 Number     Number       Type             X           Y           Z
 ---------------------------------------------------------------------
      1          6           0       -0.598030   -0.398801    0.139584
      2          6           0        0.003949    0.629373   -0.826027
      3         17           0       -2.410938   -0.264036    0.115223
      4          1           0        1.104653    0.527681   -0.751158
      5          1           0       -0.314454    0.417937   -1.850071
      6          6           0       -0.291846   -1.746686   -0.346454
      7          7           0       -0.095670   -2.841659   -0.723837
      8          6           0       -0.094323   -0.202637    1.559781
      9          1           0        0.998508   -0.256869    1.534330
     10          1           0       -0.504275   -0.969931    2.218407
     11          1           0       -0.401540    0.781711    1.918220
     12          6           0       -0.384387    1.989738   -0.473533
     13          7           0       -0.702775    3.086353   -0.200701
     14         17           0        3.169411    0.038194    0.066067
 ---------------------------------------------------------------------

 SCF Done:  E(RHF) =  -1220.71379411     A.U. after    2 cycles

 The electronic state is 1-A.
 Alpha  occ. eigenvalues -- -105.48088-105.28901 -15.43075 -15.41803 -11.27066
 Alpha  occ. eigenvalues --  -11.19914 -11.19184 -11.18600 -11.14603 -10.52942
 Alpha  occ. eigenvalues --  -10.33495  -7.69879  -7.69504  -7.69501  -7.50265
 Alpha  occ. eigenvalues --   -7.50234  -7.50218  -1.13885  -1.12367  -1.07309
 Alpha  occ. eigenvalues --   -0.94217  -0.89783  -0.80378  -0.74311  -0.61885
 Alpha  occ. eigenvalues --   -0.60849  -0.56702  -0.53311  -0.51741  -0.49740
 Alpha  occ. eigenvalues --   -0.48815  -0.45497  -0.44909  -0.41015  -0.40033
 Alpha  occ. eigenvalues --   -0.38817  -0.38591  -0.37080  -0.36485  -0.21447
 Alpha  occ. eigenvalues --   -0.21252  -0.21115
 Alpha virt. eigenvalues --    0.12272   0.12883   0.14503   0.15647   0.16930
 Alpha virt. eigenvalues --    0.17527   0.17584   0.19122   0.21512   0.21676
 Alpha virt. eigenvalues --    0.22243   0.23198   0.23409   0.24208   0.24603

 Mulliken charges:
               1
     1  C   -1.396585
     2  C    0.848674
     3  Cl  -0.013689
     4  H    0.243627
     5  H    0.216069
     6  C   -1.430999
     7  N    1.030041
     8  C    0.421930
     9  H    0.286418
    10  H    0.186555
    11  H    0.246183
    12  C   -1.619046
    13  N    0.931884
    14  Cl  -0.951063
 Sum of Mulliken charges =  -1.00000

 Dipole moment (field-independent basis, Debye):
    X=             -9.5762    Y=             -0.5853    Z=              0.6015  Tot=              9.6130

 Test job not archived.
 1\1\GINC-SE412\SP\RHF\Aug-CC-pVDZ\C5H5Cl2N2(1-)\OHZDE\09-Apr-2025\0\\#
 t hf aug-cc-pvdz iop(5/13=1,5/36=2,99/5=2) pseudo=read geom=check gues
 s=(read,tcheck) scf=(maxcycle=1)\\title\\-1,1\C,0,0.032378,0.007472,0.
 023888\C,0,-0.562096,-0.163365,-1.379444\Cl,0,1.846222,-0.069959,-0.07
 2887\H,0,-1.663512,-0.139727,-1.261884\H,0,-0.245273,0.658385,-2.02682
 5\C,0,-0.283661,1.350871,0.515999\N,0,-0.487844,2.431279,0.929395\C,0,
 -0.469845,-1.058143,0.983782\H,0,-1.563043,-1.006373,0.994013\H,0,-0.0
 65494,-0.891053,1.983367\H,0,-0.155433,-2.040988,0.627463\C,0,-0.16381

 Normal termination of Gaussian 16 at Wed Apr  9 02:49:40 2025.
