 Gaussian 16, Revision C.01,

 ----------------------------------------------------------------------
 #t hf aug-cc-pvdz symm=none int=(grid=ultrafine) guess=(read,tcheck) s
 table=(opt,rrhf)
 ----------------------------------------------------------------------
 -----
 title
 -----
 Symbolic Z-matrix:
 Charge = -1 Multiplicity = 1

 SCF Done:  E(RHF) =  -575.119519321     A.U. after   16 cycles
 Normal termination of Gaussian 16 at Wed Apr  9 02:41:14 2025.
 Gaussian 16:  ES64L-G16RevC.01  3-Jul-2019

 ----------------------------------------------------------------------
 #t hf aug-cc-pvdz iop(5/13=1,5/36=2,99/5=2) pseudo=read geom=check gue
 ss=(read,tcheck) scf=(maxcycle=1)
 ----------------------------------------------------------------------
 -----
 title
 -----
 Structure from the checkpoint file:  "E2SN2_197_mol1.chk"
 Charge = -1 Multiplicity = 1

                         Standard orientation:
 ---------------------------------------------------------------------
 Center     Atomic      Atomic             Coordinates (Angstroms)
 Number     Number       Type             X           Y           Z
 ---------------------------------------------------------------------
      1          6           0       -1.062360   -0.148070    0.336867
      2          1           0       -0.228546    0.715730   -1.393007
      3          9           0        0.085424   -0.986406    1.479711
      4          9           0       -2.263804    0.809168   -0.541356
      5          6           0        0.057769    0.620379   -0.347008
      6          1           0       -1.477790    0.268627    1.240847
      7          7           0       -1.506686   -1.380964   -0.231591
      8          1           0       -2.506189   -1.301672   -0.348781
      9          1           0       -1.263692   -2.096886    0.437123
     10          7           0        1.353547   -0.145068   -0.396965
     11          8           0        2.316028    0.262263    0.251376
     12          8           0        1.395397   -1.107542   -1.158148
     13          6           0        0.263908    1.962437    0.315891
     14          1           0       -0.689089    2.487976    0.263914
     15          1           0        0.555635    1.807806    1.354653
     16          1           0        1.039756    2.549536   -0.180369
 ---------------------------------------------------------------------

 SCF Done:  E(RHF) =  -575.682963329     A.U. after    2 cycles

 The electronic state is 1-A.
 Alpha  occ. eigenvalues --  -26.17433 -26.15144 -20.43092 -20.42975 -15.62666
 Alpha  occ. eigenvalues --  -15.33904 -11.22118 -11.15639 -11.10092  -1.50298
 Alpha  occ. eigenvalues --   -1.34028  -1.26347  -1.23570  -1.04051  -0.98543
 Alpha  occ. eigenvalues --   -0.83232  -0.76343  -0.67836  -0.60843  -0.58856
 Alpha  occ. eigenvalues --   -0.58281  -0.55658  -0.54456  -0.47730  -0.44308
 Alpha  occ. eigenvalues --   -0.41658  -0.39890  -0.38331  -0.35048  -0.33694
 Alpha  occ. eigenvalues --   -0.33134  -0.32270  -0.31837  -0.31445  -0.29535
 Alpha  occ. eigenvalues --   -0.28334  -0.27014
 Alpha virt. eigenvalues --    0.13264   0.14325   0.14474   0.15435   0.16319
 Alpha virt. eigenvalues --    0.17020   0.17470   0.21915   0.23049   0.23677
 Alpha virt. eigenvalues --    0.24226   0.26218   0.26634   0.27104   0.27751

 Mulliken charges:
               1
     1  C   -0.275723
     2  H    0.225561
     3  F   -0.982389
     4  F   -0.946866
     5  C   -0.847255
     6  H   -0.046259
     7  N    0.601152
     8  H    0.267074
     9  H    0.295391
    10  N    3.189369
    11  O   -1.525815
    12  O   -1.557495
    13  C   -0.132522
    14  H    0.266089
    15  H    0.320733
    16  H    0.148954
 Sum of Mulliken charges =  -1.00000

 Dipole moment (field-independent basis, Debye):
    X=             -0.2914    Y=              2.1871    Z=             -0.3674  Tot=              2.2368

 Test job not archived.
 1\1\GINC-SE253\SP\RHF\Aug-CC-pVDZ\C3H7F2N2O2(1-)\OHZDE\09-Apr-2025\0\\
 #t hf aug-cc-pvdz iop(5/13=1,5/36=2,99/5=2) pseudo=read geom=check gue
 ss=(read,tcheck) scf=(maxcycle=1)\\title\\-1,1\C,0,0.51364574,-0.06521
 425,0.05644511\H,0,1.67494941,1.64978009,0.43595509\F,0,-1.23422279,-0
 .01329692,0.57467877\F,0,2.10737857,-0.19278589,-0.70170514\C,0,0.6553
 0561,1.44796277,0.11226129\H,0,0.1145355,-0.49898896,-0.84685355\N,0,0
 .89940098,-0.84132482,1.1919819\H,0,1.55103029,-1.53669719,0.85902038\
 H,0,0.05032673,-1.26064064,1.54128856\N,0,-0.19394337,2.08104236,1.182

 Normal termination of Gaussian 16 at Wed Apr  9 02:41:21 2025.
