 Gaussian 16, Revision C.01,

 ----------------------------------------------------------------------
 #t hf aug-cc-pvdz symm=none int=(grid=ultrafine) guess=(read,tcheck) s
 table=(opt,rrhf)
 ----------------------------------------------------------------------
 -----
 title
 -----
 Symbolic Z-matrix:
 Charge = -1 Multiplicity = 1

 SCF Done:  E(RHF) =  -987.964994459     A.U. after   16 cycles
 Normal termination of Gaussian 16 at Wed Apr  9 02:47:35 2025.
 Gaussian 16:  ES64L-G16RevC.01  3-Jul-2019

 ----------------------------------------------------------------------
 #t hf aug-cc-pvdz iop(5/13=1,5/36=2,99/5=2) pseudo=read geom=check gue
 ss=(read,tcheck) scf=(maxcycle=1)
 ----------------------------------------------------------------------
 -----
 title
 -----
 Structure from the checkpoint file:  "E2SN2_250_mol2.chk"
 Charge = -1 Multiplicity = 1

                         Standard orientation:
 ---------------------------------------------------------------------
 Center     Atomic      Atomic             Coordinates (Angstroms)
 Number     Number       Type             X           Y           Z
 ---------------------------------------------------------------------
      1          6           0       -0.254077   -0.972558    0.275119
      2          6           0       -0.438071    0.399090    0.937983
      3          9           0       -0.165758   -1.905401    1.300004
      4          1           0       -1.259432    0.338338    1.657899
      5          1           0        0.694700   -0.971434   -0.281079
      6          6           0       -1.364446   -1.384663   -0.593866
      7          7           0       -2.211638   -1.797747   -1.293597
      8          7           0       -1.014385    1.388688   -0.114135
      9          8           0       -0.255034    2.210740   -0.613237
     10          8           0       -2.223016    1.297690   -0.334049
     11          7           0        0.773979    0.794770    1.515839
     12          1           0        1.559342    0.682001    0.867370
     13          1           0        0.739405    1.732754    1.887565
     14         17           0        2.887417   -0.214805   -0.748568
 ---------------------------------------------------------------------

 SCF Done:  E(RHF) =  -988.552026308     A.U. after    2 cycles

 The electronic state is 1-A.
 Alpha  occ. eigenvalues -- -105.29540 -26.37531 -20.49613 -20.49002 -15.67790
 Alpha  occ. eigenvalues --  -15.43283 -15.39661 -11.27330 -11.25442 -11.19746
 Alpha  occ. eigenvalues --  -10.34156  -7.50933  -7.50899  -7.50871  -1.56006
 Alpha  occ. eigenvalues --   -1.49891  -1.40200  -1.14080  -1.12906  -0.98220
 Alpha  occ. eigenvalues --   -0.90441  -0.77633  -0.75176  -0.70830  -0.67980
 Alpha  occ. eigenvalues --   -0.65229  -0.64192  -0.61286  -0.60089  -0.57511
 Alpha  occ. eigenvalues --   -0.53129  -0.52473  -0.47693  -0.46183  -0.42162
 Alpha  occ. eigenvalues --   -0.40969  -0.39499  -0.38666  -0.35217  -0.34665
 Alpha  occ. eigenvalues --   -0.22464  -0.22065  -0.21771
 Alpha virt. eigenvalues --    0.11949   0.13502   0.15799   0.16411   0.17971
 Alpha virt. eigenvalues --    0.18536   0.19722   0.20809   0.21674   0.22776
 Alpha virt. eigenvalues --    0.23149   0.23665   0.24366   0.25328   0.25669

 Mulliken charges:
               1
     1  C    2.157533
     2  C   -1.673450
     3  F   -0.835841
     4  H    0.087352
     5  H    0.121568
     6  C   -1.965998
     7  N    0.923422
     8  N    2.757638
     9  O   -1.345982
    10  O   -1.442985
    11  N    0.706929
    12  H    0.171535
    13  H    0.289320
    14  Cl  -0.951041
 Sum of Mulliken charges =  -1.00000

 Dipole moment (field-independent basis, Debye):
    X=             -5.9706    Y=              2.1948    Z=              5.5821  Tot=              8.4632

 Test job not archived.
 1\1\GINC-SE159\SP\RHF\Aug-CC-pVDZ\C3H4Cl1F1N3O2(1-)\OHZDE\09-Apr-2025\
 0\\#t hf aug-cc-pvdz iop(5/13=1,5/36=2,99/5=2) pseudo=read geom=check
 guess=(read,tcheck) scf=(maxcycle=1)\\title\\-1,1\C,0,-0.307084,0.1048
 76,0.002153\C,0,-0.315763,-0.341119,-1.466068\F,0,0.679139,-0.635169,0
 .640967\H,0,0.70467,-0.294621,-1.857423\H,0,-1.279254,-0.14362,0.45234
 2\C,0,0.012174,1.523977,0.207367\N,0,0.272018,2.639946,0.462494\N,0,-1
 .028336,0.749765,-2.314953\O,0,-2.174775,0.534717,-2.690341\O,0,-0.355
 398,1.744682,-2.588317\N,0,-0.882572,-1.618081,-1.553471\H,0,-1.763051

 Normal termination of Gaussian 16 at Wed Apr  9 02:47:43 2025.
