 Gaussian 16, Revision C.01,

 ----------------------------------------------------------------------
 #t hf aug-cc-pvdz symm=none int=(grid=ultrafine) guess=(read,tcheck) s
 table=(opt,rrhf)
 ----------------------------------------------------------------------
 -----
 title
 -----
 Symbolic Z-matrix:
 Charge = -1 Multiplicity = 1

 SCF Done:  E(RHF) =  -1384.65937565     A.U. after   17 cycles
 Normal termination of Gaussian 16 at Wed Apr  9 02:40:34 2025.
 Gaussian 16:  ES64L-G16RevC.01  3-Jul-2019

 ----------------------------------------------------------------------
 #t hf aug-cc-pvdz iop(5/13=1,5/36=2,99/5=2) pseudo=read geom=check gue
 ss=(read,tcheck) scf=(maxcycle=1)
 ----------------------------------------------------------------------
 -----
 title
 -----
 Structure from the checkpoint file:  "E2SN2_176_mol1.chk"
 Charge = -1 Multiplicity = 1

                         Standard orientation:
 ---------------------------------------------------------------------
 Center     Atomic      Atomic             Coordinates (Angstroms)
 Number     Number       Type             X           Y           Z
 ---------------------------------------------------------------------
      1          6           0       -0.726316   -0.123417    0.444016
      2          1           0       -0.334817    1.017302   -1.324311
      3         17           0        1.043785   -1.146961    1.599912
      4         17           0       -2.532820    1.087675   -0.177468
      5          6           0        0.219423    0.657043   -0.455166
      6          1           0       -0.919294    0.226325    1.439139
      7          6           0       -1.275239   -1.379352    0.026340
      8          7           0       -1.754402   -2.410289   -0.278914
      9          7           0        1.327091   -0.170126   -1.090704
     10          8           0        2.467900    0.268359   -1.054366
     11          8           0        0.942527   -1.159914   -1.697005
     12          6           0        0.781039    1.794631    0.260123
     13          7           0        1.183146    2.752308    0.807148
 ---------------------------------------------------------------------

 SCF Done:  E(RHF) =  -1385.25325672     A.U. after    2 cycles

 The electronic state is 1-A.
 Alpha  occ. eigenvalues -- -105.39354-105.36671 -20.50664 -20.50309 -15.70757
 Alpha  occ. eigenvalues --  -15.44471 -15.42351 -11.30787 -11.28703 -11.21335
 Alpha  occ. eigenvalues --  -11.20129 -10.44114 -10.41454  -7.60952  -7.60757
 Alpha  occ. eigenvalues --   -7.60741  -7.58282  -7.58115  -7.58097  -1.58087
 Alpha  occ. eigenvalues --   -1.42212  -1.14936  -1.12556  -1.08566  -0.95804
 Alpha  occ. eigenvalues --   -0.85471  -0.84034  -0.81201  -0.72846  -0.68379
 Alpha  occ. eigenvalues --   -0.67635  -0.64047  -0.62999  -0.55664  -0.52822
 Alpha  occ. eigenvalues --   -0.50895  -0.45001  -0.43435  -0.42305  -0.40759
 Alpha  occ. eigenvalues --   -0.40262  -0.38243  -0.36002  -0.34636  -0.31217
 Alpha  occ. eigenvalues --   -0.30775  -0.29135  -0.28482  -0.26185
 Alpha virt. eigenvalues --    0.13082   0.14286   0.14422   0.15457   0.17040
 Alpha virt. eigenvalues --    0.18283   0.19790   0.20543   0.20851   0.21762
 Alpha virt. eigenvalues --    0.21829   0.22578   0.23365   0.23677   0.24380

 Mulliken charges:
               1
     1  C    1.365185
     2  H    0.247204
     3  Cl  -0.638071
     4  Cl  -0.498214
     5  C   -0.019918
     6  H   -0.154691
     7  C   -2.205045
     8  N    1.060200
     9  N    3.136589
    10  O   -1.475358
    11  O   -1.528428
    12  C   -1.266177
    13  N    0.976723
 Sum of Mulliken charges =  -1.00000

 Dipole moment (field-independent basis, Debye):
    X=              0.5216    Y=              2.0185    Z=             -2.4222  Tot=              3.1959

 Test job not archived.
 1\1\GINC-SE149\SP\RHF\Aug-CC-pVDZ\C4H2Cl2N3O2(1-)\OHZDE\09-Apr-2025\0\
 \#t hf aug-cc-pvdz iop(5/13=1,5/36=2,99/5=2) pseudo=read geom=check gu
 ess=(read,tcheck) scf=(maxcycle=1)\\title\\-1,1\C,0,0.59359356,-0.0601
 747,0.05546833\H,0,1.70192696,1.73979027,0.39194258\Cl,0,-1.75301594,-
 0.03287423,0.15384186\Cl,0,2.76297914,-0.29978517,-0.53849708\C,0,0.68
 377531,1.45644034,0.11723731\H,0,0.35697784,-0.53858093,-0.87456931\C,
 0,0.70604864,-0.85614832,1.24160573\N,0,0.79983305,-1.54864979,2.18884
 127\N,0,-0.14589188,2.10285704,1.21671116\O,0,-0.83396692,3.07108034,0

 Normal termination of Gaussian 16 at Wed Apr  9 02:40:42 2025.
