 Gaussian 16, Revision C.01,

 ----------------------------------------------------------------------
 #t hf aug-cc-pvdz symm=none int=(grid=ultrafine) guess=(read,tcheck) s
 table=(opt,rrhf)
 ----------------------------------------------------------------------
 -----
 title
 -----
 Symbolic Z-matrix:
 Charge = -1 Multiplicity = 1

 SCF Done:  E(RHF) =  -463.399655041     A.U. after   15 cycles
 Normal termination of Gaussian 16 at Wed Apr  9 02:51:06 2025.
 Gaussian 16:  ES64L-G16RevC.01  3-Jul-2019

 ----------------------------------------------------------------------
 #t hf aug-cc-pvdz iop(5/13=1,5/36=2,99/5=2) pseudo=read geom=check gue
 ss=(read,tcheck) scf=(maxcycle=1)
 ----------------------------------------------------------------------
 -----
 title
 -----
 Structure from the checkpoint file:  "E2SN2_298_mol2.chk"
 Charge = -1 Multiplicity = 1

                         Standard orientation:
 ---------------------------------------------------------------------
 Center     Atomic      Atomic             Coordinates (Angstroms)
 Number     Number       Type             X           Y           Z
 ---------------------------------------------------------------------
      1          6           0       -0.473242    0.188934    0.227119
      2          6           0        0.437824    0.611517   -0.917713
      3          9           0       -0.996889    1.393900    0.823608
      4          1           0       -0.146030    1.250688   -1.588408
      5          1           0        0.740530   -0.302546   -1.431311
      6          6           0       -1.712583   -0.447270   -0.314696
      7          7           0       -2.670171   -0.986518   -0.732177
      8          7           0        0.200088   -0.586405    1.161512
      9          1           0       -0.419793   -1.183177    1.690383
     10          1           0        1.056691   -1.107950    0.713627
     11          6           0        1.696684    1.307435   -0.408186
     12          1           0        2.339282    0.533613    0.008924
     13          1           0        2.218878    1.794479   -1.238709
     14          1           0        1.454150    2.062056    0.342874
     15          9           0        2.147419   -1.616167   -0.048260
 ---------------------------------------------------------------------

 SCF Done:  E(RHF) =  -463.855116762     A.U. after    2 cycles

 The electronic state is 1-A.
 Alpha  occ. eigenvalues --  -26.30825 -26.10792 -15.39782 -15.32651 -11.24847
 Alpha  occ. eigenvalues --  -11.16459 -11.10380 -11.08219  -1.42580  -1.17890
 Alpha  occ. eigenvalues --   -1.10299  -1.05775  -0.91291  -0.81168  -0.70012
 Alpha  occ. eigenvalues --   -0.62947  -0.57009  -0.55512  -0.50471  -0.49484
 Alpha  occ. eigenvalues --   -0.46289  -0.44797  -0.43356  -0.40466  -0.38055
 Alpha  occ. eigenvalues --   -0.37129  -0.36814  -0.35452  -0.30555  -0.27255
 Alpha  occ. eigenvalues --   -0.26949  -0.26060
 Alpha virt. eigenvalues --    0.12803   0.14196   0.14453   0.15376   0.17209
 Alpha virt. eigenvalues --    0.18403   0.18987   0.20065   0.21030   0.23248
 Alpha virt. eigenvalues --    0.23856   0.24469   0.25875   0.26266   0.26684

 Mulliken charges:
               1
     1  C    1.279678
     2  C   -0.279267
     3  F   -0.979636
     4  H    0.033641
     5  H    0.259851
     6  C   -2.310251
     7  N    0.968436
     8  N    0.227281
     9  H    0.228801
    10  H    0.420673
    11  C   -0.269423
    12  H    0.240360
    13  H    0.074012
    14  H    0.174136
    15  F   -1.068292
 Sum of Mulliken charges =  -1.00000

 Dipole moment (field-independent basis, Debye):
    X=             -2.1442    Y=              4.6606    Z=             -0.0645  Tot=              5.1305

 Test job not archived.
 1\1\GINC-SE228\SP\RHF\Aug-CC-pVDZ\C4H7F2N2(1-)\OHZDE\09-Apr-2025\0\\#t
  hf aug-cc-pvdz iop(5/13=1,5/36=2,99/5=2) pseudo=read geom=check guess
 =(read,tcheck) scf=(maxcycle=1)\\title\\-1,1\C,0,0.07606,0.099027,0.03
 6216\C,0,-0.399015,0.143654,-1.41001\F,0,1.501675,-0.122192,0.011056\H
 ,0,0.185081,0.911577,-1.928066\H,0,-1.454243,0.420768,-1.384995\C,0,-0
 .010977,1.461598,0.644584\N,0,-0.116465,2.521425,1.142271\N,0,-0.57609
 6,-0.88866,0.762013\H,0,-0.584751,-0.700052,1.754206\H,0,-1.56227,-1.1
 19438,0.337064\C,0,-0.283654,-1.221028,-2.083051\H,0,-1.088044,-1.8385

 Normal termination of Gaussian 16 at Wed Apr  9 02:51:11 2025.
