 Gaussian 16, Revision C.01,

 ----------------------------------------------------------------------
 #t hf aug-cc-pvdz symm=none int=(grid=ultrafine) guess=(read,tcheck) s
 table=(opt,rrhf)
 ----------------------------------------------------------------------
 -----
 title
 -----
 Symbolic Z-matrix:
 Charge = -1 Multiplicity = 1

 SCF Done:  E(RHF) =  -1136.33056164     A.U. after   18 cycles
 Normal termination of Gaussian 16 at Wed Apr  9 02:41:05 2025.
 Gaussian 16:  ES64L-G16RevC.01  3-Jul-2019

 ----------------------------------------------------------------------
 #t hf aug-cc-pvdz iop(5/13=1,5/36=2,99/5=2) pseudo=read geom=check gue
 ss=(read,tcheck) scf=(maxcycle=1)
 ----------------------------------------------------------------------
 -----
 title
 -----
 Structure from the checkpoint file:  "E2SN2_175_mol1.chk"
 Charge = -1 Multiplicity = 1

                         Standard orientation:
 ---------------------------------------------------------------------
 Center     Atomic      Atomic             Coordinates (Angstroms)
 Number     Number       Type             X           Y           Z
 ---------------------------------------------------------------------
      1          6           0        0.830417   -0.519584    0.374879
      2          1           0       -0.347342   -0.714073   -1.423737
      3          9           0       -0.324163   -0.134424    1.935479
      4         17           0        2.129580   -0.977850   -1.180664
      5          6           0       -0.403168   -0.234554   -0.449756
      6          1           0        0.834091   -1.500869    0.818378
      7          6           0        1.624376    0.493231    1.025904
      8          7           0        2.403242    1.233316    1.503152
      9          7           0       -0.680792    1.202093   -0.756152
     10          8           0       -1.305574    1.376385   -1.803613
     11          8           0       -0.317408    2.075496    0.018508
     12          7           0       -1.645071   -0.828259    0.173721
     13          8           0       -2.619229   -0.116096    0.348367
     14          8           0       -1.585733   -2.040333    0.325004
 ---------------------------------------------------------------------

 SCF Done:  E(RHF) =  -1137.04235472     A.U. after    2 cycles

 The electronic state is 1-A.
 Alpha  occ. eigenvalues -- -105.42132 -26.16914 -20.50782 -20.49852 -20.49523
 Alpha  occ. eigenvalues --  -20.48975 -15.70215 -15.70133 -15.39433 -11.29127
 Alpha  occ. eigenvalues --  -11.28874 -11.18270 -10.46923  -7.63794  -7.63541
 Alpha  occ. eigenvalues --   -7.63524  -1.57932  -1.56667  -1.41497  -1.41209
 Alpha  occ. eigenvalues --   -1.25210  -1.11063  -1.09283  -0.96362  -0.91446
 Alpha  occ. eigenvalues --   -0.85002  -0.77126  -0.72387  -0.70414  -0.67971
 Alpha  occ. eigenvalues --   -0.64720  -0.64038  -0.62713  -0.59365  -0.55013
 Alpha  occ. eigenvalues --   -0.48630  -0.45850  -0.42784  -0.40168  -0.40002
 Alpha  occ. eigenvalues --   -0.38958  -0.37492  -0.36455  -0.35769  -0.34401
 Alpha  occ. eigenvalues --   -0.33482  -0.33307  -0.32533  -0.31716  -0.29602
 Alpha virt. eigenvalues --    0.13762   0.14122   0.14606   0.16689   0.17751
 Alpha virt. eigenvalues --    0.18582   0.21347   0.21764   0.22242   0.23282
 Alpha virt. eigenvalues --    0.24048   0.24297   0.24763   0.25259   0.25764

 Mulliken charges:
               1
     1  C    0.902431
     2  H    0.192610
     3  F   -0.861801
     4  Cl  -0.387049
     5  C   -0.544722
     6  H    0.086759
     7  C   -1.711344
     8  N    0.976866
     9  N    3.047182
    10  O   -1.495537
    11  O   -1.373472
    12  N    3.219647
    13  O   -1.501959
    14  O   -1.549610
 Sum of Mulliken charges =  -1.00000

 Dipole moment (field-independent basis, Debye):
    X=             -1.8164    Y=             -2.4362    Z=             -4.3370  Tot=              5.2956

 Test job not archived.
 1\1\GINC-SE042\SP\RHF\Aug-CC-pVDZ\C3H2Cl1F1N3O4(1-)\OHZDE\09-Apr-2025\
 0\\#t hf aug-cc-pvdz iop(5/13=1,5/36=2,99/5=2) pseudo=read geom=check
 guess=(read,tcheck) scf=(maxcycle=1)\\title\\-1,1\C,0,0.78314757,-0.05
 729167,0.06378102\H,0,1.65124916,1.88078488,-0.32379892\F,0,-1.1749783
 3,-0.02259146,-0.22154658\Cl,0,2.83648944,-0.22250528,0.3358842\C,0,0.
 6975903,1.44819275,-0.03209309\H,0,0.75546656,-0.55149255,-0.89257834\
 C,0,0.35305908,-0.82435104,1.20686663\N,0,0.14113365,-1.53794003,2.116
 81328\N,0,0.32580576,2.17416113,1.22076546\O,0,0.76939059,3.32194719,1

 Normal termination of Gaussian 16 at Wed Apr  9 02:41:14 2025.
