 Gaussian 16, Revision C.01,

 ----------------------------------------------------------------------
 #t hf aug-cc-pvdz symm=none int=(grid=ultrafine) guess=(read,tcheck) s
 table=(opt,rrhf)
 ----------------------------------------------------------------------
 -----
 title
 -----
 Symbolic Z-matrix:
 Charge = -1 Multiplicity = 1

 SCF Done:  E(RHF) =  -779.524304200     A.U. after   16 cycles
 Normal termination of Gaussian 16 at Wed Apr  9 02:35:16 2025.
 Gaussian 16:  ES64L-G16RevC.01  3-Jul-2019

 ----------------------------------------------------------------------
 #t hf aug-cc-pvdz iop(5/13=1,5/36=2,99/5=2) pseudo=read geom=check gue
 ss=(read,tcheck) scf=(maxcycle=1)
 ----------------------------------------------------------------------
 -----
 title
 -----
 Structure from the checkpoint file:  "E2SN2_114_mol1.chk"
 Charge = -1 Multiplicity = 1

                         Standard orientation:
 ---------------------------------------------------------------------
 Center     Atomic      Atomic             Coordinates (Angstroms)
 Number     Number       Type             X           Y           Z
 ---------------------------------------------------------------------
      1          6           0        0.589740    0.112893    0.379458
      2          6           0       -0.720919    0.724219   -0.061546
      3         17           0        1.082765   -1.273731   -0.779442
      4          1           0       -0.690648    2.471966    1.746108
      5          1           0       -0.833520    1.592477    0.844696
      6          6           0        1.706919    1.130910    0.347707
      7          1           0        1.888991    1.490696   -0.665053
      8          1           0        1.392432    1.970548    0.979297
      9          1           0        2.617168    0.677612    0.741953
     10          7           0        0.512550   -0.457899    1.706501
     11          1           0       -0.260089   -1.118169    1.725129
     12          1           0        0.238443    0.329450    2.302043
     13          7           0       -0.759293    1.455478   -1.310277
     14          1           0       -0.173186    1.010615   -2.008890
     15          1           0       -0.412852    2.393296   -1.133969
     16          6           0       -1.819136   -0.207009    0.061421
     17          7           0       -2.712311   -0.959171    0.226198
 ---------------------------------------------------------------------

 SCF Done:  E(RHF) =  -779.937840569     A.U. after    2 cycles

 The electronic state is 1-A.
 Alpha  occ. eigenvalues -- -105.41930 -15.37341 -15.37232 -15.37155 -11.21632
 Alpha  occ. eigenvalues --  -11.14643 -11.13616 -11.11078 -10.46818  -7.63723
 Alpha  occ. eigenvalues --   -7.63415  -7.63410  -1.11704  -1.07504  -1.05757
 Alpha  occ. eigenvalues --   -0.93524  -0.86524  -0.83916  -0.67716  -0.60534
 Alpha  occ. eigenvalues --   -0.58401  -0.57386  -0.54796  -0.49395  -0.46618
 Alpha  occ. eigenvalues --   -0.44326  -0.43048  -0.42661  -0.38212  -0.37279
 Alpha  occ. eigenvalues --   -0.35336  -0.34173  -0.32508  -0.32318  -0.30069
 Alpha  occ. eigenvalues --   -0.11845
 Alpha virt. eigenvalues --    0.12664   0.13288   0.14806   0.15353   0.15847
 Alpha virt. eigenvalues --    0.16944   0.17771   0.18445   0.18737   0.20605
 Alpha virt. eigenvalues --    0.22174   0.23405   0.24072   0.24913   0.25303

 Mulliken charges:
               1
     1  C   -2.496123
     2  C   -0.480854
     3  Cl  -0.165853
     4  H   -0.374795
     5  H    0.135620
     6  C    0.340016
     7  H    0.165318
     8  H    0.233878
     9  H    0.201909
    10  N    0.889437
    11  H    0.255269
    12  H    0.242727
    13  N    0.623663
    14  H    0.208640
    15  H    0.282719
    16  C   -2.075193
    17  N    1.013623
 Sum of Mulliken charges =  -1.00000

 Dipole moment (field-independent basis, Debye):
    X=              5.8778    Y=             -2.1588    Z=             -4.0071  Tot=              7.4341

 Test job not archived.
 1\1\GINC-SE041\SP\RHF\Aug-CC-pVDZ\C4H9Cl1N3(1-)\OHZDE\09-Apr-2025\0\\#
 t hf aug-cc-pvdz iop(5/13=1,5/36=2,99/5=2) pseudo=read geom=check gues
 s=(read,tcheck) scf=(maxcycle=1)\\title\\-1,1\C,0,-0.17932808,-0.01144
 487,-0.32455971\C,0,-0.0911844,0.04327476,1.18383895\Cl,0,1.53257285,-
 0.15741201,-1.07084286\H,0,-2.58751938,0.09807646,1.48125605\H,0,-1.32
 161064,0.14241154,1.43691804\C,0,-0.96384917,-1.21938543,-0.78375524\H
 ,0,-0.47058871,-2.14766785,-0.49519695\H,0,-1.94634831,-1.16557093,-0.
 29940097\H,0,-1.07152781,-1.18653424,-1.86855417\N,0,-0.7803266,1.1792

 Normal termination of Gaussian 16 at Wed Apr  9 02:35:25 2025.
