 Gaussian 16, Revision C.01,

 ----------------------------------------------------------------------
 #t hf aug-cc-pvdz symm=none int=(grid=ultrafine) guess=(read,tcheck) s
 table=(opt,rrhf)
 ----------------------------------------------------------------------
 -----
 title
 -----
 Symbolic Z-matrix:
 Charge = -1 Multiplicity = 1

 SCF Done:  E(RHF) =  -779.529107916     A.U. after   16 cycles
 Normal termination of Gaussian 16 at Wed Apr  9 03:02:20 2025.
 Gaussian 16:  ES64L-G16RevC.01  3-Jul-2019

 ----------------------------------------------------------------------
 #t hf aug-cc-pvdz iop(5/13=1,5/36=2,99/5=2) pseudo=read geom=check gue
 ss=(read,tcheck) scf=(maxcycle=1)
 ----------------------------------------------------------------------
 -----
 title
 -----
 Structure from the checkpoint file:  "E2SN2_75_mol2.chk"
 Charge = -1 Multiplicity = 1

                         Standard orientation:
 ---------------------------------------------------------------------
 Center     Atomic      Atomic             Coordinates (Angstroms)
 Number     Number       Type             X           Y           Z
 ---------------------------------------------------------------------
      1          6           0        0.357466    0.114868    0.320099
      2          6           0       -1.065096   -0.450362    0.180478
      3         17           0        1.560444   -1.145893   -0.197874
      4          1           0       -1.133274   -1.305107    0.871431
      5          6           0        0.541805    1.266566   -0.564923
      6          7           0        0.702516    2.228058   -1.220673
      7          6           0        0.672662    0.494748    1.759105
      8          1           0        1.689898    0.881593    1.845750
      9          1           0        0.569033   -0.392931    2.386405
     10          1           0       -0.056450    1.237451    2.079129
     11          7           0       -1.367234   -0.816522   -1.194031
     12          1           0       -2.333162   -1.165964   -1.106127
     13          1           0       -0.797065   -1.613629   -1.464352
     14          7           0       -2.004593    0.541402    0.658234
     15          1           0       -2.875780   -0.024178    0.742516
     16          1           0       -2.172817    1.165048   -0.129875
     17          1           0       -3.773770   -1.527581    0.265702
 ---------------------------------------------------------------------

 SCF Done:  E(RHF) =  -779.940325981     A.U. after    2 cycles

 The electronic state is 1-A.
 Alpha  occ. eigenvalues -- -105.46850 -15.41765 -15.34840 -15.34174 -11.23986
 Alpha  occ. eigenvalues --  -11.18862 -11.17427 -11.14816 -10.51699  -7.68634
 Alpha  occ. eigenvalues --   -7.68273  -7.68269  -1.13227  -1.10633  -1.02973
 Alpha  occ. eigenvalues --   -0.99370  -0.90421  -0.81321  -0.74238  -0.59219
 Alpha  occ. eigenvalues --   -0.58760  -0.55286  -0.54553  -0.51117  -0.49037
 Alpha  occ. eigenvalues --   -0.47734  -0.45467  -0.44286  -0.43377  -0.39003
 Alpha  occ. eigenvalues --   -0.38177  -0.36091  -0.36013  -0.32535  -0.31207
 Alpha  occ. eigenvalues --   -0.10065
 Alpha virt. eigenvalues --    0.11649   0.13332   0.14045   0.14476   0.16101
 Alpha virt. eigenvalues --    0.16760   0.17342   0.18180   0.19361   0.20472
 Alpha virt. eigenvalues --    0.21475   0.21866   0.22902   0.24042   0.24488

 Mulliken charges:
               1
     1  C   -1.178963
     2  C   -2.171444
     3  Cl  -0.022407
     4  H    0.029428
     5  C   -1.544459
     6  N    1.053723
     7  C    0.315657
     8  H    0.187128
     9  H    0.233788
    10  H    0.359518
    11  N    0.847292
    12  H    0.204806
    13  H    0.202903
    14  N    0.679634
    15  H    0.261065
    16  H    0.364396
    17  H   -0.822066
 Sum of Mulliken charges =  -1.00000

 Dipole moment (field-independent basis, Debye):
    X=             11.9168    Y=              1.7018    Z=              1.9202  Tot=             12.1899

 Test job not archived.
 1\1\GINC-SE060\SP\RHF\Aug-CC-pVDZ\C4H9Cl1N3(1-)\OHZDE\09-Apr-2025\0\\#
 t hf aug-cc-pvdz iop(5/13=1,5/36=2,99/5=2) pseudo=read geom=check gues
 s=(read,tcheck) scf=(maxcycle=1)\\title\\-1,1\C,0,-0.510787,0.057829,-
 1.576683\C,0,0.193679,-0.027841,-0.213214\Cl,0,-0.255245,-1.495644,-2.
 485744\H,0,1.269256,-0.139686,-0.421246\C,0,-1.955807,0.213267,-1.3994
 56\N,0,-3.111137,0.396473,-1.290134\C,0,0.0452,1.190589,-2.426465\H,0,
 -0.454418,1.231074,-3.396346\H,0,1.113657,1.023502,-2.577131\H,0,-0.09
 0327,2.121365,-1.877908\N,0,-0.33471,-1.111817,0.599459\H,0,0.235077,-

 Normal termination of Gaussian 16 at Wed Apr  9 03:02:28 2025.
