 Gaussian 16, Revision C.01,

 ----------------------------------------------------------------------
 #t hf aug-cc-pvdz symm=none int=(grid=ultrafine) guess=(read,tcheck) s
 table=(opt,rrhf)
 ----------------------------------------------------------------------
 -----
 title
 -----
 Symbolic Z-matrix:
 Charge = -1 Multiplicity = 1

 SCF Done:  E(RHF) =  -915.207677721     A.U. after   16 cycles
 Normal termination of Gaussian 16 at Wed Apr  9 02:49:57 2025.
 Gaussian 16:  ES64L-G16RevC.01  3-Jul-2019

 ----------------------------------------------------------------------
 #t hf aug-cc-pvdz iop(5/13=1,5/36=2,99/5=2) pseudo=read geom=check gue
 ss=(read,tcheck) scf=(maxcycle=1)
 ----------------------------------------------------------------------
 -----
 title
 -----
 Structure from the checkpoint file:  "E2SN2_274_mol2.chk"
 Charge = -1 Multiplicity = 1

                         Standard orientation:
 ---------------------------------------------------------------------
 Center     Atomic      Atomic             Coordinates (Angstroms)
 Number     Number       Type             X           Y           Z
 ---------------------------------------------------------------------
      1          6           0       -0.851569    0.226383    0.213176
      2          6           0       -0.736473   -0.599645   -1.124119
      3          9           0       -2.236783    0.287033    0.498039
      4          1           0       -1.725681   -0.422406   -1.564240
      5          6           0       -0.265632   -0.383831    1.415308
      6          7           0       -0.132003   -0.926682    2.450604
      7          6           0       -0.426307    1.617786    0.011822
      8          7           0       -0.273142    2.760080   -0.215559
      9          6           0       -0.575041   -2.077036   -0.804017
     10          1           0        0.419901   -2.247868   -0.387616
     11          1           0       -1.325242   -2.415820   -0.084650
     12          1           0       -0.676701   -2.647863   -1.728605
     13          7           0        0.253654   -0.185175   -2.087716
     14          1           0        0.072235    0.768758   -2.380354
     15          1           0        1.165367   -0.184008   -1.625578
     16         17           0        2.375984    0.019200    0.234374
 ---------------------------------------------------------------------

 SCF Done:  E(RHF) =  -915.730227783     A.U. after    2 cycles

 The electronic state is 1-A.
 Alpha  occ. eigenvalues -- -105.29186 -26.37920 -15.42573 -15.41009 -15.36577
 Alpha  occ. eigenvalues --  -11.30388 -11.19511 -11.18527 -11.18468 -11.12214
 Alpha  occ. eigenvalues --  -10.33864  -7.50636  -7.50602  -7.50578  -1.49945
 Alpha  occ. eigenvalues --   -1.12830  -1.11000  -1.08782  -0.96371  -0.88986
 Alpha  occ. eigenvalues --   -0.76095  -0.74568  -0.71343  -0.63445  -0.60541
 Alpha  occ. eigenvalues --   -0.58647  -0.53248  -0.52037  -0.50656  -0.49944
 Alpha  occ. eigenvalues --   -0.48913  -0.44055  -0.43611  -0.40777  -0.40637
 Alpha  occ. eigenvalues --   -0.39225  -0.38795  -0.38421  -0.32858  -0.22181
 Alpha  occ. eigenvalues --   -0.21817  -0.21594
 Alpha virt. eigenvalues --    0.11783   0.12865   0.13555   0.14932   0.16736
 Alpha virt. eigenvalues --    0.18066   0.18260   0.19153   0.19697   0.21959
 Alpha virt. eigenvalues --    0.22484   0.22965   0.23621   0.24042   0.24377

 Mulliken charges:
               1
     1  C    2.226144
     2  C   -1.956746
     3  F   -0.957952
     4  H    0.096501
     5  C   -1.757566
     6  N    1.033164
     7  C   -1.937190
     8  N    1.057567
     9  C    0.179636
    10  H    0.331164
    11  H    0.256888
    12  H    0.067949
    13  N    0.749819
    14  H    0.302170
    15  H    0.228341
    16  Cl  -0.919890
 Sum of Mulliken charges =  -1.00000

 Dipole moment (field-independent basis, Debye):
    X=             -7.7690    Y=             -1.9023    Z=             -3.3287  Tot=              8.6635

 Test job not archived.
 1\1\GINC-SE131\SP\RHF\Aug-CC-pVDZ\C5H6Cl1F1N3(1-)\OHZDE\09-Apr-2025\0\
 \#t hf aug-cc-pvdz iop(5/13=1,5/36=2,99/5=2) pseudo=read geom=check gu
 ess=(read,tcheck) scf=(maxcycle=1)\\title\\-1,1\C,0,-0.1248,0.005946,-
 0.000164\C,0,-0.450072,0.191137,-1.531121\F,0,1.278571,0.157557,0.1057
 02\H,0,0.509145,-0.089973,-1.983374\C,0,-0.664326,1.022616,0.91422\N,0
 ,-0.763681,1.93748,1.647388\C,0,-0.40998,-1.366914,0.437237\N,0,-0.455
 711,-2.507374,0.715191\C,0,-0.744455,1.654137,-1.821258\H,0,-1.710768,
 1.919196,-1.387133\H,0,0.025216,2.308562,-1.403646\H,0,-0.789924,1.793

 Normal termination of Gaussian 16 at Wed Apr  9 02:50:06 2025.
