 Gaussian 16, Revision C.01,

 ----------------------------------------------------------------------
 #t hf aug-cc-pvdz symm=none int=(grid=ultrafine) guess=(read,tcheck) s
 table=(opt,rrhf)
 ----------------------------------------------------------------------
 -----
 title
 -----
 Symbolic Z-matrix:
 Charge = -1 Multiplicity = 1

 SCF Done:  E(RHF) =  -984.675546817     A.U. after   17 cycles
 Normal termination of Gaussian 16 at Wed Apr  9 02:36:35 2025.
 Gaussian 16:  ES64L-G16RevC.01  3-Jul-2019

 ----------------------------------------------------------------------
 #t hf aug-cc-pvdz iop(5/13=1,5/36=2,99/5=2) pseudo=read geom=check gue
 ss=(read,tcheck) scf=(maxcycle=1)
 ----------------------------------------------------------------------
 -----
 title
 -----
 Structure from the checkpoint file:  "E2SN2_127_mol2.chk"
 Charge = -1 Multiplicity = 1

                         Standard orientation:
 ---------------------------------------------------------------------
 Center     Atomic      Atomic             Coordinates (Angstroms)
 Number     Number       Type             X           Y           Z
 ---------------------------------------------------------------------
      1          6           0       -0.026755   -0.201189    0.022209
      2          6           0       -0.864857   -0.947878   -0.950242
      3         17           0       -0.324250   -0.654511    1.689392
      4          1           0       -0.811439   -2.033273   -0.765525
      5          1           0       -0.459602   -0.758105   -1.947568
      6          7           0        1.477662   -0.364864   -0.230645
      7          8           0        1.828972   -1.170843   -1.080512
      8          8           0        2.211259    0.334965    0.460090
      9          7           0       -0.231777    1.311564   -0.150751
     10          8           0       -0.960154    1.910761    0.629040
     11          8           0        0.280289    1.774303   -1.168642
     12          6           0       -2.337043   -0.573661   -0.872431
     13          1           0       -2.550607    0.420694   -1.278017
     14          1           0       -2.886416   -1.329529   -1.438359
     15          1           0       -2.701702   -0.620299    0.155320
     16          1           0       -1.310168   -3.636814   -0.692770
 ---------------------------------------------------------------------

 SCF Done:  E(RHF) =  -985.264494079     A.U. after    2 cycles

 The electronic state is 1-A.
 Alpha  occ. eigenvalues -- -105.49813 -20.52211 -20.51666 -20.51512 -20.50684
 Alpha  occ. eigenvalues --  -15.71415 -15.70959 -11.33764 -11.12476 -11.12133
 Alpha  occ. eigenvalues --  -10.54686  -7.71660  -7.71211  -7.71189  -1.59335
 Alpha  occ. eigenvalues --   -1.57992  -1.43119  -1.42481  -1.13561  -0.96855
 Alpha  occ. eigenvalues --   -0.93968  -0.91848  -0.79099  -0.74739  -0.72950
 Alpha  occ. eigenvalues --   -0.67792  -0.66711  -0.66154  -0.64119  -0.60337
 Alpha  occ. eigenvalues --   -0.52140  -0.50527  -0.45946  -0.44111  -0.42968
 Alpha  occ. eigenvalues --   -0.41277  -0.40638  -0.39620  -0.39271  -0.38437
 Alpha  occ. eigenvalues --   -0.37471  -0.36816  -0.35722  -0.08526
 Alpha virt. eigenvalues --    0.12695   0.13252   0.13868   0.14282   0.15522
 Alpha virt. eigenvalues --    0.15736   0.17922   0.19798   0.20834   0.21783
 Alpha virt. eigenvalues --    0.22341   0.23724   0.23995   0.24595   0.25540

 Mulliken charges:
               1
     1  C   -1.521626
     2  C    0.044722
     3  Cl   0.131004
     4  H   -0.000071
     5  H    0.303083
     6  N    3.302310
     7  O   -1.429984
     8  O   -1.613889
     9  N    3.297159
    10  O   -1.463462
    11  O   -1.627544
    12  C   -0.289852
    13  H    0.199057
    14  H    0.154094
    15  H    0.225052
    16  H   -0.710051
 Sum of Mulliken charges =  -1.00000

 Dipole moment (field-independent basis, Debye):
    X=              2.2909    Y=             11.3659    Z=              2.4456  Tot=             11.8496

 Test job not archived.
 1\1\GINC-SE227\SP\RHF\Aug-CC-pVDZ\C3H6Cl1N2O4(1-)\OHZDE\09-Apr-2025\0\
 \#t hf aug-cc-pvdz iop(5/13=1,5/36=2,99/5=2) pseudo=read geom=check gu
 ess=(read,tcheck) scf=(maxcycle=1)\\title\\-1,1\C,0,-0.518733,0.101819
 ,-1.427743\C,0,0.019556,-0.031347,-0.050016\Cl,0,0.17416,1.44317,-2.31
 8911\H,0,1.121773,-0.01885,-0.054075\H,0,-0.302392,-1.001825,0.336542\
 N,0,-0.315843,-1.159802,-2.276946\O,0,0.364379,-2.060672,-1.806813\O,0
 ,-0.857825,-1.151717,-3.377505\N,0,-2.048707,0.236454,-1.390025\O,0,-2
 .556387,1.342724,-1.516809\O,0,-2.637293,-0.804943,-1.104545\C,0,-0.41

 Normal termination of Gaussian 16 at Wed Apr  9 02:36:43 2025.
