 Gaussian 16, Revision C.01,

 ----------------------------------------------------------------------
 #t hf aug-cc-pvdz symm=none int=(grid=ultrafine) guess=(read,tcheck) s
 table=(opt,rrhf)
 ----------------------------------------------------------------------
 -----
 title
 -----
 Symbolic Z-matrix:
 Charge = -1 Multiplicity = 1

 SCF Done:  E(RHF) =  -740.488578791     A.U. after   15 cycles
 Normal termination of Gaussian 16 at Wed Apr  9 02:33:12 2025.
 Gaussian 16:  ES64L-G16RevC.01  3-Jul-2019

 ----------------------------------------------------------------------
 #t hf aug-cc-pvdz iop(5/13=1,5/36=2,99/5=2) pseudo=read geom=check gue
 ss=(read,tcheck) scf=(maxcycle=1)
 ----------------------------------------------------------------------
 -----
 title
 -----
 Structure from the checkpoint file:  "E2SN2_107_mol2.chk"
 Charge = -1 Multiplicity = 1

                         Standard orientation:
 ---------------------------------------------------------------------
 Center     Atomic      Atomic             Coordinates (Angstroms)
 Number     Number       Type             X           Y           Z
 ---------------------------------------------------------------------
      1          6           0        0.306336    0.149074    0.529071
      2          6           0       -0.863401   -0.800321    0.213397
      3         17           0        0.237847    1.664239   -0.427251
      4          1           0       -0.717434   -1.613955    0.946274
      5          1           0        0.107787    0.418733    1.618994
      6          6           0        1.589733   -0.491793    0.325029
      7          7           0        2.603072   -1.072430    0.174945
      8          7           0       -0.846369   -1.243197   -1.173033
      9          1           0       -0.016841   -1.801015   -1.345480
     10          1           0       -1.660633   -1.834095   -1.298294
     11          7           0       -2.153151   -0.225330    0.503841
     12          1           0       -2.247166    0.609327   -0.067728
     13          1           0       -2.086920    0.084114    1.484126
     14          1           0       -0.843072    0.489769    2.980111
 ---------------------------------------------------------------------

 SCF Done:  E(RHF) =  -740.857232938     A.U. after    2 cycles

 The electronic state is 1-A.
 Alpha  occ. eigenvalues -- -105.44309 -15.40582 -15.37793 -15.35043 -11.18957
 Alpha  occ. eigenvalues --  -11.18194 -11.17911 -10.49132  -7.66080  -7.65717
 Alpha  occ. eigenvalues --   -7.65685  -1.12483  -1.10404  -1.01599  -0.98854
 Alpha  occ. eigenvalues --   -0.85134  -0.72627  -0.60971  -0.60073  -0.58663
 Alpha  occ. eigenvalues --   -0.50006  -0.49702  -0.48349  -0.47011  -0.44462
 Alpha  occ. eigenvalues --   -0.38916  -0.37632  -0.34513  -0.33914  -0.32402
 Alpha  occ. eigenvalues --   -0.30310  -0.10492
 Alpha virt. eigenvalues --    0.12379   0.14720   0.15147   0.15290   0.17150
 Alpha virt. eigenvalues --    0.18418   0.18945   0.20260   0.21841   0.23195
 Alpha virt. eigenvalues --    0.24052   0.24329   0.25069   0.25720   0.26008

 Mulliken charges:
               1
     1  C    0.345338
     2  C   -2.480822
     3  Cl  -0.059638
     4  H    0.080048
     5  H    0.378798
     6  C   -1.518930
     7  N    0.834349
     8  N    0.566917
     9  H    0.160463
    10  H    0.146851
    11  N    0.775625
    12  H    0.293568
    13  H    0.213826
    14  H   -0.736391
 Sum of Mulliken charges =  -1.00000

 Dipole moment (field-independent basis, Debye):
    X=             -0.1244    Y=             -1.3993    Z=             -8.5582  Tot=              8.6727

 Test job not archived.
 1\1\GINC-SE108\SP\RHF\Aug-CC-pVDZ\C3H7Cl1N3(1-)\OHZDE\09-Apr-2025\0\\#
 t hf aug-cc-pvdz iop(5/13=1,5/36=2,99/5=2) pseudo=read geom=check gues
 s=(read,tcheck) scf=(maxcycle=1)\\title\\-1,1\C,0,-0.096055,-0.042949,
 -1.378718\C,0,0.026125,-0.227652,0.144516\Cl,0,-1.631928,0.751623,-1.8
 52761\H,0,1.048884,-0.629844,0.256857\H,0,0.752821,0.685427,-1.599961\
 C,0,0.033584,-1.301153,-2.085519\N,0,0.179294,-2.345762,-2.609046\N,0,
 -1.013291,-1.099129,0.672493\H,0,-0.90127,-2.034582,0.29647\H,0,-0.875
 255,-1.139399,1.676087\N,0,0.003129,1.018367,0.869317\H,0,-0.883984,1.

 Normal termination of Gaussian 16 at Wed Apr  9 02:33:17 2025.
