 Gaussian 16, Revision C.01,

 ----------------------------------------------------------------------
 #t hf aug-cc-pvdz symm=none int=(grid=ultrafine) guess=(read,tcheck) s
 table=(opt,rrhf)
 ----------------------------------------------------------------------
 -----
 title
 -----
 Symbolic Z-matrix:
 Charge = -1 Multiplicity = 1

 SCF Done:  E(RHF) =  -839.449548707     A.U. after   15 cycles
 Normal termination of Gaussian 16 at Wed Apr  9 02:51:01 2025.
 Gaussian 16:  ES64L-G16RevC.01  3-Jul-2019

 ----------------------------------------------------------------------
 #t hf aug-cc-pvdz iop(5/13=1,5/36=2,99/5=2) pseudo=read geom=check gue
 ss=(read,tcheck) scf=(maxcycle=1)
 ----------------------------------------------------------------------
 -----
 title
 -----
 Structure from the checkpoint file:  "E2SN2_302_mol2.chk"
 Charge = -1 Multiplicity = 1

                         Standard orientation:
 ---------------------------------------------------------------------
 Center     Atomic      Atomic             Coordinates (Angstroms)
 Number     Number       Type             X           Y           Z
 ---------------------------------------------------------------------
      1          6           0        0.336735   -0.095660    0.120456
      2          6           0       -0.165306   -1.170298   -0.873346
      3         17           0        2.170678   -0.266080    0.194017
      4          1           0        0.390258   -2.081082   -0.632068
      5          1           0        0.134022   -0.856625   -1.880322
      6          6           0        0.144272    1.265085   -0.433122
      7          7           0        0.062583    2.342678   -0.895424
      8          7           0       -0.218057   -0.302325    1.416400
      9          1           0        0.208933    0.366471    2.050986
     10          1           0       -1.233517    0.013453    1.279998
     11          7           0       -1.588975   -1.442851   -0.818770
     12          1           0       -1.737218   -2.046659   -0.018252
     13          1           0       -2.086211   -0.578131   -0.542786
     14          9           0       -2.473427    0.614296    0.627199
 ---------------------------------------------------------------------

 SCF Done:  E(RHF) =  -839.904547874     A.U. after    2 cycles

 The electronic state is 1-A.
 Alpha  occ. eigenvalues -- -105.44268 -26.11780 -15.38629 -15.34917 -15.33132
 Alpha  occ. eigenvalues --  -11.24172 -11.15758 -11.14394 -10.49133  -7.66055
 Alpha  occ. eigenvalues --   -7.65706  -7.65701  -1.19109  -1.11290  -1.07680
 Alpha  occ. eigenvalues --   -1.02781  -0.94716  -0.83119  -0.74057  -0.61244
 Alpha  occ. eigenvalues --   -0.57253  -0.54313  -0.52137  -0.48130  -0.44751
 Alpha  occ. eigenvalues --   -0.43511  -0.41819  -0.37857  -0.36292  -0.35358
 Alpha  occ. eigenvalues --   -0.33512  -0.33283  -0.30416  -0.28249  -0.27129
 Alpha  occ. eigenvalues --   -0.26598
 Alpha virt. eigenvalues --    0.13562   0.14761   0.14834   0.15861   0.17413
 Alpha virt. eigenvalues --    0.19005   0.19219   0.20504   0.22023   0.23696
 Alpha virt. eigenvalues --    0.24551   0.24610   0.25664   0.26104   0.26859

 Mulliken charges:
               1
     1  C   -1.482696
     2  C   -0.320795
     3  Cl  -0.013535
     4  H    0.120154
     5  H    0.167411
     6  C   -1.247556
     7  N    0.913289
     8  N    0.593317
     9  H    0.227259
    10  H    0.347764
    11  N    0.301822
    12  H    0.281281
    13  H    0.141240
    14  F   -1.028955
 Sum of Mulliken charges =  -1.00000

 Dipole moment (field-independent basis, Debye):
    X=              6.2111    Y=             -3.6794    Z=              0.5491  Tot=              7.2400

 Test job not archived.
 1\1\GINC-SE462\SP\RHF\Aug-CC-pVDZ\C3H6Cl1F1N3(1-)\OHZDE\09-Apr-2025\0\
 \#t hf aug-cc-pvdz iop(5/13=1,5/36=2,99/5=2) pseudo=read geom=check gu
 ess=(read,tcheck) scf=(maxcycle=1)\\title\\-1,1\C,0,0.000339,0.016255,
 -0.058087\C,0,-0.2,0.385403,-1.547425\Cl,0,1.820448,-0.075419,0.21868\
 H,0,0.508429,-0.233872,-2.105119\H,0,0.103417,1.431339,-1.673693\C,0,-
 0.421126,1.130779,0.822436\N,0,-0.68405,2.036596,1.523841\N,0,-0.59548
 3,-1.243526,0.23843\H,0,-0.360115,-1.484259,1.197053\H,0,-1.640863,-1.
 005563,0.232563\N,0,-1.539549,0.170322,-2.060694\H,0,-1.621674,-0.8225

 Normal termination of Gaussian 16 at Wed Apr  9 02:51:06 2025.
