 Gaussian 16, Revision C.01,

 ----------------------------------------------------------------------
 #t hf aug-cc-pvdz symm=none int=(grid=ultrafine) guess=(read,tcheck) s
 table=(opt,rrhf)
 ----------------------------------------------------------------------
 -----
 title
 -----
 Symbolic Z-matrix:
 Charge = -1 Multiplicity = 1

 SCF Done:  E(RHF) =  -832.220283025     A.U. after   16 cycles
 Normal termination of Gaussian 16 at Wed Apr  9 02:37:08 2025.
 Gaussian 16:  ES64L-G16RevC.01  3-Jul-2019

 ----------------------------------------------------------------------
 #t hf aug-cc-pvdz iop(5/13=1,5/36=2,99/5=2) pseudo=read geom=check gue
 ss=(read,tcheck) scf=(maxcycle=1)
 ----------------------------------------------------------------------
 -----
 title
 -----
 Structure from the checkpoint file:  "E2SN2_138_mol2.chk"
 Charge = -1 Multiplicity = 1

                         Standard orientation:
 ---------------------------------------------------------------------
 Center     Atomic      Atomic             Coordinates (Angstroms)
 Number     Number       Type             X           Y           Z
 ---------------------------------------------------------------------
      1          6           0        0.457606    0.133433    0.396994
      2          6           0       -0.606111   -0.896187   -0.019215
      3         17           0        0.328461    1.579862   -0.745914
      4          1           0       -0.467593   -1.666406    0.759674
      5          7           0        0.354644    0.544613    1.751115
      6          1           0       -0.554722    0.985582    1.874846
      7          1           0        0.300969   -0.395339    2.287552
      8          6           0        1.789726   -0.442984    0.151313
      9          7           0        2.867175   -0.867368   -0.042617
     10          7           0       -0.383979   -1.432311   -1.347673
     11          1           0       -0.885050   -2.305300   -1.452077
     12          1           0       -0.712467   -0.781727   -2.050963
     13          6           0       -1.947579   -0.324936    0.179345
     14          7           0       -3.043405    0.092421    0.267998
     15          1           0        0.012124   -1.871902    2.609125
 ---------------------------------------------------------------------

 SCF Done:  E(RHF) =  -832.669213480     A.U. after    2 cycles

 The electronic state is 1-A.
 Alpha  occ. eigenvalues -- -105.45963 -15.41654 -15.41191 -15.40763 -15.37014
 Alpha  occ. eigenvalues --  -11.27302 -11.20393 -11.18510 -11.17769 -10.50824
 Alpha  occ. eigenvalues --   -7.67747  -7.67392  -7.67386  -1.15580  -1.11833
 Alpha  occ. eigenvalues --   -1.10101  -1.09029  -0.96341  -0.89321  -0.81119
 Alpha  occ. eigenvalues --   -0.64902  -0.63325  -0.60062  -0.57957  -0.55653
 Alpha  occ. eigenvalues --   -0.51185  -0.50074  -0.49295  -0.44616  -0.40936
 Alpha  occ. eigenvalues --   -0.39440  -0.38968  -0.38388  -0.36887  -0.36049
 Alpha  occ. eigenvalues --   -0.35166  -0.33429  -0.12194
 Alpha virt. eigenvalues --    0.11801   0.13941   0.14976   0.16445   0.17019
 Alpha virt. eigenvalues --    0.18018   0.19489   0.20248   0.20621   0.21946
 Alpha virt. eigenvalues --    0.22679   0.22931   0.23106   0.23856   0.24813

 Mulliken charges:
               1
     1  C   -1.670291
     2  C   -0.328162
     3  Cl   0.037412
     4  H    0.243822
     5  N    0.898438
     6  H    0.302872
     7  H    0.085209
     8  C   -1.374473
     9  N    0.978016
    10  N    0.619648
    11  H    0.219910
    12  H    0.173378
    13  C   -1.563520
    14  N    0.987561
    15  H   -0.609821
 Sum of Mulliken charges =  -1.00000

 Dipole moment (field-independent basis, Debye):
    X=             -2.2264    Y=              3.9754    Z=             -8.2935  Tot=              9.4627

 Test job not archived.
 1\1\GINC-SE208\SP\RHF\Aug-CC-pVDZ\C4H6Cl1N4(1-)\OHZDE\09-Apr-2025\0\\#
 t hf aug-cc-pvdz iop(5/13=1,5/36=2,99/5=2) pseudo=read geom=check gues
 s=(read,tcheck) scf=(maxcycle=1)\\title\\-1,1\C,0,-0.194493,0.022035,-
 1.454717\C,0,0.039249,-0.064684,0.062743\Cl,0,-2.008868,0.224817,-1.74
 107\H,0,1.141174,-0.12253,0.101575\N,0,0.539032,1.059295,-2.086655\H,0
 ,0.236278,1.944629,-1.685115\H,0,1.547332,0.900982,-1.722752\C,0,0.155
 407,-1.274411,-2.058005\N,0,0.414711,-2.29843,-2.570601\N,0,-0.579448,
 -1.229762,0.66389\H,0,-0.147688,-1.422636,1.558577\H,0,-1.569269,-1.07

 Normal termination of Gaussian 16 at Wed Apr  9 02:37:16 2025.
