 Gaussian 16, Revision C.01,

 ----------------------------------------------------------------------
 #t hf aug-cc-pvdz symm=none int=(grid=ultrafine) guess=(read,tcheck) s
 table=(opt,rrhf)
 ----------------------------------------------------------------------
 -----
 title
 -----
 Symbolic Z-matrix:
 Charge = -1 Multiplicity = 1

 SCF Done:  E(RHF) =  -403.421664893     A.U. after   16 cycles
 Normal termination of Gaussian 16 at Wed Apr  9 02:59:17 2025.
 Gaussian 16:  ES64L-G16RevC.01  3-Jul-2019

 ----------------------------------------------------------------------
 #t hf aug-cc-pvdz iop(5/13=1,5/36=2,99/5=2) pseudo=read geom=check gue
 ss=(read,tcheck) scf=(maxcycle=1)
 ----------------------------------------------------------------------
 -----
 title
 -----
 Structure from the checkpoint file:  "E2SN2_404_mol1.chk"
 Charge = -1 Multiplicity = 1

                         Standard orientation:
 ---------------------------------------------------------------------
 Center     Atomic      Atomic             Coordinates (Angstroms)
 Number     Number       Type             X           Y           Z
 ---------------------------------------------------------------------
      1          6           0       -0.842738   -0.130155   -0.203809
      2          1           0        0.570253    0.480576   -1.688054
      3          9           0       -0.329923   -0.527250    1.343305
      4          1           0       -1.453761    0.439775   -1.892619
      5          6           0        0.512576    0.495301   -0.600073
      6          7           0       -1.897555    0.713087    0.329517
      7          1           0       -2.212803    0.282464    1.191844
      8          1           0       -2.625635    0.765098   -0.363800
      9          6           0       -1.088497   -1.549955   -0.700817
     10          1           0       -0.565786   -1.722805   -1.641809
     11          1           0       -0.743166   -2.263410    0.055703
     12          1           0       -2.151991   -1.700119   -0.887492
     13          6           0        1.655439   -0.291258   -0.103689
     14          7           0        2.636339   -0.877013    0.174174
     15          6           0        0.614372    1.937356   -0.120484
     16          1           0       -0.192787    2.503390   -0.586012
     17          1           0        0.483980    1.969647    0.960890
     18          1           0        1.582600    2.370382   -0.390996
 ---------------------------------------------------------------------

 SCF Done:  E(RHF) =  -403.833109806     A.U. after    2 cycles

 The electronic state is 1-A.
 Alpha  occ. eigenvalues --  -26.20378 -15.36428 -15.34013 -11.22026 -11.14309
 Alpha  occ. eigenvalues --  -11.13209 -11.09651 -11.08682  -1.29981  -1.07278
 Alpha  occ. eigenvalues --   -1.03980  -0.94126  -0.85304  -0.75713  -0.66864
 Alpha  occ. eigenvalues --   -0.57119  -0.54323  -0.51378  -0.50274  -0.46764
 Alpha  occ. eigenvalues --   -0.44970  -0.42849  -0.41683  -0.40181  -0.38169
 Alpha  occ. eigenvalues --   -0.37058  -0.34441  -0.34329  -0.33945  -0.32824
 Alpha  occ. eigenvalues --   -0.29289  -0.11345
 Alpha virt. eigenvalues --    0.13085   0.13539   0.14062   0.15240   0.15611
 Alpha virt. eigenvalues --    0.15678   0.16095   0.17409   0.18108   0.19751
 Alpha virt. eigenvalues --    0.20531   0.22252   0.24652   0.25365   0.25787

 Mulliken charges:
               1
     1  C   -1.845742
     2  H    0.184277
     3  F   -0.963536
     4  H   -0.480381
     5  C   -0.027198
     6  N    0.743910
     7  H    0.350881
     8  H    0.355460
     9  C   -0.092628
    10  H    0.196302
    11  H    0.355325
    12  H    0.103190
    13  C   -1.816629
    14  N    1.037950
    15  C    0.166072
    16  H    0.275822
    17  H    0.355621
    18  H    0.101306
 Sum of Mulliken charges =  -1.00000

 Dipole moment (field-independent basis, Debye):
    X=             -0.9629    Y=              0.7137    Z=              1.5665  Tot=              1.9724

 Test job not archived.
 1\1\GINC-SE058\SP\RHF\Aug-CC-pVDZ\C5H10F1N2(1-)\OHZDE\09-Apr-2025\0\\#
 t hf aug-cc-pvdz iop(5/13=1,5/36=2,99/5=2) pseudo=read geom=check gues
 s=(read,tcheck) scf=(maxcycle=1)\\title\\-1,1\C,0,0.38782064,-0.089107
 16,0.04914969\H,0,1.70784822,1.58229522,0.24008562\F,0,-1.24629507,0.0
 7707662,0.39013936\H,0,2.19149173,-0.26319894,-0.46729053\C,0,0.645015
 28,1.43369972,0.05153801\N,0,0.08930764,-0.76797129,-1.19911564\H,0,-0
 .75604584,-1.30726916,-1.04758758\H,0,0.88029218,-1.34742857,-1.427297
 92\C,0,0.78071668,-0.83000735,1.3219206\H,0,1.61834385,-0.33315807,1.8

 Normal termination of Gaussian 16 at Wed Apr  9 02:59:25 2025.
