 Gaussian 16, Revision C.01,

 ----------------------------------------------------------------------
 #t hf aug-cc-pvdz symm=none int=(grid=ultrafine) guess=(read,tcheck) s
 table=(opt,rrhf)
 ----------------------------------------------------------------------
 -----
 title
 -----
 Symbolic Z-matrix:
 Charge = -1 Multiplicity = 1

 SCF Done:  E(RHF) =  -1334.28851939     A.U. after   18 cycles
 Normal termination of Gaussian 16 at Wed Apr  9 02:39:37 2025.
 Gaussian 16:  ES64L-G16RevC.01  3-Jul-2019

 ----------------------------------------------------------------------
 #t hf aug-cc-pvdz iop(5/13=1,5/36=2,99/5=2) pseudo=read geom=check gue
 ss=(read,tcheck) scf=(maxcycle=1)
 ----------------------------------------------------------------------
 -----
 title
 -----
 Structure from the checkpoint file:  "E2SN2_14_mol1.chk"
 Charge = -1 Multiplicity = 1

                         Standard orientation:
 ---------------------------------------------------------------------
 Center     Atomic      Atomic             Coordinates (Angstroms)
 Number     Number       Type             X           Y           Z
 ---------------------------------------------------------------------
      1          6           0       -0.430977    0.098769   -0.370085
      2          6           0        0.435668   -0.783455    0.273467
      3         17           0       -2.602795   -0.820141   -0.107278
      4         17           0        3.148326    0.192054   -0.234742
      5          1           0        1.662740   -0.155035   -0.058266
      6          6           0       -0.463814    0.192463   -1.861630
      7          1           0       -1.320248    0.778395   -2.184758
      8          1           0        0.457416    0.673096   -2.210782
      9          1           0       -0.523849   -0.808146   -2.277096
     10          7           0        0.544510   -2.022105   -0.450896
     11          1           0       -0.357561   -2.492446   -0.383694
     12          1           0        1.261313   -2.601560   -0.033329
     13          6           0        0.565028   -0.881352    1.776162
     14          1           0       -0.380857   -1.243673    2.193197
     15          1           0        1.363328   -1.594177    2.003754
     16          1           0        0.812664    0.066279    2.249785
     17          7           0       -0.667829    1.400377    0.295827
     18          8           0       -0.895197    1.424798    1.504659
     19          8           0       -0.607450    2.406240   -0.417967
 ---------------------------------------------------------------------

 SCF Done:  E(RHF) =  -1334.86548067     A.U. after    2 cycles

 The electronic state is 1-A.
 Alpha  occ. eigenvalues -- -105.37372-105.34371 -20.47925 -20.47865 -15.67798
 Alpha  occ. eigenvalues --  -15.37923 -11.25164 -11.14760 -11.12674 -11.11500
 Alpha  occ. eigenvalues --  -10.42154 -10.39056  -7.59027  -7.58825  -7.58816
 Alpha  occ. eigenvalues --   -7.55874  -7.55737  -7.55724  -1.54837  -1.38568
 Alpha  occ. eigenvalues --   -1.10666  -1.02661  -0.89085  -0.87522  -0.84821
 Alpha  occ. eigenvalues --   -0.80224  -0.77910  -0.70915  -0.63566  -0.62625
 Alpha  occ. eigenvalues --   -0.60938  -0.55567  -0.52501  -0.50230  -0.48209
 Alpha  occ. eigenvalues --   -0.47193  -0.45266  -0.42227  -0.41319  -0.38423
 Alpha  occ. eigenvalues --   -0.36966  -0.33955  -0.33234  -0.30764  -0.29370
 Alpha  occ. eigenvalues --   -0.29222  -0.26611  -0.26235  -0.18915
 Alpha virt. eigenvalues --    0.12422   0.13379   0.13411   0.13531   0.15116
 Alpha virt. eigenvalues --    0.15338   0.15663   0.16487   0.17510   0.18359
 Alpha virt. eigenvalues --    0.21539   0.21768   0.22907   0.24324   0.24631

 Mulliken charges:
               1
     1  C   -0.940661
     2  C   -1.908710
     3  Cl  -0.708671
     4  Cl  -0.622545
     5  H    1.034202
     6  C   -0.157189
     7  H    0.202710
     8  H    0.315350
     9  H    0.298901
    10  N    0.719778
    11  H    0.229277
    12  H    0.140340
    13  C   -0.234551
    14  H    0.230386
    15  H    0.082820
    16  H    0.300082
    17  N    3.016689
    18  O   -1.562698
    19  O   -1.435509
 Sum of Mulliken charges =  -1.00000

 Dipole moment (field-independent basis, Debye):
    X=              0.7118    Y=             -1.4362    Z=              0.1546  Tot=              1.6104

 Test job not archived.
 1\1\GINC-SE115\SP\RHF\Aug-CC-pVDZ\C4H9Cl2N2O2(1-)\OHZDE\09-Apr-2025\0\
 \#t hf aug-cc-pvdz iop(5/13=1,5/36=2,99/5=2) pseudo=read geom=check gu
 ess=(read,tcheck) scf=(maxcycle=1)\\title\\-1,1\C,0,-0.37364744,0.0273
 2976,-0.32626252\C,0,-0.20640202,-0.01950519,1.05699057\Cl,0,1.8107473
 2,0.19865805,-1.23693275\Cl,0,-2.89094387,0.00998215,2.22351245\H,0,-1
 .57281643,-0.01814739,1.43590261\C,0,-0.93269637,1.24353241,-0.9917544
 4\H,0,-0.81044619,1.17454908,-2.06948485\H,0,-1.9991888,1.32492065,-0.
 75185992\H,0,-0.41478436,2.12049752,-0.61740945\N,0,0.23266665,1.25200

 Normal termination of Gaussian 16 at Wed Apr  9 02:39:49 2025.
