 Gaussian 16, Revision C.01,

 ----------------------------------------------------------------------
 #t hf aug-cc-pvdz symm=none int=(grid=ultrafine) guess=(read,tcheck) s
 table=(opt,rrhf)
 ----------------------------------------------------------------------
 -----
 title
 -----
 Symbolic Z-matrix:
 Charge = -1 Multiplicity = 1

 SCF Done:  E(RHF) =  -763.487674832     A.U. after   17 cycles
 Normal termination of Gaussian 16 at Wed Apr  9 02:55:26 2025.
 Gaussian 16:  ES64L-G16RevC.01  3-Jul-2019

 ----------------------------------------------------------------------
 #t hf aug-cc-pvdz iop(5/13=1,5/36=2,99/5=2) pseudo=read geom=check gue
 ss=(read,tcheck) scf=(maxcycle=1)
 ----------------------------------------------------------------------
 -----
 title
 -----
 Structure from the checkpoint file:  "E2SN2_346_mol1.chk"
 Charge = -1 Multiplicity = 1

                         Standard orientation:
 ---------------------------------------------------------------------
 Center     Atomic      Atomic             Coordinates (Angstroms)
 Number     Number       Type             X           Y           Z
 ---------------------------------------------------------------------
      1          6           0        0.727296    0.107864    0.552573
      2          1           0       -0.723342    1.421665    1.309948
      3         17           0        0.552039   -0.940064   -1.310535
      4          1           0        0.848074    1.263637    2.397102
      5          6           0       -0.623253    0.843183    0.394533
      6          6           0        2.016789    0.878295    0.291182
      7          1           0        2.517421    0.499057   -0.607202
      8          1           0        1.795036    1.933967    0.157332
      9          1           0        2.677273    0.781067    1.147086
     10          6           0        0.788584   -1.153897    1.402357
     11          1           0        0.881470   -0.892967    2.449843
     12          1           0       -0.100373   -1.768168    1.243812
     13          1           0        1.653363   -1.743368    1.084322
     14          6           0       -1.768242   -0.092565    0.354836
     15          7           0       -2.765406   -0.717005    0.357152
     16          7           0       -0.620599    1.776997   -0.727014
     17          1           0       -1.475009    2.320271   -0.695578
     18          1           0       -0.603592    1.248703   -1.591417
 ---------------------------------------------------------------------

 SCF Done:  E(RHF) =  -763.883974880     A.U. after    2 cycles

 The electronic state is 1-A.
 Alpha  occ. eigenvalues -- -105.36568 -15.38896 -15.38184 -11.21757 -11.18016
 Alpha  occ. eigenvalues --  -11.16154 -11.10209 -11.09677 -10.41461  -7.58301
 Alpha  occ. eigenvalues --   -7.58114  -7.58096  -1.10833  -1.07698  -0.96797
 Alpha  occ. eigenvalues --   -0.84351  -0.82603  -0.81982  -0.65774  -0.60944
 Alpha  occ. eigenvalues --   -0.58125  -0.52016  -0.49290  -0.48594  -0.46011
 Alpha  occ. eigenvalues --   -0.44327  -0.42900  -0.39906  -0.38937  -0.37606
 Alpha  occ. eigenvalues --   -0.35807  -0.33853  -0.29466  -0.28376  -0.27911
 Alpha  occ. eigenvalues --   -0.09927
 Alpha virt. eigenvalues --    0.12660   0.13490   0.13887   0.15245   0.15558
 Alpha virt. eigenvalues --    0.15825   0.16462   0.17568   0.17677   0.19479
 Alpha virt. eigenvalues --    0.20880   0.22698   0.22933   0.23369   0.24377

 Mulliken charges:
               1
     1  C   -1.405569
     2  H    0.209469
     3  Cl  -0.517103
     4  H   -0.678410
     5  C   -0.493760
     6  C   -0.059122
     7  H    0.273467
     8  H    0.249178
     9  H    0.196228
    10  C    0.219925
    11  H    0.188346
    12  H    0.274525
    13  H    0.258500
    14  C   -1.624714
    15  N    0.975793
    16  N    0.444187
    17  H    0.191106
    18  H    0.297953
 Sum of Mulliken charges =  -1.00000

 Dipole moment (field-independent basis, Debye):
    X=              0.4616    Y=             -0.4345    Z=             -4.5643  Tot=              4.6081

 Test job not archived.
 1\1\GINC-SE149\SP\RHF\Aug-CC-pVDZ\C5H10Cl1N2(1-)\OHZDE\09-Apr-2025\0\\
 #t hf aug-cc-pvdz iop(5/13=1,5/36=2,99/5=2) pseudo=read geom=check gue
 ss=(read,tcheck) scf=(maxcycle=1)\\title\\-1,1\C,0,0.46989146,-0.08075
 167,0.00170689\H,0,1.68469457,1.63046267,-0.00436667\Cl,0,-1.67281602,
 -0.03991684,0.08641078\H,0,2.64400943,-0.02335898,-0.14863416\C,0,0.61
 086387,1.45865502,-0.00092169\C,0,0.65865728,-0.83672962,-1.30884529\H
 ,0,-0.28850245,-1.27868759,-1.63916067\H,0,1.02300347,-0.15885973,-2.0
 7648951\H,0,1.39981074,-1.61813541,-1.17334951\C,0,0.63412179,-0.83726

 Normal termination of Gaussian 16 at Wed Apr  9 02:55:34 2025.
