 Gaussian 16, Revision C.01,

 ----------------------------------------------------------------------
 #t hf aug-cc-pvdz symm=none int=(grid=ultrafine) guess=(read,tcheck) s
 table=(opt,rrhf)
 ----------------------------------------------------------------------
 -----
 title
 -----
 Symbolic Z-matrix:
 Charge = -1 Multiplicity = 1

 SCF Done:  E(RHF) =  -784.388808110     A.U. after   15 cycles
 Normal termination of Gaussian 16 at Wed Apr  9 02:38:32 2025.
 Gaussian 16:  ES64L-G16RevC.01  3-Jul-2019

 ----------------------------------------------------------------------
 #t hf aug-cc-pvdz iop(5/13=1,5/36=2,99/5=2) pseudo=read geom=check gue
 ss=(read,tcheck) scf=(maxcycle=1)
 ----------------------------------------------------------------------
 -----
 title
 -----
 Structure from the checkpoint file:  "E2SN2_167_mol1.chk"
 Charge = -1 Multiplicity = 1

                         Standard orientation:
 ---------------------------------------------------------------------
 Center     Atomic      Atomic             Coordinates (Angstroms)
 Number     Number       Type             X           Y           Z
 ---------------------------------------------------------------------
      1          6           0        0.429996   -0.913509   -0.130356
      2          1           0        1.111763    0.751388   -1.187757
      3         17           0       -1.730312   -1.217667    0.191320
      4          9           0        2.337220   -1.022342   -0.405468
      5          6           0        0.599603    0.596498   -0.229233
      6          1           0        0.375706   -1.495117   -1.028131
      7          1           0        0.635261   -1.375770    0.815039
      8          7           0        1.424356    1.023380    0.907859
      9          1           0        1.675111    1.997886    0.778441
     10          1           0        2.256723    0.450085    0.772556
     11          6           0       -0.616045    1.424867   -0.262418
     12          7           0       -1.446580    2.251737   -0.339478
 ---------------------------------------------------------------------

 SCF Done:  E(RHF) =  -784.788719641     A.U. after    2 cycles

 The electronic state is 1-A.
 Alpha  occ. eigenvalues -- -105.33637 -26.16000 -15.38327 -15.36851 -11.20356
 Alpha  occ. eigenvalues --  -11.18815 -11.15915 -10.38440  -7.55270  -7.55103
 Alpha  occ. eigenvalues --   -7.55091  -1.23628  -1.10005  -1.06728  -0.90399
 Alpha  occ. eigenvalues --   -0.80861  -0.74519  -0.60619  -0.57882  -0.52718
 Alpha  occ. eigenvalues --   -0.48664  -0.47371  -0.46151  -0.36994  -0.36674
 Alpha  occ. eigenvalues --   -0.35723  -0.33267  -0.32226  -0.31317  -0.25616
 Alpha  occ. eigenvalues --   -0.25533  -0.24362
 Alpha virt. eigenvalues --    0.13228   0.14600   0.15771   0.16219   0.16867
 Alpha virt. eigenvalues --    0.19283   0.21168   0.23876   0.24620   0.24896
 Alpha virt. eigenvalues --    0.25439   0.26664   0.27320   0.28199   0.29022

 Mulliken charges:
               1
     1  C    0.315125
     2  H    0.319164
     3  Cl  -0.630646
     4  F   -0.934290
     5  C   -0.109290
     6  H    0.127808
     7  H    0.180013
     8  N    0.280640
     9  H    0.132435
    10  H    0.231935
    11  C   -1.774676
    12  N    0.861783
 Sum of Mulliken charges =  -1.00000

 Dipole moment (field-independent basis, Debye):
    X=              2.9123    Y=              1.4803    Z=             -0.6612  Tot=              3.3332

 Test job not archived.
 1\1\GINC-SE322\SP\RHF\Aug-CC-pVDZ\C3H5Cl1F1N2(1-)\OHZDE\09-Apr-2025\0\
 \#t hf aug-cc-pvdz iop(5/13=1,5/36=2,99/5=2) pseudo=read geom=check gu
 ess=(read,tcheck) scf=(maxcycle=1)\\title\\-1,1\C,0,0.52877197,-0.0450
 8334,0.06137655\H,0,1.59523264,1.63423111,-0.56898248\Cl,0,-1.29845464
 ,-0.66629859,-1.00551193\F,0,2.16636726,0.13216746,1.06730939\C,0,0.60
 089052,1.46299586,-0.13651398\H,0,1.11164973,-0.68529333,-0.56917799\H
 ,0,0.11356627,-0.40622953,0.98157636\N,0,0.4628732,2.08856897,1.184483
 1\H,0,0.65919607,3.07995359,1.09558234\H,0,1.22937422,1.64692271,1.691

 Normal termination of Gaussian 16 at Wed Apr  9 02:38:38 2025.
