 Gaussian 16, Revision C.01,

 ----------------------------------------------------------------------
 #t hf aug-cc-pvdz symm=none int=(grid=ultrafine) guess=(read,tcheck) s
 table=(opt,rrhf)
 ----------------------------------------------------------------------
 -----
 title
 -----
 Symbolic Z-matrix:
 Charge = -1 Multiplicity = 1

 SCF Done:  E(RHF) =  -479.428670513     A.U. after   14 cycles
 Normal termination of Gaussian 16 at Wed Apr  9 02:59:36 2025.
 Gaussian 16:  ES64L-G16RevC.01  3-Jul-2019

 ----------------------------------------------------------------------
 #t hf aug-cc-pvdz iop(5/13=1,5/36=2,99/5=2) pseudo=read geom=check gue
 ss=(read,tcheck) scf=(maxcycle=1)
 ----------------------------------------------------------------------
 -----
 title
 -----
 Structure from the checkpoint file:  "E2SN2_413_mol2.chk"
 Charge = -1 Multiplicity = 1

                         Standard orientation:
 ---------------------------------------------------------------------
 Center     Atomic      Atomic             Coordinates (Angstroms)
 Number     Number       Type             X           Y           Z
 ---------------------------------------------------------------------
      1          6           0       -0.333346    0.631208    0.004630
      2          6           0        0.493960   -0.371884   -0.815048
      3          9           0        0.358305    1.849053    0.016460
      4          1           0        0.568411   -0.021211   -1.846847
      5          1           0       -0.109507   -1.291936   -0.758140
      6          7           0       -1.578183    0.793309   -0.684467
      7          1           0       -2.147631    1.375074   -0.075460
      8          1           0       -1.970815   -0.165466   -0.620265
      9          7           0       -0.539926    0.232614    1.370135
     10          1           0       -1.070113   -0.646318    1.252078
     11          1           0        0.353669    0.024944    1.805950
     12          6           0        1.826287   -0.571829   -0.263926
     13          7           0        2.896790   -0.733957    0.191582
     14          9           0       -1.802326   -1.787254    0.044429
 ---------------------------------------------------------------------

 SCF Done:  E(RHF) =  -479.900072402     A.U. after    2 cycles

 The electronic state is 1-A.
 Alpha  occ. eigenvalues --  -26.30880 -26.11459 -15.39021 -15.33962 -15.33706
 Alpha  occ. eigenvalues --  -11.23870 -11.16625 -11.13072  -1.43790  -1.18187
 Alpha  occ. eigenvalues --   -1.10237  -1.08919  -0.99827  -0.90896  -0.70810
 Alpha  occ. eigenvalues --   -0.62050  -0.58057  -0.57162  -0.53647  -0.51002
 Alpha  occ. eigenvalues --   -0.49613  -0.47322  -0.46865  -0.43039  -0.41837
 Alpha  occ. eigenvalues --   -0.36950  -0.36236  -0.33089  -0.31168  -0.27631
 Alpha  occ. eigenvalues --   -0.27388  -0.27173
 Alpha virt. eigenvalues --    0.13918   0.14764   0.15733   0.16943   0.18261
 Alpha virt. eigenvalues --    0.18745   0.18942   0.19642   0.22391   0.24019
 Alpha virt. eigenvalues --    0.25031   0.26380   0.27081   0.27592   0.27717

 Mulliken charges:
               1
     1  C   -1.357760
     2  C    0.388453
     3  F   -0.989009
     4  H    0.197753
     5  H    0.284058
     6  N    0.609751
     7  H    0.286386
     8  H    0.258265
     9  N    0.501380
    10  H    0.306614
    11  H    0.223908
    12  C   -1.532804
    13  N    0.814638
    14  F   -0.991632
 Sum of Mulliken charges =  -1.00000

 Dipole moment (field-independent basis, Debye):
    X=              1.0800    Y=              3.1112    Z=             -1.1069  Tot=              3.4744

 Test job not archived.
 1\1\GINC-SE021\SP\RHF\Aug-CC-pVDZ\C3H6F2N3(1-)\OHZDE\09-Apr-2025\0\\#t
  hf aug-cc-pvdz iop(5/13=1,5/36=2,99/5=2) pseudo=read geom=check guess
 =(read,tcheck) scf=(maxcycle=1)\\title\\-1,1\C,0,-0.008656,0.001092,-0
 .005128\C,0,-0.456492,0.124789,-1.470271\F,0,1.391768,-0.003376,0.0162
 95\H,0,-0.114267,1.080566,-1.87338\H,0,-1.555396,0.104679,-1.393389\N,
 0,-0.494933,1.166478,0.670268\H,0,-0.280621,1.015688,1.652584\H,0,-1.5
 21016,1.041855,0.574587\N,0,-0.459465,-1.202382,0.638751\H,0,-1.485606
 ,-1.090407,0.593432\H,0,-0.189149,-2.009777,0.085023\C,0,0.041449,-0.9

 Normal termination of Gaussian 16 at Wed Apr  9 02:59:42 2025.
