 Gaussian 16, Revision C.01,

 ----------------------------------------------------------------------
 #t hf aug-cc-pvdz symm=none int=(grid=ultrafine) guess=(read,tcheck) s
 table=(opt,rrhf)
 ----------------------------------------------------------------------
 -----
 title
 -----
 Symbolic Z-matrix:
 Charge = -1 Multiplicity = 1

 SCF Done:  E(RHF) =  -832.216898435     A.U. after   17 cycles
 Normal termination of Gaussian 16 at Wed Apr  9 03:03:00 2025.
 Gaussian 16:  ES64L-G16RevC.01  3-Jul-2019

 ----------------------------------------------------------------------
 #t hf aug-cc-pvdz iop(5/13=1,5/36=2,99/5=2) pseudo=read geom=check gue
 ss=(read,tcheck) scf=(maxcycle=1)
 ----------------------------------------------------------------------
 -----
 title
 -----
 Structure from the checkpoint file:  "E2SN2_91_mol2.chk"
 Charge = -1 Multiplicity = 1

                         Standard orientation:
 ---------------------------------------------------------------------
 Center     Atomic      Atomic             Coordinates (Angstroms)
 Number     Number       Type             X           Y           Z
 ---------------------------------------------------------------------
      1          6           0        0.445363   -0.075443    0.262221
      2          6           0       -0.722848    0.641822   -0.439232
      3         17           0        0.720287   -1.706024   -0.629135
      4          1           0       -0.586377    0.606042   -1.529370
      5          6           0        1.691963    0.672528    0.080433
      6          7           0        2.746973    1.178969   -0.018066
      7          7           0        0.204918   -0.266550    1.643811
      8          1           0        0.981911   -0.731867    2.094922
      9          1           0       -0.645866   -0.799600    1.783785
     10          7           0       -0.735822    2.029411   -0.093655
     11          1           0       -1.385946    2.216922    0.660986
     12          1           0       -1.063144    2.489799   -1.032737
     13          6           0       -1.952751   -0.107175   -0.115997
     14          7           0       -2.920033   -0.674514    0.239607
     15          1           0       -1.388065    2.559506   -2.408720
 ---------------------------------------------------------------------

 SCF Done:  E(RHF) =  -832.666172926     A.U. after    2 cycles

 The electronic state is 1-A.
 Alpha  occ. eigenvalues -- -105.46664 -15.43731 -15.42803 -15.41610 -15.34938
 Alpha  occ. eigenvalues --  -11.29399 -11.20269 -11.19829 -11.18594 -10.51510
 Alpha  occ. eigenvalues --   -7.68422  -7.68077  -7.68073  -1.18094  -1.12443
 Alpha  occ. eigenvalues --   -1.11745  -1.07114  -0.98144  -0.87958  -0.82835
 Alpha  occ. eigenvalues --   -0.68204  -0.64530  -0.60304  -0.57523  -0.55948
 Alpha  occ. eigenvalues --   -0.51426  -0.50798  -0.50094  -0.45366  -0.42230
 Alpha  occ. eigenvalues --   -0.41108  -0.40028  -0.38750  -0.37037  -0.36482
 Alpha  occ. eigenvalues --   -0.35755  -0.32122  -0.11481
 Alpha virt. eigenvalues --    0.11223   0.14140   0.14820   0.15566   0.17382
 Alpha virt. eigenvalues --    0.17854   0.18093   0.19978   0.20465   0.20983
 Alpha virt. eigenvalues --    0.21441   0.22550   0.23607   0.24028   0.24467

 Mulliken charges:
               1
     1  C   -1.329653
     2  C   -0.552634
     3  Cl   0.015839
     4  H    0.154333
     5  C   -1.450452
     6  N    0.996168
     7  N    0.820320
     8  H    0.141208
     9  H    0.241500
    10  N    0.820337
    11  H    0.244144
    12  H    0.167965
    13  C   -1.545198
    14  N    0.950864
    15  H   -0.674739
 Sum of Mulliken charges =  -1.00000

 Dipole moment (field-independent basis, Debye):
    X=              3.5945    Y=             -8.7948    Z=              8.2632  Tot=             12.5916

 Test job not archived.
 1\1\GINC-SE227\SP\RHF\Aug-CC-pVDZ\C4H6Cl1N4(1-)\OHZDE\09-Apr-2025\0\\#
 t hf aug-cc-pvdz iop(5/13=1,5/36=2,99/5=2) pseudo=read geom=check gues
 s=(read,tcheck) scf=(maxcycle=1)\\title\\-1,1\C,0,-0.643651,0.04796,-1
 .508447\C,0,0.065986,0.079868,-0.142204\Cl,0,-0.024312,1.519736,-2.497
 985\H,0,1.141557,0.259405,-0.280835\C,0,-0.228681,-1.128714,-2.276404\
 N,0,0.046511,-2.024663,-2.984059\N,0,-2.053156,0.057113,-1.380621\H,0,
 -2.507986,0.028601,-2.28398\H,0,-2.355843,0.876826,-0.866792\N,0,-0.03
 6581,-1.192253,0.502919\H,0,-0.801594,-1.209677,1.167567\H,0,0.935401,

 Normal termination of Gaussian 16 at Wed Apr  9 03:03:07 2025.
