 Gaussian 16, Revision C.01,

 ----------------------------------------------------------------------
 #t hf aug-cc-pvdz symm=none int=(grid=ultrafine) guess=(read,tcheck) s
 table=(opt,rrhf)
 ----------------------------------------------------------------------
 -----
 title
 -----
 Symbolic Z-matrix:
 Charge = -1 Multiplicity = 1

 SCF Done:  E(RHF) =  -630.228306645     A.U. after   16 cycles
 Normal termination of Gaussian 16 at Wed Apr  9 03:00:02 2025.
 Gaussian 16:  ES64L-G16RevC.01  3-Jul-2019

 ----------------------------------------------------------------------
 #t hf aug-cc-pvdz iop(5/13=1,5/36=2,99/5=2) pseudo=read geom=check gue
 ss=(read,tcheck) scf=(maxcycle=1)
 ----------------------------------------------------------------------
 -----
 title
 -----
 Structure from the checkpoint file:  "E2SN2_411_mol2.chk"
 Charge = -1 Multiplicity = 1

                         Standard orientation:
 ---------------------------------------------------------------------
 Center     Atomic      Atomic             Coordinates (Angstroms)
 Number     Number       Type             X           Y           Z
 ---------------------------------------------------------------------
      1          6           0       -0.653397   -0.325787   -0.610169
      2          6           0        0.262433   -0.119206    0.626624
      3          9           0        0.091832   -1.055907   -1.549014
      4          1           0       -0.278284    0.627598    1.217760
      5          7           0       -1.769206   -1.106257   -0.168723
      6          1           0       -2.395899   -1.135310   -0.969074
      7          1           0       -2.204672   -0.453097    0.517325
      8          7           0       -1.091503    0.884998   -1.239184
      9          1           0       -1.661148    1.306953   -0.487190
     10          1           0       -0.297070    1.494171   -1.402414
     11          7           0        1.541155    0.496049    0.163568
     12          8           0        1.527026    1.697378   -0.123967
     13          8           0        2.543126   -0.214332    0.064315
     14          6           0        0.549690   -1.390252    1.393828
     15          1           0       -0.382615   -1.739264    1.832461
     16          1           0        1.279999   -1.206115    2.186266
     17          1           0        0.937232   -2.162301    0.729848
     18          9           0       -2.233415    1.110456    1.226893
 ---------------------------------------------------------------------

 SCF Done:  E(RHF) =  -630.849161683     A.U. after    2 cycles

 The electronic state is 1-A.
 Alpha  occ. eigenvalues --  -26.31149 -26.11551 -20.46690 -20.46338 -15.65634
 Alpha  occ. eigenvalues --  -15.33788 -15.33646 -11.24304 -11.16101 -11.11213
 Alpha  occ. eigenvalues --   -1.53375  -1.44017  -1.37078  -1.18337  -1.09962
 Alpha  occ. eigenvalues --   -1.00450  -0.99918  -0.84824  -0.75974  -0.70048
 Alpha  occ. eigenvalues --   -0.64507  -0.63129  -0.61896  -0.57287  -0.56841
 Alpha  occ. eigenvalues --   -0.54245  -0.51120  -0.47818  -0.46437  -0.45097
 Alpha  occ. eigenvalues --   -0.43764  -0.42445  -0.38905  -0.36876  -0.35745
 Alpha  occ. eigenvalues --   -0.33298  -0.32402  -0.30969  -0.27793  -0.27485
 Alpha  occ. eigenvalues --   -0.27301
 Alpha virt. eigenvalues --    0.13090   0.14052   0.14845   0.15459   0.15921
 Alpha virt. eigenvalues --    0.17282   0.18188   0.18774   0.19267   0.20526
 Alpha virt. eigenvalues --    0.22656   0.24192   0.24635   0.25201   0.25969

 Mulliken charges:
               1
     1  C   -1.449740
     2  C   -0.748277
     3  F   -1.092525
     4  H    0.153386
     5  N    0.698340
     6  H    0.262430
     7  H    0.303749
     8  N    0.723738
     9  H    0.311421
    10  H    0.260901
    11  N    2.968526
    12  O   -1.520085
    13  O   -1.488303
    14  C   -0.058565
    15  H    0.256405
    16  H    0.168704
    17  H    0.256334
    18  F   -1.006439
 Sum of Mulliken charges =  -1.00000

 Dipole moment (field-independent basis, Debye):
    X=              3.6995    Y=             -2.5858    Z=             -0.6445  Tot=              4.5594

 Test job not archived.
 1\1\GINC-SE071\SP\RHF\Aug-CC-pVDZ\C3H8F2N3O2(1-)\OHZDE\09-Apr-2025\0\\
 #t hf aug-cc-pvdz iop(5/13=1,5/36=2,99/5=2) pseudo=read geom=check gue
 ss=(read,tcheck) scf=(maxcycle=1)\\title\\-1,1\C,0,0.007126,-0.001,-0.
 003952\C,0,-0.4168,-0.180006,-1.486963\F,0,1.410376,0.016582,0.017263\
 H,0,-1.486256,-0.40566,-1.417118\N,0,-0.497008,1.271137,0.416234\H,0,-
 0.294805,1.312136,1.412016\H,0,-1.523873,1.110343,0.334967\N,0,-0.4349
 03,-1.043218,0.874678\H,0,-1.460687,-0.929976,0.820096\H,0,-0.203423,-
 1.947769,0.478364\N,0,0.275285,-1.386658,-2.028349\O,0,-0.156144,-2.49

 Normal termination of Gaussian 16 at Wed Apr  9 03:00:12 2025.
