 Gaussian 16, Revision C.01,

 ----------------------------------------------------------------------
 #t hf aug-cc-pvdz symm=none int=(grid=ultrafine) guess=(read,tcheck) s
 table=(opt,rrhf)
 ----------------------------------------------------------------------
 -----
 title
 -----
 Symbolic Z-matrix:
 Charge = -1 Multiplicity = 1

 SCF Done:  E(RHF) =  -403.470933907     A.U. after   16 cycles
 Normal termination of Gaussian 16 at Wed Apr  9 02:35:14 2025.
 Gaussian 16:  ES64L-G16RevC.01  3-Jul-2019

 ----------------------------------------------------------------------
 #t hf aug-cc-pvdz iop(5/13=1,5/36=2,99/5=2) pseudo=read geom=check gue
 ss=(read,tcheck) scf=(maxcycle=1)
 ----------------------------------------------------------------------
 -----
 title
 -----
 Structure from the checkpoint file:  "E2SN2_115_mol1.chk"
 Charge = -1 Multiplicity = 1

                         Standard orientation:
 ---------------------------------------------------------------------
 Center     Atomic      Atomic             Coordinates (Angstroms)
 Number     Number       Type             X           Y           Z
 ---------------------------------------------------------------------
      1          6           0       -0.764136   -0.263251   -0.049659
      2          6           0        0.490288    0.490950    0.337811
      3          9           0       -0.856073   -0.383985   -1.464032
      4          1           0       -0.267495    0.979064    2.634561
      5          1           0        0.251147    0.646846    1.606136
      6          6           0       -0.781745   -1.661006    0.525594
      7          1           0        0.073938   -2.234487    0.164943
      8          1           0       -0.736290   -1.592939    1.616361
      9          1           0       -1.711323   -2.150008    0.228784
     10          7           0       -1.969102    0.436040    0.355106
     11          1           0       -2.000243    1.303565   -0.171877
     12          1           0       -1.806433    0.706082    1.331713
     13          6           0        0.530915    1.930027   -0.153774
     14          1           0       -0.106410    2.545100    0.495286
     15          1           0        1.545442    2.330331   -0.079999
     16          1           0        0.199096    2.033480   -1.193077
     17          6           0        1.702064   -0.230101    0.094154
     18          7           0        2.711805   -0.823309   -0.066719
 ---------------------------------------------------------------------

 SCF Done:  E(RHF) =  -403.886191645     A.U. after    2 cycles

 The electronic state is 1-A.
 Alpha  occ. eigenvalues --  -26.30203 -15.35887 -15.35360 -11.21373 -11.13934
 Alpha  occ. eigenvalues --  -11.10450 -11.09635 -11.09274  -1.42333  -1.07273
 Alpha  occ. eigenvalues --   -1.06005  -0.92988  -0.87125  -0.76137  -0.68552
 Alpha  occ. eigenvalues --   -0.59333  -0.57507  -0.55001  -0.50775  -0.48334
 Alpha  occ. eigenvalues --   -0.46379  -0.45234  -0.43995  -0.42190  -0.41603
 Alpha  occ. eigenvalues --   -0.39207  -0.38367  -0.37677  -0.34828  -0.32238
 Alpha  occ. eigenvalues --   -0.30064  -0.11701
 Alpha virt. eigenvalues --    0.13057   0.13230   0.14010   0.14907   0.15795
 Alpha virt. eigenvalues --    0.16036   0.16900   0.17954   0.18805   0.20055
 Alpha virt. eigenvalues --    0.21422   0.21669   0.23198   0.25389   0.25559

 Mulliken charges:
               1
     1  C   -0.854216
     2  C    0.282918
     3  F   -1.097649
     4  H   -0.378440
     5  H    0.181253
     6  C   -0.160043
     7  H    0.264095
     8  H    0.272892
     9  H    0.155151
    10  N    0.701027
    11  H    0.333224
    12  H    0.234543
    13  C   -0.008687
    14  H    0.238774
    15  H    0.055757
    16  H    0.197268
    17  C   -2.387878
    18  N    0.970011
 Sum of Mulliken charges =  -1.00000

 Dipole moment (field-independent basis, Debye):
    X=             -2.7984    Y=              0.3806    Z=             -4.7346  Tot=              5.5129

 Test job not archived.
 1\1\GINC-SE090\SP\RHF\Aug-CC-pVDZ\C5H10F1N2(1-)\OHZDE\09-Apr-2025\0\\#
 t hf aug-cc-pvdz iop(5/13=1,5/36=2,99/5=2) pseudo=read geom=check gues
 s=(read,tcheck) scf=(maxcycle=1)\\title\\-1,1\C,0,-0.08267717,-0.01816
 499,-0.40465234\C,0,-0.03216515,-0.04768108,1.10832821\F,0,1.22830117,
 0.09600559,-0.94481985\H,0,-2.42626061,0.47177825,1.40161703\H,0,-1.30
 432244,0.05192248,1.35699678\C,0,-0.69779554,-1.27669057,-0.97270972\H
 ,0,-0.11810777,-2.15317134,-0.67794319\H,0,-1.71775883,-1.37344252,-0.
 58958503\H,0,-0.7228834,-1.19376163,-2.06074833\N,0,-0.80583904,1.1358

 Normal termination of Gaussian 16 at Wed Apr  9 02:35:22 2025.
