 Gaussian 16, Revision C.01,

 ----------------------------------------------------------------------
 #t hf aug-cc-pvdz symm=none int=(grid=ultrafine) guess=(read,tcheck) s
 table=(opt,rrhf)
 ----------------------------------------------------------------------
 -----
 title
 -----
 Symbolic Z-matrix:
 Charge = -1 Multiplicity = 1

 SCF Done:  E(RHF) =  -876.149442604     A.U. after   16 cycles
 Normal termination of Gaussian 16 at Wed Apr  9 02:47:13 2025.
 Gaussian 16:  ES64L-G16RevC.01  3-Jul-2019

 ----------------------------------------------------------------------
 #t hf aug-cc-pvdz iop(5/13=1,5/36=2,99/5=2) pseudo=read geom=check gue
 ss=(read,tcheck) scf=(maxcycle=1)
 ----------------------------------------------------------------------
 -----
 title
 -----
 Structure from the checkpoint file:  "E2SN2_253_mol2.chk"
 Charge = -1 Multiplicity = 1

                         Standard orientation:
 ---------------------------------------------------------------------
 Center     Atomic      Atomic             Coordinates (Angstroms)
 Number     Number       Type             X           Y           Z
 ---------------------------------------------------------------------
      1          6           0        0.536790    0.120788    0.195225
      2          6           0       -0.556216   -0.254885   -0.820461
      3         17           0        2.107832   -0.577689   -0.317343
      4          1           0       -0.243903    0.062230   -1.824349
      5          1           0        0.190734   -0.398565    1.143722
      6          6           0        0.690693    1.558889    0.326059
      7          7           0        0.820424    2.721765    0.443592
      8          6           0       -1.777338    0.517420   -0.485063
      9          7           0       -2.790238    1.088591   -0.313721
     10          7           0       -0.752664   -1.690770   -0.773900
     11          1           0       -0.922170   -1.876844    0.240090
     12          1           0       -1.580604   -1.924813   -1.309943
     13          9           0       -0.842604   -1.392407    1.817661
 ---------------------------------------------------------------------

 SCF Done:  E(RHF) =  -876.626688023     A.U. after    2 cycles

 The electronic state is 1-A.
 Alpha  occ. eigenvalues -- -105.45298 -26.12697 -15.41002 -15.39991 -15.35978
 Alpha  occ. eigenvalues --  -11.20697 -11.20633 -11.18172 -11.16859 -10.50111
 Alpha  occ. eigenvalues --   -7.67063  -7.66677  -7.66665  -1.19845  -1.12129
 Alpha  occ. eigenvalues --   -1.10689  -1.07882  -0.99987  -0.88557  -0.78671
 Alpha  occ. eigenvalues --   -0.64674  -0.61754  -0.54857  -0.52503  -0.49760
 Alpha  occ. eigenvalues --   -0.49212  -0.47573  -0.46211  -0.38941  -0.38681
 Alpha  occ. eigenvalues --   -0.38475  -0.36966  -0.35274  -0.34199  -0.32950
 Alpha  occ. eigenvalues --   -0.29153  -0.28571  -0.26723
 Alpha virt. eigenvalues --    0.12812   0.14089   0.16198   0.17346   0.18461
 Alpha virt. eigenvalues --    0.18536   0.18692   0.22289   0.22339   0.23001
 Alpha virt. eigenvalues --    0.23482   0.24766   0.25260   0.25946   0.26111

 Mulliken charges:
               1
     1  C    0.324896
     2  C   -0.457454
     3  Cl  -0.026728
     4  H    0.096910
     5  H    0.500076
     6  C   -1.504148
     7  N    0.844899
     8  C   -1.668013
     9  N    0.959233
    10  N    0.413555
    11  H    0.318700
    12  H    0.210725
    13  F   -1.012651
 Sum of Mulliken charges =  -1.00000

 Dipole moment (field-independent basis, Debye):
    X=              3.1773    Y=             -1.1903    Z=             -5.5848  Tot=              6.5347

 Test job not archived.
 1\1\GINC-SE114\SP\RHF\Aug-CC-pVDZ\C4H4Cl1F1N3(1-)\OHZDE\09-Apr-2025\0\
 \#t hf aug-cc-pvdz iop(5/13=1,5/36=2,99/5=2) pseudo=read geom=check gu
 ess=(read,tcheck) scf=(maxcycle=1)\\title\\-1,1\C,0,-0.208584,0.13608,
 0.045062\C,0,-0.44164,0.131238,-1.475817\Cl,0,1.18019,-0.925157,0.4498
 47\H,0,0.488133,0.414558,-1.98684\H,0,-1.162214,-0.329166,0.449124\C,0
 ,0.064819,1.469149,0.552128\N,0,0.282351,2.544949,0.974337\C,0,-1.4422
 3,1.180542,-1.788654\N,0,-2.215504,1.990793,-2.145165\N,0,-0.86007,-1.
 199289,-1.872226\H,0,-1.667182,-1.395583,-1.23853\H,0,-1.177392,-1.168

 Normal termination of Gaussian 16 at Wed Apr  9 02:47:18 2025.
