 Gaussian 16, Revision C.01,

 ----------------------------------------------------------------------
 #t hf aug-cc-pvdz symm=none int=(grid=ultrafine) guess=(read,tcheck) s
 table=(opt,rrhf)
 ----------------------------------------------------------------------
 -----
 title
 -----
 Symbolic Z-matrix:
 Charge = -1 Multiplicity = 1

 SCF Done:  E(RHF) =  -380.438507888     A.U. after   15 cycles
 Normal termination of Gaussian 16 at Wed Apr  9 02:50:47 2025.
 Gaussian 16:  ES64L-G16RevC.01  3-Jul-2019

 ----------------------------------------------------------------------
 #t hf aug-cc-pvdz iop(5/13=1,5/36=2,99/5=2) pseudo=read geom=check gue
 ss=(read,tcheck) scf=(maxcycle=1)
 ----------------------------------------------------------------------
 -----
 title
 -----
 Structure from the checkpoint file:  "E2SN2_300_mol2.chk"
 Charge = -1 Multiplicity = 1

                         Standard orientation:
 ---------------------------------------------------------------------
 Center     Atomic      Atomic             Coordinates (Angstroms)
 Number     Number       Type             X           Y           Z
 ---------------------------------------------------------------------
      1          6           0        0.157973    0.072169    0.207210
      2          6           0       -0.819239   -0.537789   -0.804219
      3          9           0        0.157171   -0.819530    1.343919
      4          1           0       -0.695129   -0.002102   -1.749927
      5          1           0       -0.526572   -1.584300   -0.947153
      6          6           0        1.553170   -0.031937   -0.291963
      7          7           0        2.649117   -0.083763   -0.713999
      8          7           0       -0.210330    1.357943    0.582097
      9          1           0       -0.928243    1.824208   -0.054568
     10          1           0        0.559926    1.964861    0.818781
     11          7           0       -2.211700   -0.434954   -0.414815
     12          1           0       -2.474899    0.546401   -0.568133
     13          1           0       -2.280092   -0.618426    0.579979
     14          1           0       -2.010570    2.355887   -1.013398
 ---------------------------------------------------------------------

 SCF Done:  E(RHF) =  -380.822086123     A.U. after    2 cycles

 The electronic state is 1-A.
 Alpha  occ. eigenvalues --  -26.32228 -15.41452 -15.35374 -15.34372 -11.26323
 Alpha  occ. eigenvalues --  -11.18043 -11.14303  -1.43962  -1.12064  -1.08882
 Alpha  occ. eigenvalues --   -1.03549  -0.87118  -0.75082  -0.65266  -0.59466
 Alpha  occ. eigenvalues --   -0.58889  -0.55205  -0.51362  -0.50542  -0.47783
 Alpha  occ. eigenvalues --   -0.45127  -0.43809  -0.40825  -0.39413  -0.39320
 Alpha  occ. eigenvalues --   -0.32889  -0.29986  -0.11612
 Alpha virt. eigenvalues --    0.13670   0.14701   0.15291   0.15982   0.17808
 Alpha virt. eigenvalues --    0.18352   0.19893   0.20708   0.21902   0.23083
 Alpha virt. eigenvalues --    0.24138   0.24756   0.25131   0.25744   0.26267

 Mulliken charges:
               1
     1  C    1.274956
     2  C   -1.139516
     3  F   -0.968487
     4  H    0.148302
     5  H    0.055343
     6  C   -2.000096
     7  N    0.914431
     8  N    0.410522
     9  H    0.016334
    10  H    0.267373
    11  N    0.401108
    12  H    0.211038
    13  H    0.199727
    14  H   -0.791036
 Sum of Mulliken charges =  -1.00000

 Dipole moment (field-independent basis, Debye):
    X=              4.0728    Y=             -5.6994    Z=              3.4062  Tot=              7.7893

 Test job not archived.
 1\1\GINC-SE455\SP\RHF\Aug-CC-pVDZ\C3H7F1N3(1-)\OHZDE\09-Apr-2025\0\\#t
  hf aug-cc-pvdz iop(5/13=1,5/36=2,99/5=2) pseudo=read geom=check guess
 =(read,tcheck) scf=(maxcycle=1)\\title\\-1,1\C,0,0.00379,0.072734,0.05
 245\C,0,-0.519209,0.332597,-1.364916\F,0,1.37787,-0.345071,-0.104317\H
 ,0,-1.485365,0.837678,-1.274564\H,0,0.191384,1.008924,-1.853699\C,0,0.
 13123,1.349763,0.800476\N,0,0.190671,2.361453,1.396169\N,0,-0.738976,-
 0.895515,0.715923\H,0,-1.68531,-1.116823,0.275901\H,0,-0.787373,-0.777
 297,1.716595\N,0,-0.718114,-0.869676,-2.149857\H,0,-1.572713,-1.306786

 Normal termination of Gaussian 16 at Wed Apr  9 02:50:51 2025.
