 Gaussian 16, Revision C.01,

 ----------------------------------------------------------------------
 #t hf aug-cc-pvdz symm=none int=(grid=ultrafine) guess=(read,tcheck) s
 table=(opt,rrhf)
 ----------------------------------------------------------------------
 -----
 title
 -----
 Symbolic Z-matrix:
 Charge = -1 Multiplicity = 1

 SCF Done:  E(RHF) =  -825.788513856     A.U. after   13 cycles
 Normal termination of Gaussian 16 at Wed Apr  9 02:55:27 2025.
 Gaussian 16:  ES64L-G16RevC.01  3-Jul-2019

 ----------------------------------------------------------------------
 #t hf aug-cc-pvdz iop(5/13=1,5/36=2,99/5=2) pseudo=read geom=check gue
 ss=(read,tcheck) scf=(maxcycle=1)
 ----------------------------------------------------------------------
 -----
 title
 -----
 Structure from the checkpoint file:  "E2SN2_355_mol2.chk"
 Charge = -1 Multiplicity = 1

                         Standard orientation:
 ---------------------------------------------------------------------
 Center     Atomic      Atomic             Coordinates (Angstroms)
 Number     Number       Type             X           Y           Z
 ---------------------------------------------------------------------
      1          6           0       -0.596449    0.323359    0.117073
      2          6           0        0.354278   -0.371977   -0.901087
      3         17           0       -2.180476   -0.605570    0.086761
      4          1           0       -0.278912   -0.653928   -1.754673
      5          6           0       -0.058259    0.304497    1.533248
      6          1           0        1.007945    0.571975    1.510280
      7          1           0       -0.113579   -0.709203    1.929304
      8          1           0       -0.639620    0.974244    2.175723
      9          6           0       -0.949871    1.736839   -0.320501
     10          1           0       -0.078112    2.382442   -0.194646
     11          1           0       -1.270391    1.761659   -1.366720
     12          1           0       -1.760941    2.129891    0.296837
     13          7           0        0.897653   -1.573435   -0.286847
     14          1           0        1.667937   -1.213737    0.303143
     15          1           0        1.356066   -2.081861   -1.037077
     16          7           0        1.445603    0.466501   -1.386434
     17          1           0        2.110064    0.552697   -0.592302
     18          1           0        1.116900    1.375712   -1.687079
     19          9           0        2.783305    0.110781    0.898093
 ---------------------------------------------------------------------

 SCF Done:  E(RHF) =  -826.249272892     A.U. after    2 cycles

 The electronic state is 1-A.
 Alpha  occ. eigenvalues -- -105.40851 -26.09582 -15.31529 -15.31389 -11.16475
 Alpha  occ. eigenvalues --  -11.14124 -11.11379 -11.07163 -10.45740  -7.62658
 Alpha  occ. eigenvalues --   -7.62345  -7.62337  -1.16260  -1.07401  -0.97942
 Alpha  occ. eigenvalues --   -0.96080  -0.85590  -0.81179  -0.74404  -0.61087
 Alpha  occ. eigenvalues --   -0.56157  -0.53590  -0.50324  -0.48701  -0.47619
 Alpha  occ. eigenvalues --   -0.43827  -0.41831  -0.41274  -0.37650  -0.36598
 Alpha  occ. eigenvalues --   -0.35285  -0.31883  -0.30766  -0.29599  -0.27300
 Alpha  occ. eigenvalues --   -0.25688  -0.25224  -0.24327
 Alpha virt. eigenvalues --    0.12403   0.13035   0.14295   0.14420   0.15151
 Alpha virt. eigenvalues --    0.15947   0.17051   0.17482   0.18964   0.19214
 Alpha virt. eigenvalues --    0.20960   0.21224   0.23717   0.24461   0.25223

 Mulliken charges:
               1
     1  C   -1.046461
     2  C   -2.236924
     3  Cl  -0.237372
     4  H   -0.024123
     5  C    0.022444
     6  H    0.242719
     7  H    0.288624
     8  H    0.106759
     9  C   -0.105429
    10  H    0.327770
    11  H    0.188287
    12  H    0.094004
    13  N    0.723579
    14  H    0.239716
    15  H    0.252182
    16  N    0.740728
    17  H    0.259307
    18  H    0.222267
    19  F   -1.058078
 Sum of Mulliken charges =  -1.00000

 Dipole moment (field-independent basis, Debye):
    X=             -6.5039    Y=              2.2735    Z=             -2.1274  Tot=              7.2108

 Test job not archived.
 1\1\GINC-SE423\SP\RHF\Aug-CC-pVDZ\C4H11Cl1F1N2(1-)\OHZDE\09-Apr-2025\0
 \\#t hf aug-cc-pvdz iop(5/13=1,5/36=2,99/5=2) pseudo=read geom=check g
 uess=(read,tcheck) scf=(maxcycle=1)\\title\\-1,1\C,0,-0.009158,-0.0219
 68,0.02285\C,0,-0.572453,0.131293,-1.420492\Cl,0,1.737213,0.544564,-0.
 024054\H,0,0.245381,-0.166964,-2.092225\C,0,-0.756743,0.81702,1.039103
 \H,0,-1.836342,0.711629,0.859599\H,0,-0.519805,1.869583,0.88587\H,0,-0
 .476182,0.529465,2.057884\C,0,0.051921,-1.48102,0.449159\H,0,-0.960852
 ,-1.846771,0.631155\H,0,0.527978,-2.1005,-0.317351\H,0,0.624378,-1.578

 Normal termination of Gaussian 16 at Wed Apr  9 02:55:36 2025.
