 Gaussian 16, Revision C.01,

 ----------------------------------------------------------------------
 #t hf aug-cc-pvdz symm=none int=(grid=ultrafine) guess=(read,tcheck) s
 table=(opt,rrhf)
 ----------------------------------------------------------------------
 -----
 title
 -----
 Symbolic Z-matrix:
 Charge = -1 Multiplicity = 1

 SCF Done:  E(RHF) =  -456.167167424     A.U. after   17 cycles
 Normal termination of Gaussian 16 at Wed Apr  9 02:36:46 2025.
 Gaussian 16:  ES64L-G16RevC.01  3-Jul-2019

 ----------------------------------------------------------------------
 #t hf aug-cc-pvdz iop(5/13=1,5/36=2,99/5=2) pseudo=read geom=check gue
 ss=(read,tcheck) scf=(maxcycle=1)
 ----------------------------------------------------------------------
 -----
 title
 -----
 Structure from the checkpoint file:  "E2SN2_136_mol1.chk"
 Charge = -1 Multiplicity = 1

                         Standard orientation:
 ---------------------------------------------------------------------
 Center     Atomic      Atomic             Coordinates (Angstroms)
 Number     Number       Type             X           Y           Z
 ---------------------------------------------------------------------
      1          6           0       -0.433788   -0.475520   -0.096987
      2          6           0        0.559434    0.568252    0.375286
      3          9           0       -0.317042   -0.699766   -1.481272
      4          1           0       -0.106922    0.098224    2.775889
      5          1           0        0.341108    0.472046    1.596824
      6          7           0       -0.308726   -1.741440    0.571293
      7          1           0       -0.360369   -1.499779    1.573285
      8          1           0        0.642601   -2.062407    0.405970
      9          6           0       -1.816258    0.028559    0.102082
     10          7           0       -2.911215    0.440290    0.197081
     11          6           0        1.899486    0.104708    0.130589
     12          7           0        3.005937   -0.276911   -0.016794
     13          6           0        0.308524    1.987133   -0.113454
     14          1           0        1.124804    2.641881    0.202057
     15          1           0        0.219439    2.047368   -1.203449
     16          1           0       -0.613637    2.368189    0.334713
 ---------------------------------------------------------------------

 SCF Done:  E(RHF) =  -456.617699997     A.U. after    2 cycles

 The electronic state is 1-A.
 Alpha  occ. eigenvalues --  -26.34876 -15.41225 -15.38947 -15.38332 -11.28323
 Alpha  occ. eigenvalues --  -11.17727 -11.16527 -11.13259 -11.12874  -1.47359
 Alpha  occ. eigenvalues --   -1.12338  -1.10152  -1.08718  -0.96692  -0.84185
 Alpha  occ. eigenvalues --   -0.78890  -0.65740  -0.62064  -0.59371  -0.55083
 Alpha  occ. eigenvalues --   -0.52985  -0.50601  -0.49318  -0.48132  -0.47260
 Alpha  occ. eigenvalues --   -0.45669  -0.43543  -0.41443  -0.39359  -0.38955
 Alpha  occ. eigenvalues --   -0.36665  -0.35001  -0.34016  -0.12435
 Alpha virt. eigenvalues --    0.12693   0.13916   0.14549   0.15149   0.17613
 Alpha virt. eigenvalues --    0.18226   0.18737   0.19296   0.19792   0.20605
 Alpha virt. eigenvalues --    0.22867   0.23282   0.24507   0.24764   0.25608

 Mulliken charges:
               1
     1  C    0.176210
     2  C    0.082320
     3  F   -1.011414
     4  H   -0.384882
     5  H    0.182357
     6  N    0.640133
     7  H    0.294515
     8  H    0.255906
     9  C   -1.746803
    10  N    1.014391
    11  C   -1.923510
    12  N    0.996843
    13  C   -0.221132
    14  H    0.127091
    15  H    0.227560
    16  H    0.290415
 Sum of Mulliken charges =  -1.00000

 Dipole moment (field-independent basis, Debye):
    X=              0.3024    Y=              1.0796    Z=             -6.0631  Tot=              6.1659

 Test job not archived.
 1\1\GINC-SE105\SP\RHF\Aug-CC-pVDZ\C5H7F1N3(1-)\OHZDE\09-Apr-2025\0\\#t
  hf aug-cc-pvdz iop(5/13=1,5/36=2,99/5=2) pseudo=read geom=check guess
 =(read,tcheck) scf=(maxcycle=1)\\title\\-1,1\C,0,-0.0935162,-0.1007155
 7,-0.392877\C,0,-0.05421374,0.00775818,1.11897044\F,0,1.19726155,-0.27
 892722,-0.924191\H,0,-2.58872552,-0.02374416,1.17474636\H,0,-1.2821423
 3,0.01978333,1.32176273\N,0,-0.92579246,-1.16699612,-0.8778024\H,0,-1.
 83561248,-0.99996938,-0.42021733\H,0,-0.55904839,-2.02594153,-0.473962
 49\C,0,-0.58064576,1.17780433,-0.96997336\N,0,-0.9052433,2.2028537,-1.

 Normal termination of Gaussian 16 at Wed Apr  9 02:36:53 2025.
