 Gaussian 16, Revision C.01,

 ----------------------------------------------------------------------
 #t hf aug-cc-pvdz symm=none int=(grid=ultrafine) guess=(read,tcheck) s
 table=(opt,rrhf)
 ----------------------------------------------------------------------
 -----
 title
 -----
 Symbolic Z-matrix:
 Charge = -1 Multiplicity = 1

 SCF Done:  E(RHF) =  -682.849429958     A.U. after   16 cycles
 Normal termination of Gaussian 16 at Wed Apr  9 02:59:39 2025.
 Gaussian 16:  ES64L-G16RevC.01  3-Jul-2019

 ----------------------------------------------------------------------
 #t hf aug-cc-pvdz iop(5/13=1,5/36=2,99/5=2) pseudo=read geom=check gue
 ss=(read,tcheck) scf=(maxcycle=1)
 ----------------------------------------------------------------------
 -----
 title
 -----
 Structure from the checkpoint file:  "E2SN2_409_mol1.chk"
 Charge = -1 Multiplicity = 1

                         Standard orientation:
 ---------------------------------------------------------------------
 Center     Atomic      Atomic             Coordinates (Angstroms)
 Number     Number       Type             X           Y           Z
 ---------------------------------------------------------------------
      1          6           0       -1.010089    0.062171    0.101850
      2          1           0        0.205085   -0.223016   -1.634964
      3          9           0       -0.334884    1.071003    1.432057
      4          9           0       -1.676139   -0.952728   -1.191238
      5          6           0        0.361021    0.091679   -0.606401
      6          7           0       -1.876513    1.139749   -0.279676
      7          1           0       -2.032775    1.708255    0.538924
      8          1           0       -2.721329    0.736906   -0.655796
      9          7           0       -1.252777   -0.983191    1.048858
     10          1           0       -2.031318   -1.531409    0.719600
     11          1           0       -1.402031   -0.559134    1.950668
     12          7           0        1.265088   -0.950711   -0.013650
     13          8           0        1.219715   -2.059774   -0.540172
     14          8           0        1.969286   -0.646415    0.942587
     15          6           0        1.029771    1.388869   -0.581633
     16          7           0        1.619252    2.393741   -0.725248
 ---------------------------------------------------------------------

 SCF Done:  E(RHF) =  -683.506716694     A.U. after    2 cycles

 The electronic state is 1-A.
 Alpha  occ. eigenvalues --  -26.19274 -26.18009 -20.46244 -20.46046 -15.66024
 Alpha  occ. eigenvalues --  -15.39073 -15.36702 -15.36121 -11.29281 -11.21191
 Alpha  occ. eigenvalues --  -11.16852  -1.53374  -1.37257  -1.29525  -1.27168
 Alpha  occ. eigenvalues --   -1.09863  -1.08425  -1.03142  -1.01167  -0.81130
 Alpha  occ. eigenvalues --   -0.73184  -0.67389  -0.63178  -0.61353  -0.59895
 Alpha  occ. eigenvalues --   -0.57466  -0.57177  -0.56354  -0.51603  -0.48209
 Alpha  occ. eigenvalues --   -0.39669  -0.38857  -0.38527  -0.37372  -0.36025
 Alpha  occ. eigenvalues --   -0.35908  -0.35101  -0.34594  -0.33884  -0.33419
 Alpha  occ. eigenvalues --   -0.31889  -0.31257  -0.30486
 Alpha virt. eigenvalues --    0.13045   0.13962   0.14545   0.15491   0.16940
 Alpha virt. eigenvalues --    0.18678   0.19110   0.22218   0.22747   0.23026
 Alpha virt. eigenvalues --    0.24250   0.24680   0.25132   0.25959   0.27010

 Mulliken charges:
               1
     1  C   -1.957523
     2  H    0.384268
     3  F   -0.931454
     4  F   -0.962199
     5  C    0.270923
     6  N    0.841959
     7  H    0.348249
     8  H    0.306644
     9  N    0.618326
    10  H    0.330424
    11  H    0.309793
    12  N    3.211213
    13  O   -1.489796
    14  O   -1.497464
    15  C   -1.850367
    16  N    1.067003
 Sum of Mulliken charges =  -1.00000

 Dipole moment (field-independent basis, Debye):
    X=             -3.0849    Y=             -1.7120    Z=              0.2161  Tot=              3.5347

 Test job not archived.
 1\1\GINC-SE368\SP\RHF\Aug-CC-pVDZ\C3H5F2N4O2(1-)\OHZDE\09-Apr-2025\0\\
 #t hf aug-cc-pvdz iop(5/13=1,5/36=2,99/5=2) pseudo=read geom=check gue
 ss=(read,tcheck) scf=(maxcycle=1)\\title\\-1,1\C,0,0.68166904,-0.10068
 227,-0.01644032\H,0,1.52800099,1.83648182,-0.34143171\F,0,-1.10620086,
 -0.26136715,-0.16064968\F,0,2.44086168,0.04990656,0.15173075\C,0,0.544
 2454,1.43351925,-0.11529426\N,0,0.84515334,-0.74538984,-1.2872872\H,0,
 0.03914526,-1.33374162,-1.43532778\H,0,1.71529306,-1.25507814,-1.26409
 06\N,0,0.60751406,-0.69782286,1.282185\H,0,1.48278097,-1.16193863,1.46

 Normal termination of Gaussian 16 at Wed Apr  9 02:59:46 2025.
