 Gaussian 16, Revision C.01,

 ----------------------------------------------------------------------
 #t hf aug-cc-pvdz symm=none int=(grid=ultrafine) guess=(read,tcheck) s
 table=(opt,rrhf)
 ----------------------------------------------------------------------
 -----
 title
 -----
 Symbolic Z-matrix:
 Charge = -1 Multiplicity = 1

 SCF Done:  E(RHF) =  -465.669456116     A.U. after   13 cycles
 Normal termination of Gaussian 16 at Wed Apr  9 02:55:21 2025.
 Gaussian 16:  ES64L-G16RevC.01  3-Jul-2019

 ----------------------------------------------------------------------
 #t hf aug-cc-pvdz iop(5/13=1,5/36=2,99/5=2) pseudo=read geom=check gue
 ss=(read,tcheck) scf=(maxcycle=1)
 ----------------------------------------------------------------------
 -----
 title
 -----
 Structure from the checkpoint file:  "E2SN2_353_mol1.chk"
 Charge = -1 Multiplicity = 1

                         Standard orientation:
 ---------------------------------------------------------------------
 Center     Atomic      Atomic             Coordinates (Angstroms)
 Number     Number       Type             X           Y           Z
 ---------------------------------------------------------------------
      1          6           0       -0.534686   -0.004858    0.017512
      2          1           0        0.872022   -0.420769   -1.502541
      3          9           0       -0.531691    1.925064    0.237480
      4          9           0       -0.642490   -1.881699   -0.291206
      5          6           0        0.949597   -0.094050   -0.455288
      6          6           0       -1.655433    0.147677   -0.987196
      7          1           0       -2.095514    1.136725   -0.899679
      8          1           0       -1.266239    0.006417   -1.998835
      9          1           0       -2.397275   -0.630030   -0.810664
     10          6           0       -0.857357   -0.114292    1.485742
     11          1           0       -1.031043   -1.156911    1.744617
     12          1           0       -0.025736    0.275763    2.070989
     13          1           0       -1.739773    0.487261    1.703511
     14          7           0        1.662759   -1.068720    0.368338
     15          1           0        2.578976   -1.183803   -0.051751
     16          1           0        1.128888   -1.925365    0.266521
     17          7           0        1.765298    1.117102   -0.427076
     18          1           0        2.042196    1.202612    0.548005
     19          1           0        1.092005    1.872278   -0.540083
 ---------------------------------------------------------------------

 SCF Done:  E(RHF) =  -466.144936636     A.U. after    2 cycles

 The electronic state is 1-A.
 Alpha  occ. eigenvalues --  -26.14255 -26.13292 -15.32354 -15.31502 -11.18362
 Alpha  occ. eigenvalues --  -11.13516 -11.06942 -11.06890  -1.22688  -1.21268
 Alpha  occ. eigenvalues --   -1.06450  -0.96538  -0.89876  -0.79667  -0.73232
 Alpha  occ. eigenvalues --   -0.60215  -0.55386  -0.53746  -0.47278  -0.46522
 Alpha  occ. eigenvalues --   -0.45617  -0.42145  -0.41532  -0.40486  -0.37186
 Alpha  occ. eigenvalues --   -0.36491  -0.32777  -0.31231  -0.30265  -0.29241
 Alpha  occ. eigenvalues --   -0.28609  -0.28268  -0.27082  -0.25871
 Alpha virt. eigenvalues --    0.13644   0.14061   0.14347   0.15393   0.15573
 Alpha virt. eigenvalues --    0.16050   0.16438   0.17209   0.18090   0.19285
 Alpha virt. eigenvalues --    0.19790   0.23798   0.24695   0.25337   0.25795

 Mulliken charges:
               1
     1  C    0.416529
     2  H   -0.008278
     3  F   -0.937425
     4  F   -0.930789
     5  C   -2.275353
     6  C   -0.411651
     7  H    0.264245
     8  H    0.155468
     9  H    0.268538
    10  C   -0.278006
    11  H    0.279489
    12  H    0.261008
    13  H    0.191521
    14  N    0.539202
    15  H    0.153441
    16  H    0.189113
    17  N    0.555505
    18  H    0.338438
    19  H    0.229005
 Sum of Mulliken charges =  -1.00000

 Dipole moment (field-independent basis, Debye):
    X=              0.2624    Y=             -0.8073    Z=              0.0129  Tot=              0.8490

 Test job not archived.
 1\1\GINC-SE284\SP\RHF\Aug-CC-pVDZ\C4H11F2N2(1-)\OHZDE\09-Apr-2025\0\\#
 t hf aug-cc-pvdz iop(5/13=1,5/36=2,99/5=2) pseudo=read geom=check gues
 s=(read,tcheck) scf=(maxcycle=1)\\title\\-1,1\C,0,0.5608743,0.0068444,
 -0.05923148\H,0,1.35753756,1.73913337,-0.96855928\F,0,-1.25948735,-0.1
 5534098,-0.717237\F,0,2.38677395,0.08361704,0.47896904\C,0,0.61435379,
 1.56175096,-0.17753746\C,0,1.01499985,-0.86912289,-1.20606719\H,0,0.15
 947551,-1.376332,-1.64237284\H,0,1.50661544,-0.2566491,-1.96634993\H,0
 ,1.74945282,-1.58347777,-0.83647607\C,0,0.09223999,-0.62749212,1.22520

 Normal termination of Gaussian 16 at Wed Apr  9 02:55:30 2025.
