 Gaussian 16, Revision C.01,

 ----------------------------------------------------------------------
 #t hf aug-cc-pvdz symm=none int=(grid=ultrafine) guess=(read,tcheck) s
 table=(opt,rrhf)
 ----------------------------------------------------------------------
 -----
 title
 -----
 Symbolic Z-matrix:
 Charge = -1 Multiplicity = 1

 SCF Done:  E(RHF) =  -931.164890643     A.U. after   15 cycles
 Normal termination of Gaussian 16 at Wed Apr  9 03:00:51 2025.
 Gaussian 16:  ES64L-G16RevC.01  3-Jul-2019

 ----------------------------------------------------------------------
 #t hf aug-cc-pvdz iop(5/13=1,5/36=2,99/5=2) pseudo=read geom=check gue
 ss=(read,tcheck) scf=(maxcycle=1)
 ----------------------------------------------------------------------
 -----
 title
 -----
 Structure from the checkpoint file:  "E2SN2_417_mol1.chk"
 Charge = -1 Multiplicity = 1

                         Standard orientation:
 ---------------------------------------------------------------------
 Center     Atomic      Atomic             Coordinates (Angstroms)
 Number     Number       Type             X           Y           Z
 ---------------------------------------------------------------------
      1          6           0        0.865547   -0.009793    0.002026
      2          1           0       -0.053615    1.103645   -1.515763
      3         17           0       -0.320404   -1.152998    1.565203
      4          9           0        1.868374    0.966151   -1.328505
      5          6           0       -0.421497    0.499725   -0.680112
      6          7           0        1.428903   -1.204389   -0.545154
      7          1           0        1.612003   -1.876193    0.184606
      8          1           0        2.266085   -0.912631   -1.030657
      9          7           0        1.443442    0.858920    0.978846
     10          1           0        2.273157    1.240454    0.545457
     11          1           0        1.641372    0.353310    1.828878
     12          6           0       -1.225600    1.377306    0.171344
     13          7           0       -1.904991    2.138650    0.751591
     14          6           0       -1.248402   -0.567743   -1.244651
     15          7           0       -1.957039   -1.336031   -1.779006
 ---------------------------------------------------------------------

 SCF Done:  E(RHF) =  -931.704025600     A.U. after    2 cycles

 The electronic state is 1-A.
 Alpha  occ. eigenvalues -- -105.34749 -26.18627 -15.40011 -15.39996 -15.38139
 Alpha  occ. eigenvalues --  -15.38098 -11.31026 -11.20692 -11.17789 -11.17780
 Alpha  occ. eigenvalues --  -10.39658  -7.56475  -7.56326  -7.56303  -1.27610
 Alpha  occ. eigenvalues --   -1.13085  -1.10646  -1.09901  -1.04844  -0.97817
 Alpha  occ. eigenvalues --   -0.82405  -0.74330  -0.67163  -0.61182  -0.58823
 Alpha  occ. eigenvalues --   -0.58685  -0.57295  -0.55199  -0.49382  -0.48557
 Alpha  occ. eigenvalues --   -0.39626  -0.39494  -0.38979  -0.37464  -0.36817
 Alpha  occ. eigenvalues --   -0.35284  -0.34990  -0.33411  -0.33269  -0.27901
 Alpha  occ. eigenvalues --   -0.27537  -0.27092
 Alpha virt. eigenvalues --    0.12717   0.13672   0.14436   0.15309   0.16669
 Alpha virt. eigenvalues --    0.18230   0.18975   0.20752   0.22112   0.23183
 Alpha virt. eigenvalues --    0.23606   0.24534   0.24547   0.24977   0.25268

 Mulliken charges:
               1
     1  C   -2.757029
     2  H    0.503058
     3  Cl  -0.550730
     4  F   -0.931389
     5  C    0.466051
     6  N    0.751599
     7  H    0.308814
     8  H    0.348152
     9  N    0.749595
    10  H    0.355900
    11  H    0.307337
    12  C   -1.193168
    13  N    0.917070
    14  C   -1.191033
    15  N    0.915773
 Sum of Mulliken charges =  -1.00000

 Dipole moment (field-independent basis, Debye):
    X=              4.9238    Y=             -0.1526    Z=              0.0986  Tot=              4.9272

 Test job not archived.
 1\1\GINC-SE109\SP\RHF\Aug-CC-pVDZ\C4H5Cl1F1N4(1-)\OHZDE\09-Apr-2025\0\
 \#t hf aug-cc-pvdz iop(5/13=1,5/36=2,99/5=2) pseudo=read geom=check gu
 ess=(read,tcheck) scf=(maxcycle=1)\\title\\-1,1\C,0,0.57749468,-0.1335
 8004,-0.00129999\H,0,1.69890426,1.63571721,-0.01904412\Cl,0,-1.6932680
 5,-0.13839197,0.02178438\F,0,2.50830487,-0.12294186,-0.01863664\C,0,0.
 62813642,1.40876857,-0.00117213\N,0,0.63524277,-0.75810819,-1.28600474
 \H,0,-0.10930279,-1.43112884,-1.38645545\H,0,1.55387149,-1.17576156,-1
 .34428378\N,0,0.65857625,-0.76362412,1.27904027\H,0,1.5836496,-1.16865

 Normal termination of Gaussian 16 at Wed Apr  9 03:00:59 2025.
