 Gaussian 16, Revision C.01,

 ----------------------------------------------------------------------
 #t hf aug-cc-pvdz symm=none int=(grid=ultrafine) guess=(read,tcheck) s
 table=(opt,rrhf)
 ----------------------------------------------------------------------
 -----
 title
 -----
 Symbolic Z-matrix:
 Charge = -1 Multiplicity = 1

 SCF Done:  E(RHF) =  -1083.66515163     A.U. after   16 cycles
 Normal termination of Gaussian 16 at Wed Apr  9 02:40:40 2025.
 Gaussian 16:  ES64L-G16RevC.01  3-Jul-2019

 ----------------------------------------------------------------------
 #t hf aug-cc-pvdz iop(5/13=1,5/36=2,99/5=2) pseudo=read geom=check gue
 ss=(read,tcheck) scf=(maxcycle=1)
 ----------------------------------------------------------------------
 -----
 title
 -----
 Structure from the checkpoint file:  "E2SN2_171_mol2.chk"
 Charge = -1 Multiplicity = 1

                         Standard orientation:
 ---------------------------------------------------------------------
 Center     Atomic      Atomic             Coordinates (Angstroms)
 Number     Number       Type             X           Y           Z
 ---------------------------------------------------------------------
      1          6           0       -0.513413    0.335970   -0.239317
      2          6           0        0.722223    0.354614    0.656623
      3         17           0       -1.587440    1.761159    0.252738
      4          1           0        0.783196    1.354619    1.104840
      5          1           0       -0.263047    0.498650   -1.273894
      6          7           0       -1.462051   -0.821103   -0.207244
      7          8           0       -2.082786   -1.011593   -1.245129
      8          8           0       -1.682874   -1.382892    0.859581
      9          7           0        1.942140    0.358455   -0.241901
     10          8           0        1.891132    1.080930   -1.233355
     11          8           0        2.954208   -0.206277    0.151389
     12          6           0        0.850851   -0.688308    1.741752
     13          1           0        0.858845   -1.659952    1.258080
     14          1           0        0.010932   -0.608786    2.430494
     15          1           0        1.781651   -0.518452    2.284041
     16          9           0        0.606541   -1.513582   -0.907816
 ---------------------------------------------------------------------

 SCF Done:  E(RHF) =  -1084.34131372     A.U. after    2 cycles

 The electronic state is 1-A.
 Alpha  occ. eigenvalues -- -105.45613 -26.10814 -20.45462 -20.45082 -20.45043
 Alpha  occ. eigenvalues --  -20.45031 -15.66053 -15.65363 -11.25245 -11.20275
 Alpha  occ. eigenvalues --  -11.10672 -10.50442  -7.67374  -7.67027  -7.67007
 Alpha  occ. eigenvalues --   -1.53041  -1.52774  -1.36761  -1.36590  -1.18318
 Alpha  occ. eigenvalues --   -1.06149  -0.98341  -0.90165  -0.84657  -0.76523
 Alpha  occ. eigenvalues --   -0.70729  -0.65737  -0.63934  -0.62043  -0.60978
 Alpha  occ. eigenvalues --   -0.60253  -0.58056  -0.51187  -0.47147  -0.45518
 Alpha  occ. eigenvalues --   -0.42636  -0.41659  -0.37176  -0.36001  -0.34969
 Alpha  occ. eigenvalues --   -0.34692  -0.34536  -0.34193  -0.31491  -0.31200
 Alpha  occ. eigenvalues --   -0.27576  -0.27252  -0.27026
 Alpha virt. eigenvalues --    0.12614   0.13728   0.14528   0.16069   0.17338
 Alpha virt. eigenvalues --    0.18188   0.19229   0.20076   0.22043   0.23070
 Alpha virt. eigenvalues --    0.23791   0.24398   0.25719   0.26297   0.26650

 Mulliken charges:
               1
     1  C   -0.717565
     2  C   -0.521434
     3  Cl  -0.177100
     4  H    0.077206
     5  H    0.347765
     6  N    3.365238
     7  O   -1.569176
     8  O   -1.616661
     9  N    3.276472
    10  O   -1.632961
    11  O   -1.557089
    12  C   -0.150362
    13  H    0.417740
    14  H    0.252218
    15  H    0.149331
    16  F   -0.943623
 Sum of Mulliken charges =  -1.00000

 Dipole moment (field-independent basis, Debye):
    X=             -1.0703    Y=              4.8121    Z=              4.3124  Tot=              6.5497

 Test job not archived.
 1\1\GINC-SE036\SP\RHF\Aug-CC-pVDZ\C3H5Cl1F1N2O4(1-)\OHZDE\09-Apr-2025\
 0\\#t hf aug-cc-pvdz iop(5/13=1,5/36=2,99/5=2) pseudo=read geom=check
 guess=(read,tcheck) scf=(maxcycle=1)\\title\\-1,1\C,0,-0.042437,0.0021
 99,-0.014964\C,0,-0.44941,-0.028758,-1.485769\Cl,0,1.806203,-0.059663,
 0.059317\H,0,0.437979,0.238293,-2.073861\H,0,-0.326135,0.925013,0.4619
 28\N,0,-0.448937,-1.099522,0.912792\O,0,-0.547882,-0.776445,2.089497\O
 ,0,-0.491355,-2.249833,0.491521\N,0,-1.34409,1.167061,-1.740955\O,0,-1
 .006909,2.225987,-1.218903\O,0,-2.232855,1.059172,-2.575423\C,0,-1.059

 Normal termination of Gaussian 16 at Wed Apr  9 02:40:51 2025.
