 Gaussian 16, Revision C.01,

 ----------------------------------------------------------------------
 #t hf aug-cc-pvdz symm=none int=(grid=ultrafine) guess=(read,tcheck) s
 table=(opt,rrhf)
 ----------------------------------------------------------------------
 -----
 title
 -----
 Symbolic Z-matrix:
 Charge = -1 Multiplicity = 1

 SCF Done:  E(RHF) =  -852.235599242     A.U. after   17 cycles
 Normal termination of Gaussian 16 at Wed Apr  9 02:41:03 2025.
 Gaussian 16:  ES64L-G16RevC.01  3-Jul-2019

 ----------------------------------------------------------------------
 #t hf aug-cc-pvdz iop(5/13=1,5/36=2,99/5=2) pseudo=read geom=check gue
 ss=(read,tcheck) scf=(maxcycle=1)
 ----------------------------------------------------------------------
 -----
 title
 -----
 Structure from the checkpoint file:  "E2SN2_199_mol1.chk"
 Charge = -1 Multiplicity = 1

                         Standard orientation:
 ---------------------------------------------------------------------
 Center     Atomic      Atomic             Coordinates (Angstroms)
 Number     Number       Type             X           Y           Z
 ---------------------------------------------------------------------
      1          6           0       -0.838235    0.650081    0.697545
      2          1           0        1.081809    0.600703    1.618742
      3         17           0       -1.720659   -0.712208   -0.683241
      4          1           0       -0.518797    1.844594    2.381748
      5          6           0        0.513646   -0.019181    0.934882
      6          1           0       -1.556659    0.445271    1.472083
      7          7           0       -0.874366    1.805650   -0.141290
      8          1           0       -0.590049    2.574940    0.448583
      9          1           0       -1.834970    1.946849   -0.429566
     10          7           0        1.365655    0.040367   -0.347366
     11          8           0        1.540075   -0.996758   -0.986936
     12          8           0        1.892309    1.119684   -0.605958
     13          7           0        0.367734   -1.335570    1.443345
     14          1           0        1.274432   -1.745182    1.621564
     15          1           0       -0.129262   -1.901564    0.767703
 ---------------------------------------------------------------------

 SCF Done:  E(RHF) =  -852.712639994     A.U. after    2 cycles

 The electronic state is 1-A.
 Alpha  occ. eigenvalues -- -105.37021 -20.46003 -20.45898 -15.64651 -15.38682
 Alpha  occ. eigenvalues --  -15.36677 -11.23307 -11.21116 -10.41846  -7.58692
 Alpha  occ. eigenvalues --   -7.58494  -7.58462  -1.52754  -1.36743  -1.12171
 Alpha  occ. eigenvalues --   -1.07566  -0.93635  -0.85851  -0.79408  -0.70612
 Alpha  occ. eigenvalues --   -0.65253  -0.62704  -0.61488  -0.59225  -0.57653
 Alpha  occ. eigenvalues --   -0.54526  -0.50820  -0.46184  -0.40014  -0.36111
 Alpha  occ. eigenvalues --   -0.35274  -0.33461  -0.32473  -0.29933  -0.28930
 Alpha  occ. eigenvalues --   -0.28352  -0.11452
 Alpha virt. eigenvalues --    0.12952   0.14236   0.15173   0.15863   0.16573
 Alpha virt. eigenvalues --    0.17877   0.19107   0.20051   0.21809   0.22563
 Alpha virt. eigenvalues --    0.23051   0.24748   0.25753   0.26147   0.26765

 Mulliken charges:
               1
     1  C   -1.602313
     2  H    0.122704
     3  Cl  -0.509914
     4  H   -0.626696
     5  C   -0.988149
     6  H    0.081370
     7  N    0.743310
     8  H    0.303926
     9  H    0.207044
    10  N    2.905863
    11  O   -1.416382
    12  O   -1.462353
    13  N    0.718424
    14  H    0.221166
    15  H    0.301998
 Sum of Mulliken charges =  -1.00000

 Dipole moment (field-independent basis, Debye):
    X=              1.7408    Y=             -3.6148    Z=             -2.6860  Tot=              4.8282

 Test job not archived.
 1\1\GINC-SE345\SP\RHF\Aug-CC-pVDZ\C2H7Cl1N3O2(1-)\OHZDE\09-Apr-2025\0\
 \#t hf aug-cc-pvdz iop(5/13=1,5/36=2,99/5=2) pseudo=read geom=check gu
 ess=(read,tcheck) scf=(maxcycle=1)\\title\\-1,1\C,0,0.46615693,-0.0569
 6038,0.01528533\H,0,1.74093166,1.6359096,0.23150918\Cl,0,-1.63922472,-
 0.14344644,-0.30246288\H,0,2.52404851,-0.33287302,-0.2179445\C,0,0.688
 15878,1.45345893,0.04954281\H,0,0.70232154,-0.50065058,-0.93621572\N,0
 ,0.49046139,-0.7648421,1.25568889\H,0,1.46853123,-0.90705065,1.4648543
 7\H,0,0.04976433,-1.66430041,1.10548708\N,0,0.02866968,2.05663795,1.30

 Normal termination of Gaussian 16 at Wed Apr  9 02:41:09 2025.
