 Gaussian 16, Revision C.01,

 ----------------------------------------------------------------------
 #t hf aug-cc-pvdz symm=none int=(grid=ultrafine) guess=(read,tcheck) s
 table=(opt,rrhf)
 ----------------------------------------------------------------------
 -----
 title
 -----
 Symbolic Z-matrix:
 Charge = -1 Multiplicity = 1

 SCF Done:  E(RHF) =  -784.416122729     A.U. after   15 cycles
 Normal termination of Gaussian 16 at Wed Apr  9 02:38:31 2025.
 Gaussian 16:  ES64L-G16RevC.01  3-Jul-2019

 ----------------------------------------------------------------------
 #t hf aug-cc-pvdz iop(5/13=1,5/36=2,99/5=2) pseudo=read geom=check gue
 ss=(read,tcheck) scf=(maxcycle=1)
 ----------------------------------------------------------------------
 -----
 title
 -----
 Structure from the checkpoint file:  "E2SN2_16_mol1.chk"
 Charge = -1 Multiplicity = 1

                         Standard orientation:
 ---------------------------------------------------------------------
 Center     Atomic      Atomic             Coordinates (Angstroms)
 Number     Number       Type             X           Y           Z
 ---------------------------------------------------------------------
      1          6           0        0.001412   -0.545386    0.429122
      2          6           0       -0.245939    0.736191   -0.362673
      3         17           0        1.519058   -1.363276   -0.210258
      4          9           0       -2.867259    0.425465   -0.217088
      5          1           0       -1.354137    0.957901   -0.199472
      6          1           0        0.259472   -0.312766    1.463739
      7          1           0       -0.162061    0.520721   -1.432202
      8          7           0       -1.102615   -1.458757    0.402165
      9          1           0       -1.631965   -1.260339   -0.445528
     10          1           0       -1.767971   -1.074437    1.068304
     11          6           0        0.666989    1.807545   -0.014381
     12          7           0        1.403077    2.676661    0.277967
 ---------------------------------------------------------------------

 SCF Done:  E(RHF) =  -784.816974265     A.U. after    2 cycles

 The electronic state is 1-A.
 Alpha  occ. eigenvalues -- -105.42382 -26.10420 -15.38632 -15.35420 -11.21410
 Alpha  occ. eigenvalues --  -11.16349 -11.12502 -10.47284  -7.64201  -7.63866
 Alpha  occ. eigenvalues --   -7.63861  -1.16937  -1.09739  -1.08272  -0.94415
 Alpha  occ. eigenvalues --   -0.88565  -0.72007  -0.60585  -0.54675  -0.53116
 Alpha  occ. eigenvalues --   -0.49458  -0.47564  -0.44678  -0.40518  -0.37418
 Alpha  occ. eigenvalues --   -0.35629  -0.33262  -0.32714  -0.31719  -0.26775
 Alpha  occ. eigenvalues --   -0.26371  -0.24496
 Alpha virt. eigenvalues --    0.14256   0.14808   0.16202   0.17342   0.18104
 Alpha virt. eigenvalues --    0.18342   0.19795   0.23682   0.23901   0.25134
 Alpha virt. eigenvalues --    0.25686   0.26164   0.26426   0.27664   0.28231

 Mulliken charges:
               1
     1  C   -1.382959
     2  C    0.748107
     3  Cl  -0.152397
     4  F   -1.008339
     5  H    0.398007
     6  H    0.160915
     7  H    0.185257
     8  N    0.252120
     9  H    0.281820
    10  H    0.313410
    11  C   -1.605207
    12  N    0.809266
 Sum of Mulliken charges =  -1.00000

 Dipole moment (field-independent basis, Debye):
    X=              4.0053    Y=             -2.8487    Z=              0.1983  Tot=              4.9190

 Test job not archived.
 1\1\GINC-SE367\SP\RHF\Aug-CC-pVDZ\C3H5Cl1F1N2(1-)\OHZDE\09-Apr-2025\0\
 \#t hf aug-cc-pvdz iop(5/13=1,5/36=2,99/5=2) pseudo=read geom=check gu
 ess=(read,tcheck) scf=(maxcycle=1)\\title\\-1,1\C,0,-0.0837594,0.00805
 246,-0.37869466\C,0,-0.09444564,-0.0517658,1.14671339\Cl,0,1.64807164,
 0.21833452,-0.95967856\F,0,-2.41152941,1.21525035,1.26859805\H,0,-1.16
 763769,0.21539093,1.43092801\H,0,-0.37450144,-0.95499813,-0.80194549\H
 ,0,0.50906359,0.77014033,1.54370455\N,0,-0.91652216,1.04204538,-0.9183
 3735\H,0,-1.00647446,1.75738655,-0.19836533\H,0,-1.86031357,0.66877152

 Normal termination of Gaussian 16 at Wed Apr  9 02:38:35 2025.
