 Gaussian 16, Revision C.01,

 ----------------------------------------------------------------------
 #t hf aug-cc-pvdz symm=none int=(grid=ultrafine) guess=(read,tcheck) s
 table=(opt,rrhf)
 ----------------------------------------------------------------------
 -----
 title
 -----
 Symbolic Z-matrix:
 Charge = -1 Multiplicity = 1

 SCF Done:  E(RHF) =  -739.633940100     A.U. after   16 cycles
 Normal termination of Gaussian 16 at Wed Apr  9 02:43:44 2025.
 Gaussian 16:  ES64L-G16RevC.01  3-Jul-2019

 ----------------------------------------------------------------------
 #t hf aug-cc-pvdz iop(5/13=1,5/36=2,99/5=2) pseudo=read geom=check gue
 ss=(read,tcheck) scf=(maxcycle=1)
 ----------------------------------------------------------------------
 -----
 title
 -----
 Structure from the checkpoint file:  "E2SN2_213_mol2.chk"
 Charge = -1 Multiplicity = 1

                         Standard orientation:
 ---------------------------------------------------------------------
 Center     Atomic      Atomic             Coordinates (Angstroms)
 Number     Number       Type             X           Y           Z
 ---------------------------------------------------------------------
      1          6           0       -0.633573    0.227681    0.627136
      2          6           0        0.103702   -0.962054    0.009108
      3          9           0       -0.126829    0.496848    1.870957
      4          1           0        0.044575   -1.738750    0.768460
      5          1           0       -1.685389   -0.119936    0.655336
      6          7           0       -0.506163    1.476891   -0.188247
      7          8           0        0.134427    2.420318    0.264173
      8          8           0       -1.077711    1.460911   -1.277558
      9          7           0        1.562660   -0.630826   -0.138176
     10          8           0        2.368070   -1.195428    0.600878
     11          8           0        1.855900    0.190811   -1.006599
     12          7           0       -0.426337   -1.460145   -1.218249
     13          1           0       -1.386156   -1.724480   -0.889084
     14          1           0       -0.533695   -0.679989   -1.857740
     15          9           0       -2.530584   -1.612953    0.314722
 ---------------------------------------------------------------------

 SCF Done:  E(RHF) =  -740.339478222     A.U. after    2 cycles

 The electronic state is 1-A.
 Alpha  occ. eigenvalues --  -26.37243 -26.12697 -20.48811 -20.48517 -20.48299
 Alpha  occ. eigenvalues --  -20.48174 -15.68037 -15.67153 -15.36275 -11.26781
 Alpha  occ. eigenvalues --  -11.22530  -1.56012  -1.55104  -1.49986  -1.39599
 Alpha  occ. eigenvalues --   -1.39156  -1.19515  -1.11278  -1.00023  -0.94943
 Alpha  occ. eigenvalues --   -0.80777  -0.74053  -0.70432  -0.67144  -0.65592
 Alpha  occ. eigenvalues --   -0.64692  -0.63215  -0.61546  -0.59105  -0.57245
 Alpha  occ. eigenvalues --   -0.53995  -0.51497  -0.48861  -0.45297  -0.40060
 Alpha  occ. eigenvalues --   -0.38514  -0.38111  -0.37786  -0.34739  -0.33804
 Alpha  occ. eigenvalues --   -0.33174  -0.29187  -0.28757  -0.28202
 Alpha virt. eigenvalues --    0.15030   0.15554   0.15865   0.16453   0.17483
 Alpha virt. eigenvalues --    0.18342   0.21269   0.21479   0.22649   0.22880
 Alpha virt. eigenvalues --    0.24322   0.25079   0.26719   0.27487   0.27812

 Mulliken charges:
               1
     1  C    1.109767
     2  C   -1.799604
     3  F   -0.888139
     4  H    0.112570
     5  H    0.269809
     6  N    2.920610
     7  O   -1.429024
     8  O   -1.560781
     9  N    2.916177
    10  O   -1.423884
    11  O   -1.480564
    12  N    0.582309
    13  H    0.309122
    14  H    0.338249
    15  F   -0.976617
 Sum of Mulliken charges =  -1.00000

 Dipole moment (field-independent basis, Debye):
    X=              3.3681    Y=              2.8043    Z=              0.3111  Tot=              4.3938

 Test job not archived.
 1\1\GINC-SE164\SP\RHF\Aug-CC-pVDZ\C2H4F2N3O4(1-)\OHZDE\09-Apr-2025\0\\
 #t hf aug-cc-pvdz iop(5/13=1,5/36=2,99/5=2) pseudo=read geom=check gue
 ss=(read,tcheck) scf=(maxcycle=1)\\title\\-1,1\C,0,-0.231966,0.21282,0
 .055985\C,0,-0.401883,0.075792,-1.458397\F,0,1.097428,0.315194,0.36992
 8\H,0,0.256125,-0.747016,-1.729285\H,0,-0.696696,-0.715871,0.442648\N,
 0,-0.9174,1.423135,0.609995\O,0,-0.236687,2.336806,1.064888\O,0,-2.146
 852,1.40191,0.571011\N,0,0.150749,1.29589,-2.140982\O,0,1.194889,1.184
 848,-2.782154\O,0,-0.493667,2.337034,-2.014559\N,0,-1.722774,-0.204465

 Normal termination of Gaussian 16 at Wed Apr  9 02:43:52 2025.
