 Gaussian 16, Revision C.01,

 ----------------------------------------------------------------------
 #t hf aug-cc-pvdz symm=none int=(grid=ultrafine) guess=(read,tcheck) s
 table=(opt,rrhf)
 ----------------------------------------------------------------------
 -----
 title
 -----
 Symbolic Z-matrix:
 Charge = -1 Multiplicity = 1

 SCF Done:  E(RHF) =  -987.932327644     A.U. after   16 cycles
 Normal termination of Gaussian 16 at Wed Apr  9 02:45:14 2025.
 Gaussian 16:  ES64L-G16RevC.01  3-Jul-2019

 ----------------------------------------------------------------------
 #t hf aug-cc-pvdz iop(5/13=1,5/36=2,99/5=2) pseudo=read geom=check gue
 ss=(read,tcheck) scf=(maxcycle=1)
 ----------------------------------------------------------------------
 -----
 title
 -----
 Structure from the checkpoint file:  "E2SN2_239_mol2.chk"
 Charge = -1 Multiplicity = 1

                         Standard orientation:
 ---------------------------------------------------------------------
 Center     Atomic      Atomic             Coordinates (Angstroms)
 Number     Number       Type             X           Y           Z
 ---------------------------------------------------------------------
      1          6           0       -0.077873   -0.140924   -0.232656
      2          6           0        0.874189    0.442072    0.796422
      3         17           0        0.132196   -1.952935   -0.382256
      4          1           0        0.642228    1.528803    0.744247
      5          1           0        0.671391    0.033380    1.785017
      6          7           0       -1.531036   -0.069722    0.396872
      7          8           0       -1.655651   -0.146719    1.614534
      8          8           0       -2.452228    0.031912   -0.404149
      9          7           0        0.017897    0.506808   -1.438169
     10          1           0       -0.055122    1.559040   -1.163700
     11          1           0       -0.728209    0.214789   -2.057302
     12          6           0        2.261947    0.200429    0.433328
     13          7           0        3.399281    0.016962    0.206518
     14          9           0       -0.163017    2.732727   -0.292456
 ---------------------------------------------------------------------

 SCF Done:  E(RHF) =  -988.518941513     A.U. after    2 cycles

 The electronic state is 1-A.
 Alpha  occ. eigenvalues -- -105.46098 -26.13640 -20.47837 -20.47802 -15.66512
 Alpha  occ. eigenvalues --  -15.39837 -15.36201 -11.29219 -11.17529 -11.15919
 Alpha  occ. eigenvalues --  -10.50981  -7.67913  -7.67540  -7.67531  -1.54783
 Alpha  occ. eigenvalues --   -1.38923  -1.21102  -1.13778  -1.10167  -0.98200
 Alpha  occ. eigenvalues --   -0.92631  -0.89080  -0.72366  -0.66908  -0.63903
 Alpha  occ. eigenvalues --   -0.62794  -0.59285  -0.57270  -0.53950  -0.49369
 Alpha  occ. eigenvalues --   -0.48511  -0.44680  -0.41921  -0.38504  -0.37400
 Alpha  occ. eigenvalues --   -0.37017  -0.36206  -0.35623  -0.33644  -0.33209
 Alpha  occ. eigenvalues --   -0.30161  -0.29169  -0.28498
 Alpha virt. eigenvalues --    0.13743   0.14655   0.16521   0.17178   0.17405
 Alpha virt. eigenvalues --    0.17951   0.19186   0.21866   0.23014   0.24004
 Alpha virt. eigenvalues --    0.24425   0.25924   0.26073   0.26261   0.27148

 Mulliken charges:
               1
     1  C   -2.467076
     2  C    0.711296
     3  Cl  -0.062757
     4  H    0.346379
     5  H    0.249158
     6  N    3.330339
     7  O   -1.578267
     8  O   -1.555815
     9  N    0.792562
    10  H    0.509703
    11  H    0.354846
    12  C   -1.420657
    13  N    0.831699
    14  F   -1.041409
 Sum of Mulliken charges =  -1.00000

 Dipole moment (field-independent basis, Debye):
    X=             -2.2672    Y=             -5.5487    Z=              0.9910  Tot=              6.0754

 Test job not archived.
 1\1\GINC-SE412\SP\RHF\Aug-CC-pVDZ\C3H4Cl1F1N3O2(1-)\OHZDE\09-Apr-2025\
 0\\#t hf aug-cc-pvdz iop(5/13=1,5/36=2,99/5=2) pseudo=read geom=check
 guess=(read,tcheck) scf=(maxcycle=1)\\title\\-1,1\C,0,-0.003995,-0.000
 298,0.009693\C,0,-0.541544,0.476525,-1.327838\Cl,0,1.824023,-0.090369,
 -0.001709\H,0,-1.64153,0.448012,-1.164347\H,0,-0.192354,1.484239,-1.54
 7052\N,0,-0.228357,1.182865,1.040638\O,0,-0.211595,2.338905,0.631434\O
 ,0,-0.378644,0.847485,2.209181\N,0,-0.591837,-1.175431,0.404022\H,0,-1
 .656573,-0.975047,0.285532\H,0,-0.342176,-1.39257,1.360993\C,0,-0.1640

 Normal termination of Gaussian 16 at Wed Apr  9 02:45:22 2025.
