 Gaussian 16, Revision C.01,

 ----------------------------------------------------------------------
 #t hf aug-cc-pvdz symm=none int=(grid=ultrafine) guess=(read,tcheck) s
 table=(opt,rrhf)
 ----------------------------------------------------------------------
 -----
 title
 -----
 Symbolic Z-matrix:
 Charge = -1 Multiplicity = 1

 SCF Done:  E(RHF) =  -784.427773345     A.U. after   15 cycles
 Normal termination of Gaussian 16 at Wed Apr  9 02:38:32 2025.
 Gaussian 16:  ES64L-G16RevC.01  3-Jul-2019

 ----------------------------------------------------------------------
 #t hf aug-cc-pvdz iop(5/13=1,5/36=2,99/5=2) pseudo=read geom=check gue
 ss=(read,tcheck) scf=(maxcycle=1)
 ----------------------------------------------------------------------
 -----
 title
 -----
 Structure from the checkpoint file:  "E2SN2_16_mol2.chk"
 Charge = -1 Multiplicity = 1

                         Standard orientation:
 ---------------------------------------------------------------------
 Center     Atomic      Atomic             Coordinates (Angstroms)
 Number     Number       Type             X           Y           Z
 ---------------------------------------------------------------------
      1          6           0        0.127269   -0.551166   -0.310945
      2          6           0        0.206142    0.752196    0.468479
      3         17           0       -1.492880   -1.384147    0.043116
      4          1           0        1.229984    1.096902    0.287794
      5          1           0        0.036839   -0.336078   -1.382269
      6          1           0        0.105237    0.524244    1.532599
      7          7           0        1.213465   -1.370332    0.076234
      8          1           0        1.345846   -2.100068   -0.614169
      9          1           0        2.051719   -0.710227    0.063351
     10          6           0       -0.794070    1.730321    0.071331
     11          7           0       -1.580844    2.539221   -0.254819
     12          9           0        2.882772    0.587267   -0.082598
 ---------------------------------------------------------------------

 SCF Done:  E(RHF) =  -784.827127142     A.U. after    2 cycles

 The electronic state is 1-A.
 Alpha  occ. eigenvalues -- -105.41794 -26.11430 -15.38823 -15.33779 -11.20971
 Alpha  occ. eigenvalues --  -11.16450 -11.13126 -10.46696  -7.63605  -7.63286
 Alpha  occ. eigenvalues --   -7.63275  -1.18329  -1.09768  -1.07468  -0.93487
 Alpha  occ. eigenvalues --   -0.88791  -0.70857  -0.61179  -0.55074  -0.52096
 Alpha  occ. eigenvalues --   -0.50568  -0.46740  -0.45269  -0.40958  -0.36283
 Alpha  occ. eigenvalues --   -0.35953  -0.32819  -0.32479  -0.30276  -0.27799
 Alpha  occ. eigenvalues --   -0.26836  -0.26135
 Alpha virt. eigenvalues --    0.13913   0.14782   0.15460   0.17374   0.18181
 Alpha virt. eigenvalues --    0.19243   0.19789   0.23516   0.23919   0.24847
 Alpha virt. eigenvalues --    0.25869   0.26769   0.27434   0.27937   0.28005

 Mulliken charges:
               1
     1  C   -1.192511
     2  C    0.648641
     3  Cl  -0.165368
     4  H    0.270403
     5  H    0.084209
     6  H    0.222773
     7  N    0.451289
     8  H    0.205388
     9  H    0.258826
    10  C   -1.562143
    11  N    0.809996
    12  F   -1.031504
 Sum of Mulliken charges =  -1.00000

 Dipole moment (field-independent basis, Debye):
    X=             -3.7224    Y=             -3.4751    Z=             -0.1267  Tot=              5.0940

 Test job not archived.
 1\1\GINC-SE435\SP\RHF\Aug-CC-pVDZ\C3H5Cl1F1N2(1-)\OHZDE\09-Apr-2025\0\
 \#t hf aug-cc-pvdz iop(5/13=1,5/36=2,99/5=2) pseudo=read geom=check gu
 ess=(read,tcheck) scf=(maxcycle=1)\\title\\-1,1\C,0,-0.067128,-0.06100
 4,-1.488679\C,0,0.026706,0.04951,0.025077\Cl,0,-1.801229,-0.517079,-1.
 967209\H,0,1.096734,0.199234,0.204926\H,0,0.032967,0.933825,-1.938649\
 H,0,-0.261566,-0.911068,0.459456\N,0,0.853395,-1.043048,-1.923406\H,0,
 1.013686,-0.935401,-2.918099\H,0,1.748318,-0.811602,-1.390375\C,0,-0.7
 91065,1.114494,0.583592\N,0,-1.428034,1.985827,1.047009\F,0,2.723972,-

 Normal termination of Gaussian 16 at Wed Apr  9 02:38:36 2025.
