 Gaussian 16, Revision C.01,

 ----------------------------------------------------------------------
 #t hf aug-cc-pvdz symm=none int=(grid=ultrafine) guess=(read,tcheck) s
 table=(opt,rrhf)
 ----------------------------------------------------------------------
 -----
 title
 -----
 Symbolic Z-matrix:
 Charge = -1 Multiplicity = 1

 SCF Done:  E(RHF) =  -987.894217051     A.U. after   16 cycles
 Normal termination of Gaussian 16 at Wed Apr  9 02:42:25 2025.
 Gaussian 16:  ES64L-G16RevC.01  3-Jul-2019

 ----------------------------------------------------------------------
 #t hf aug-cc-pvdz iop(5/13=1,5/36=2,99/5=2) pseudo=read geom=check gue
 ss=(read,tcheck) scf=(maxcycle=1)
 ----------------------------------------------------------------------
 -----
 title
 -----
 Structure from the checkpoint file:  "E2SN2_203_mol1.chk"
 Charge = -1 Multiplicity = 1

                         Standard orientation:
 ---------------------------------------------------------------------
 Center     Atomic      Atomic             Coordinates (Angstroms)
 Number     Number       Type             X           Y           Z
 ---------------------------------------------------------------------
      1          6           0        0.787075    0.219788    0.531531
      2          1           0        0.137915   -0.388115   -1.445819
      3          9           0       -0.763313    0.622105    1.678591
      4         17           0        2.495457   -0.534923   -0.579700
      5          6           0       -0.293790   -0.020969   -0.510335
      6          1           0        0.930134   -0.555682    1.261839
      7          7           0        1.233616    1.560343    0.671211
      8          1           0        2.192374    1.561913    0.988888
      9          1           0        0.609892    1.944772    1.373395
     10          6           0       -1.074523    1.179443   -0.792234
     11          7           0       -1.665249    2.132302   -1.138596
     12          7           0       -1.205662   -1.136624   -0.064541
     13          8           0       -2.397502   -1.047621   -0.332863
     14          8           0       -0.661844   -2.106111    0.447736
 ---------------------------------------------------------------------

 SCF Done:  E(RHF) =  -988.480898969     A.U. after    2 cycles

 The electronic state is 1-A.
 Alpha  occ. eigenvalues -- -105.36739 -26.16399 -20.47804 -20.47657 -15.67931
 Alpha  occ. eigenvalues --  -15.40405 -15.38295 -11.26515 -11.24002 -11.17984
 Alpha  occ. eigenvalues --  -10.41589  -7.58425  -7.58248  -7.58225  -1.55332
 Alpha  occ. eigenvalues --   -1.39246  -1.24829  -1.11511  -1.09583  -1.03094
 Alpha  occ. eigenvalues --   -0.86481  -0.81805  -0.75476  -0.69585  -0.65439
 Alpha  occ. eigenvalues --   -0.63230  -0.60078  -0.57722  -0.56643  -0.51907
 Alpha  occ. eigenvalues --   -0.49268  -0.40660  -0.39327  -0.38448  -0.36766
 Alpha  occ. eigenvalues --   -0.36482  -0.34599  -0.33468  -0.32671  -0.32042
 Alpha  occ. eigenvalues --   -0.29032  -0.28835  -0.27426
 Alpha virt. eigenvalues --    0.13471   0.14169   0.15603   0.16820   0.17968
 Alpha virt. eigenvalues --    0.19054   0.19927   0.21796   0.22679   0.23655
 Alpha virt. eigenvalues --    0.23793   0.24819   0.25592   0.25730   0.26261

 Mulliken charges:
               1
     1  C   -0.714324
     2  H    0.216109
     3  F   -0.908957
     4  Cl  -0.550609
     5  C    0.311726
     6  H    0.151550
     7  N    0.583571
     8  H    0.196159
     9  H    0.300593
    10  C   -1.756024
    11  N    1.025268
    12  N    3.249677
    13  O   -1.510384
    14  O   -1.594355
 Sum of Mulliken charges =  -1.00000

 Dipole moment (field-independent basis, Debye):
    X=              1.7878    Y=             -1.3602    Z=             -0.2643  Tot=              2.2619

 Test job not archived.
 1\1\GINC-SE036\SP\RHF\Aug-CC-pVDZ\C3H4Cl1F1N3O2(1-)\OHZDE\09-Apr-2025\
 0\\#t hf aug-cc-pvdz iop(5/13=1,5/36=2,99/5=2) pseudo=read geom=check
 guess=(read,tcheck) scf=(maxcycle=1)\\title\\-1,1\C,0,0.78116161,-0.07
 389647,0.0348922\H,0,1.70394877,1.88548092,-0.06595242\F,0,-1.18249646
 ,0.08343048,0.05950167\Cl,0,2.91054065,-0.30607446,-0.33229731\C,0,0.7
 0727422,1.44472152,0.02713471\H,0,0.57507521,-0.56859932,-0.89675558\N
 ,0,0.74367475,-0.69538111,1.31095986\H,0,1.24403885,-1.57182606,1.2707
 2807\H,0,-0.24739702,-0.84153012,1.47312189\C,0,0.06736155,1.97847799,

 Normal termination of Gaussian 16 at Wed Apr  9 02:42:33 2025.
