 Gaussian 16, Revision C.01,

 ----------------------------------------------------------------------
 #t hf aug-cc-pvdz symm=none int=(grid=ultrafine) guess=(read,tcheck) s
 table=(opt,rrhf)
 ----------------------------------------------------------------------
 -----
 title
 -----
 Symbolic Z-matrix:
 Charge = -1 Multiplicity = 1

 SCF Done:  E(RHF) =  -821.089726635     A.U. after   16 cycles
 Normal termination of Gaussian 16 at Wed Apr  9 02:45:33 2025.
 Gaussian 16:  ES64L-G16RevC.01  3-Jul-2019

 ----------------------------------------------------------------------
 #t hf aug-cc-pvdz iop(5/13=1,5/36=2,99/5=2) pseudo=read geom=check gue
 ss=(read,tcheck) scf=(maxcycle=1)
 ----------------------------------------------------------------------
 -----
 title
 -----
 Structure from the checkpoint file:  "E2SN2_248_mol1.chk"
 Charge = -1 Multiplicity = 1

                         Standard orientation:
 ---------------------------------------------------------------------
 Center     Atomic      Atomic             Coordinates (Angstroms)
 Number     Number       Type             X           Y           Z
 ---------------------------------------------------------------------
      1          6           0        0.558769    0.293423   -0.502284
      2          1           0        0.436746   -1.674086   -1.223904
      3         17           0       -1.064034    1.678555   -0.247676
      4          9           0        2.180172   -0.728785   -0.886811
      5          6           0       -0.273232   -0.896300   -0.947688
      6          1           0        1.017361    0.912824   -1.247480
      7          1           0       -0.868846   -0.605188   -1.814721
      8          6           0        1.078197    0.337079    0.840400
      9          7           0        1.446230    0.392122    1.955507
     10          6           0       -1.182276   -1.408687    0.074171
     11          7           0       -1.904367   -1.901124    0.857394
 ---------------------------------------------------------------------

 SCF Done:  E(RHF) =  -821.512163423     A.U. after    2 cycles

 The electronic state is 1-A.
 Alpha  occ. eigenvalues -- -105.37895 -26.15948 -15.40115 -15.38815 -11.26196
 Alpha  occ. eigenvalues --  -11.17834 -11.17595 -11.16939 -10.42690  -7.59542
 Alpha  occ. eigenvalues --   -7.59323  -7.59314  -1.23567  -1.10760  -1.09075
 Alpha  occ. eigenvalues --   -0.99499  -0.86654  -0.80844  -0.65117  -0.56614
 Alpha  occ. eigenvalues --   -0.54066  -0.52579  -0.48592  -0.47325  -0.42478
 Alpha  occ. eigenvalues --   -0.38087  -0.37794  -0.36368  -0.34495  -0.31695
 Alpha  occ. eigenvalues --   -0.31128  -0.29512  -0.29208  -0.26983
 Alpha virt. eigenvalues --    0.13171   0.14638   0.15366   0.17142   0.19443
 Alpha virt. eigenvalues --    0.19744   0.22063   0.22777   0.23661   0.24396
 Alpha virt. eigenvalues --    0.25193   0.25803   0.26102   0.26463   0.26850

 Mulliken charges:
               1
     1  C    0.682505
     2  H    0.373195
     3  Cl  -0.513098
     4  F   -0.877052
     5  C    0.325546
     6  H   -0.052506
     7  H    0.269325
     8  C   -1.535471
     9  N    0.865978
    10  C   -1.370366
    11  N    0.831944
 Sum of Mulliken charges =  -1.00000

 Dipole moment (field-independent basis, Debye):
    X=             -1.8255    Y=              0.3185    Z=             -4.8791  Tot=              5.2191

 Test job not archived.
 1\1\GINC-SE459\SP\RHF\Aug-CC-pVDZ\C4H3Cl1F1N2(1-)\OHZDE\09-Apr-2025\0\
 \#t hf aug-cc-pvdz iop(5/13=1,5/36=2,99/5=2) pseudo=read geom=check gu
 ess=(read,tcheck) scf=(maxcycle=1)\\title\\-1,1\C,0,0.58574367,-0.0527
 2391,-0.02467827\H,0,1.74342304,1.69818,-0.05345023\Cl,0,-1.54848676,-
 0.18646941,0.18527357\F,0,2.53789134,-0.14865266,0.0157518\C,0,0.68049
 701,1.4625921,-0.05450053\H,0,0.74474753,-0.56345088,0.90438452\H,0,0.
 20525483,1.86328239,0.84262877\C,0,0.71850675,-0.79926066,-1.24924727\
 N,0,0.76738494,-1.39529164,-2.26132403\C,0,0.04691138,2.08039653,-1.21

 Normal termination of Gaussian 16 at Wed Apr  9 02:45:38 2025.
