 Gaussian 16, Revision C.01,

 ----------------------------------------------------------------------
 #t hf aug-cc-pvdz symm=none int=(grid=ultrafine) guess=(read,tcheck) s
 table=(opt,rrhf)
 ----------------------------------------------------------------------
 -----
 title
 -----
 Symbolic Z-matrix:
 Charge = -1 Multiplicity = 1

 SCF Done:  E(RHF) =  -1347.96638009     A.U. after   16 cycles
 Normal termination of Gaussian 16 at Wed Apr  9 02:51:42 2025.
 Gaussian 16:  ES64L-G16RevC.01  3-Jul-2019

 ----------------------------------------------------------------------
 #t hf aug-cc-pvdz iop(5/13=1,5/36=2,99/5=2) pseudo=read geom=check gue
 ss=(read,tcheck) scf=(maxcycle=1)
 ----------------------------------------------------------------------
 -----
 title
 -----
 Structure from the checkpoint file:  "E2SN2_294_mol1.chk"
 Charge = -1 Multiplicity = 1

                         Standard orientation:
 ---------------------------------------------------------------------
 Center     Atomic      Atomic             Coordinates (Angstroms)
 Number     Number       Type             X           Y           Z
 ---------------------------------------------------------------------
      1          6           0       -0.468499    0.424748   -0.318534
      2          1           0        0.966648   -0.289531   -1.717660
      3         17           0       -2.435486   -0.921105   -0.252964
      4         17           0        1.470589    1.775266   -0.131632
      5          6           0        0.387071   -0.687979   -0.892655
      6          1           0       -0.241792   -1.511245   -1.225791
      7          6           0       -0.703510    0.655592    1.087046
      8          7           0       -0.952516    0.964759    2.196830
      9          7           0       -1.058106    1.266438   -1.316025
     10          1           0       -0.579748    2.157192   -1.313997
     11          1           0       -2.039639    1.383357   -1.106704
     12          7           0        1.363022   -1.298344    0.046976
     13          8           0        2.410830   -1.706687   -0.450266
     14          8           0        1.031746   -1.436395    1.219350
 ---------------------------------------------------------------------

 SCF Done:  E(RHF) =  -1348.53982721     A.U. after    2 cycles

 The electronic state is 1-A.
 Alpha  occ. eigenvalues -- -105.36350-105.35910 -20.48395 -20.48087 -15.68002
 Alpha  occ. eigenvalues --  -15.41527 -15.40033 -11.32844 -11.21525 -11.18330
 Alpha  occ. eigenvalues --  -10.41164 -10.40711  -7.57983  -7.57827  -7.57810
 Alpha  occ. eigenvalues --   -7.57527  -7.57373  -7.57357  -1.55496  -1.39415
 Alpha  occ. eigenvalues --   -1.14899  -1.09398  -1.03298  -0.89278  -0.83746
 Alpha  occ. eigenvalues --   -0.80433  -0.78240  -0.70116  -0.64941  -0.64484
 Alpha  occ. eigenvalues --   -0.61993  -0.61045  -0.54885  -0.51280  -0.49213
 Alpha  occ. eigenvalues --   -0.42608  -0.40787  -0.38445  -0.37788  -0.36432
 Alpha  occ. eigenvalues --   -0.33845  -0.30292  -0.29167  -0.28641  -0.28066
 Alpha  occ. eigenvalues --   -0.27377  -0.26493
 Alpha virt. eigenvalues --    0.12980   0.14032   0.14881   0.14947   0.16203
 Alpha virt. eigenvalues --    0.17548   0.18837   0.20450   0.21159   0.21735
 Alpha virt. eigenvalues --    0.22737   0.24536   0.24961   0.25411   0.25899

 Mulliken charges:
               1
     1  C   -1.144123
     2  H    0.202214
     3  Cl  -0.565794
     4  Cl  -0.576026
     5  C    0.276974
     6  H    0.249376
     7  C   -1.700876
     8  N    1.051669
     9  N    0.752423
    10  H    0.276550
    11  H    0.207943
    12  N    2.785103
    13  O   -1.465548
    14  O   -1.349886
 Sum of Mulliken charges =  -1.00000

 Dipole moment (field-independent basis, Debye):
    X=              0.3182    Y=             -0.2340    Z=             -4.4181  Tot=              4.4357

 Test job not archived.
 1\1\GINC-SE097\SP\RHF\Aug-CC-pVDZ\C3H4Cl2N3O2(1-)\OHZDE\09-Apr-2025\0\
 \#t hf aug-cc-pvdz iop(5/13=1,5/36=2,99/5=2) pseudo=read geom=check gu
 ess=(read,tcheck) scf=(maxcycle=1)\\title\\-1,1\C,0,0.54562046,-0.0862
 3326,-0.01331832\H,0,1.17912517,1.83040309,0.65941342\Cl,0,-1.77056057
 ,-0.48175544,0.39106385\Cl,0,2.81415114,0.19618122,-0.64013935\C,0,0.3
 9279297,1.42177694,0.0349063\H,0,-0.5872424,1.68745469,0.42626349\C,0,
 0.37468014,-0.90471472,-1.19019747\N,0,0.28860196,-1.67700957,-2.07640
 185\N,0,0.88238318,-0.66835941,1.25111257\H,0,1.85139837,-0.95608657,1

 Normal termination of Gaussian 16 at Wed Apr  9 02:51:50 2025.
