 Gaussian 16, Revision C.01,

 ----------------------------------------------------------------------
 #t hf aug-cc-pvdz symm=none int=(grid=ultrafine) guess=(read,tcheck) s
 table=(opt,rrhf)
 ----------------------------------------------------------------------
 -----
 title
 -----
 Symbolic Z-matrix:
 Charge = -1 Multiplicity = 1

 SCF Done:  E(RHF) =  -364.434003678     A.U. after   16 cycles
 Normal termination of Gaussian 16 at Wed Apr  9 02:50:56 2025.
 Gaussian 16:  ES64L-G16RevC.01  3-Jul-2019

 ----------------------------------------------------------------------
 #t hf aug-cc-pvdz iop(5/13=1,5/36=2,99/5=2) pseudo=read geom=check gue
 ss=(read,tcheck) scf=(maxcycle=1)
 ----------------------------------------------------------------------
 -----
 title
 -----
 Structure from the checkpoint file:  "E2SN2_297_mol2.chk"
 Charge = -1 Multiplicity = 1

                         Standard orientation:
 ---------------------------------------------------------------------
 Center     Atomic      Atomic             Coordinates (Angstroms)
 Number     Number       Type             X           Y           Z
 ---------------------------------------------------------------------
      1          6           0        0.159270    0.042392    0.214632
      2          6           0       -0.836107   -0.325335   -0.874944
      3          9           0        0.131773   -1.014664    1.192850
      4          1           0       -0.566997   -1.317441   -1.251948
      5          1           0       -0.723616    0.413515   -1.675202
      6          6           0        1.554159   -0.057461   -0.309669
      7          7           0        2.654572   -0.098102   -0.721311
      8          7           0       -0.153576    1.268436    0.794996
      9          1           0        0.647190    1.701763    1.238121
     10          1           0       -0.611465    1.964364    0.086098
     11          6           0       -2.271581   -0.294292   -0.363596
     12          1           0       -2.569207    0.739857   -0.190750
     13          1           0       -2.944257   -0.730863   -1.109351
     14          1           0       -2.363808   -0.860485    0.565348
     15          1           0       -1.195212    2.837106   -0.912298
 ---------------------------------------------------------------------

 SCF Done:  E(RHF) =  -364.804101871     A.U. after    2 cycles

 The electronic state is 1-A.
 Alpha  occ. eigenvalues --  -26.31871 -15.40395 -15.34129 -11.25870 -11.16995
 Alpha  occ. eigenvalues --  -11.11680 -11.09949  -1.43654  -1.10921  -1.06992
 Alpha  occ. eigenvalues --   -0.92625  -0.82426  -0.71270  -0.64112  -0.57967
 Alpha  occ. eigenvalues --   -0.56388  -0.51243  -0.50001  -0.47058  -0.45586
 Alpha  occ. eigenvalues --   -0.44652  -0.41343  -0.38691  -0.38498  -0.37678
 Alpha  occ. eigenvalues --   -0.36373  -0.31362  -0.10712
 Alpha virt. eigenvalues --    0.12357   0.13807   0.14146   0.15298   0.17099
 Alpha virt. eigenvalues --    0.18096   0.18741   0.20512   0.21304   0.22245
 Alpha virt. eigenvalues --    0.23415   0.24057   0.24688   0.25763   0.25855

 Mulliken charges:
               1
     1  C    0.894311
     2  C   -0.363114
     3  F   -0.969903
     4  H    0.070149
     5  H    0.223666
     6  C   -2.022416
     7  N    0.949139
     8  N    0.501116
     9  H    0.278869
    10  H   -0.067881
    11  C   -0.282172
    12  H    0.237818
    13  H    0.106732
    14  H    0.173705
    15  H   -0.730019
 Sum of Mulliken charges =  -1.00000

 Dipole moment (field-independent basis, Debye):
    X=              0.3600    Y=             -8.3340    Z=              2.4153  Tot=              8.6844

 Test job not archived.
 1\1\GINC-SE115\SP\RHF\Aug-CC-pVDZ\C4H8F1N2(1-)\OHZDE\09-Apr-2025\0\\#t
  hf aug-cc-pvdz iop(5/13=1,5/36=2,99/5=2) pseudo=read geom=check guess
 =(read,tcheck) scf=(maxcycle=1)\\title\\-1,1\C,0,0.064937,0.104255,0.0
 14994\C,0,-0.401063,0.176785,-1.430951\F,0,1.490666,-0.100476,-0.00539
 \H,0,0.17637,0.962644,-1.92877\H,0,-1.459824,0.455507,-1.413439\C,0,-0
 .045539,1.447847,0.657748\N,0,-0.16154,2.492388,1.18452\N,0,-0.57716,-
 0.920667,0.704287\H,0,-0.574385,-0.773489,1.70613\H,0,-1.599619,-1.087
 174,0.35305\C,0,-0.248026,-1.162411,-2.142401\H,0,-0.985488,-1.863331,

 Normal termination of Gaussian 16 at Wed Apr  9 02:51:01 2025.
