 Gaussian 16, Revision C.01,

 ----------------------------------------------------------------------
 #t hf aug-cc-pvdz symm=none int=(grid=ultrafine) guess=(read,tcheck) s
 table=(opt,rrhf)
 ----------------------------------------------------------------------
 -----
 title
 -----
 Symbolic Z-matrix:
 Charge = -1 Multiplicity = 1

 SCF Done:  E(RHF) =  -1384.65844404     A.U. after   17 cycles
 Normal termination of Gaussian 16 at Wed Apr  9 02:43:44 2025.
 Gaussian 16:  ES64L-G16RevC.01  3-Jul-2019

 ----------------------------------------------------------------------
 #t hf aug-cc-pvdz iop(5/13=1,5/36=2,99/5=2) pseudo=read geom=check gue
 ss=(read,tcheck) scf=(maxcycle=1)
 ----------------------------------------------------------------------
 -----
 title
 -----
 Structure from the checkpoint file:  "E2SN2_216_mol1.chk"
 Charge = -1 Multiplicity = 1

                         Standard orientation:
 ---------------------------------------------------------------------
 Center     Atomic      Atomic             Coordinates (Angstroms)
 Number     Number       Type             X           Y           Z
 ---------------------------------------------------------------------
      1          6           0       -0.429478    0.069971   -0.374579
      2          1           0        0.144145    1.203225    1.334069
      3         17           0        1.027163   -1.445757   -1.352659
      4         17           0       -1.941745    1.636602    0.101296
      5          6           0        0.646050    0.675484    0.518254
      6          1           0       -0.590893    0.311515   -1.405149
      7          7           0       -1.239523   -1.012356    0.205311
      8          8           0       -1.021149   -1.283016    1.384437
      9          8           0       -2.076316   -1.531550   -0.518496
     10          6           0        1.376955    1.677502   -0.262417
     11          7           0        1.956176    2.508811   -0.854839
     12          6           0        1.593603   -0.248284    1.158055
     13          7           0        2.376431   -0.823684    1.818221
 ---------------------------------------------------------------------

 SCF Done:  E(RHF) =  -1385.25414495     A.U. after    2 cycles

 The electronic state is 1-A.
 Alpha  occ. eigenvalues -- -105.39886-105.37013 -20.49702 -20.49692 -15.70539
 Alpha  occ. eigenvalues --  -15.44236 -15.42459 -11.32604 -11.26430 -11.21506
 Alpha  occ. eigenvalues --  -11.20391 -10.44678 -10.41820  -7.61523  -7.61312
 Alpha  occ. eigenvalues --   -7.61301  -7.58649  -7.58470  -7.58461  -1.57310
 Alpha  occ. eigenvalues --   -1.41312  -1.15121  -1.12729  -1.08554  -0.98399
 Alpha  occ. eigenvalues --   -0.86788  -0.84053  -0.77104  -0.72529  -0.67351
 Alpha  occ. eigenvalues --   -0.66197  -0.64682  -0.62762  -0.57897  -0.52768
 Alpha  occ. eigenvalues --   -0.51212  -0.43498  -0.42191  -0.40910  -0.40349
 Alpha  occ. eigenvalues --   -0.39346  -0.39125  -0.37499  -0.35246  -0.31764
 Alpha  occ. eigenvalues --   -0.31540  -0.29248  -0.28859  -0.26541
 Alpha virt. eigenvalues --    0.11950   0.13382   0.14864   0.16983   0.17911
 Alpha virt. eigenvalues --    0.19127   0.20276   0.20583   0.21490   0.22650
 Alpha virt. eigenvalues --    0.23088   0.23280   0.23945   0.24618   0.24726

 Mulliken charges:
               1
     1  C   -0.130157
     2  H    0.466592
     3  Cl  -0.566907
     4  Cl  -0.509155
     5  C    0.811212
     6  H   -0.064350
     7  N    2.933505
     8  O   -1.359792
     9  O   -1.486636
    10  C   -1.482922
    11  N    1.011308
    12  C   -1.734886
    13  N    1.112188
 Sum of Mulliken charges =  -1.00000

 Dipole moment (field-independent basis, Debye):
    X=             -2.1596    Y=              1.3026    Z=              1.2236  Tot=              2.8032

 Test job not archived.
 1\1\GINC-SE042\SP\RHF\Aug-CC-pVDZ\C4H2Cl2N3O2(1-)\OHZDE\09-Apr-2025\0\
 \#t hf aug-cc-pvdz iop(5/13=1,5/36=2,99/5=2) pseudo=read geom=check gu
 ess=(read,tcheck) scf=(maxcycle=1)\\title\\-1,1\C,0,0.53243973,-0.0680
 2024,-0.03372381\H,0,1.6926448,1.68944005,-0.34684276\Cl,0,-1.76294592
 ,-0.06385182,-0.36093143\Cl,0,2.62839637,-0.34681967,0.67124327\C,0,0.
 64737958,1.44759952,-0.13493163\H,0,0.23005517,-0.61204989,0.83752202\
 N,0,0.75379993,-0.83302742,-1.27050952\O,0,1.08129358,-0.18255989,-2.2
 6092399\O,0,0.6222449,-2.04640582,-1.20657526\C,0,0.32671579,2.0185747

 Normal termination of Gaussian 16 at Wed Apr  9 02:43:51 2025.
