 Gaussian 16, Revision C.01,

 ----------------------------------------------------------------------
 #t hf aug-cc-pvdz symm=none int=(grid=ultrafine) guess=(read,tcheck) s
 table=(opt,rrhf)
 ----------------------------------------------------------------------
 -----
 title
 -----
 Symbolic Z-matrix:
 Charge = -1 Multiplicity = 1

 SCF Done:  E(RHF) =  -1236.21316038     A.U. after   16 cycles
 Normal termination of Gaussian 16 at Wed Apr  9 02:47:12 2025.
 Gaussian 16:  ES64L-G16RevC.01  3-Jul-2019

 ----------------------------------------------------------------------
 #t hf aug-cc-pvdz iop(5/13=1,5/36=2,99/5=2) pseudo=read geom=check gue
 ss=(read,tcheck) scf=(maxcycle=1)
 ----------------------------------------------------------------------
 -----
 title
 -----
 Structure from the checkpoint file:  "E2SN2_254_mol1.chk"
 Charge = -1 Multiplicity = 1

                         Standard orientation:
 ---------------------------------------------------------------------
 Center     Atomic      Atomic             Coordinates (Angstroms)
 Number     Number       Type             X           Y           Z
 ---------------------------------------------------------------------
      1          6           0        0.363943    0.176694   -0.308948
      2          1           0        0.355986   -1.351621    1.162210
      3         17           0       -1.488347    1.476558   -0.831663
      4         17           0        2.276655   -1.173306   -0.397344
      5          6           0       -0.376949   -0.679373    0.716081
      6          1           0        0.336340   -0.043775   -1.357752
      7          6           0        1.113192    1.303287    0.166094
      8          7           0        1.723615    2.229342    0.559697
      9          6           0       -1.361513   -1.538565    0.023672
     10          7           0       -2.160049   -2.277102   -0.420607
     11          7           0       -0.928156    0.114390    1.799462
     12          1           0       -1.309377   -0.505969    2.502763
     13          1           0       -1.664088    0.707418    1.434643
 ---------------------------------------------------------------------

 SCF Done:  E(RHF) =  -1236.67891101     A.U. after    2 cycles

 The electronic state is 1-A.
 Alpha  occ. eigenvalues -- -105.36778-105.35843 -15.41686 -15.40869 -15.40615
 Alpha  occ. eigenvalues --  -11.28172 -11.23124 -11.18721 -11.18658 -10.41558
 Alpha  occ. eigenvalues --  -10.40597  -7.58382  -7.58224  -7.58198  -7.57418
 Alpha  occ. eigenvalues --   -7.57260  -7.57248  -1.14091  -1.11184  -1.10110
 Alpha  occ. eigenvalues --   -0.97977  -0.85728  -0.83122  -0.79766  -0.66528
 Alpha  occ. eigenvalues --   -0.63944  -0.61563  -0.55329  -0.51226  -0.50505
 Alpha  occ. eigenvalues --   -0.49546  -0.43024  -0.40566  -0.39354  -0.37966
 Alpha  occ. eigenvalues --   -0.36482  -0.32592  -0.29231  -0.28457  -0.27882
 Alpha  occ. eigenvalues --   -0.27634  -0.25077
 Alpha virt. eigenvalues --    0.11936   0.14336   0.15018   0.15865   0.16281
 Alpha virt. eigenvalues --    0.17037   0.19169   0.20956   0.21190   0.22058
 Alpha virt. eigenvalues --    0.22840   0.23365   0.23947   0.24912   0.25474

 Mulliken charges:
               1
     1  C    1.491140
     2  H    0.166317
     3  Cl  -0.578640
     4  Cl  -0.609514
     5  C   -0.768483
     6  H   -0.202576
     7  C   -2.166161
     8  N    1.061840
     9  C   -1.406879
    10  N    0.954810
    11  N    0.664258
    12  H    0.164834
    13  H    0.229054
 Sum of Mulliken charges =  -1.00000

 Dipole moment (field-independent basis, Debye):
    X=             -2.2614    Y=             -1.5166    Z=              2.8777  Tot=              3.9617

 Test job not archived.
 1\1\GINC-SE041\SP\RHF\Aug-CC-pVDZ\C4H4Cl2N3(1-)\OHZDE\09-Apr-2025\0\\#
 t hf aug-cc-pvdz iop(5/13=1,5/36=2,99/5=2) pseudo=read geom=check gues
 s=(read,tcheck) scf=(maxcycle=1)\\title\\-1,1\C,0,0.60926899,-0.032261
 39,-0.05393218\H,0,1.68603249,1.79260433,-0.15670719\Cl,0,-1.70914133,
 -0.16408492,-0.01580835\Cl,0,2.89700424,-0.30727071,0.36964367\C,0,0.6
 4137871,1.4945822,-0.06713464\H,0,0.52103984,-0.58961946,0.85761884\C,
 0,0.70189729,-0.72136359,-1.30804806\N,0,0.77409271,-1.28298519,-2.339
 78753\C,0,0.17249442,2.01036437,1.23713656\N,0,-0.16467725,2.52939503,

 Normal termination of Gaussian 16 at Wed Apr  9 02:47:19 2025.
