 Gaussian 16, Revision C.01,

 ----------------------------------------------------------------------
 #t hf aug-cc-pvdz symm=none int=(grid=ultrafine) guess=(read,tcheck) s
 table=(opt,rrhf)
 ----------------------------------------------------------------------
 -----
 title
 -----
 Symbolic Z-matrix:
 Charge = -1 Multiplicity = 1

 SCF Done:  E(RHF) =  -664.508739556     A.U. after   17 cycles
 Normal termination of Gaussian 16 at Wed Apr  9 02:44:30 2025.
 Gaussian 16:  ES64L-G16RevC.01  3-Jul-2019

 ----------------------------------------------------------------------
 #t hf aug-cc-pvdz iop(5/13=1,5/36=2,99/5=2) pseudo=read geom=check gue
 ss=(read,tcheck) scf=(maxcycle=1)
 ----------------------------------------------------------------------
 -----
 title
 -----
 Structure from the checkpoint file:  "E2SN2_225_mol1.chk"
 Charge = -1 Multiplicity = 1

                         Standard orientation:
 ---------------------------------------------------------------------
 Center     Atomic      Atomic             Coordinates (Angstroms)
 Number     Number       Type             X           Y           Z
 ---------------------------------------------------------------------
      1          6           0       -0.137260    0.071202    0.155202
      2          1           0        0.974864   -0.805741    1.761590
      3          9           0        0.321491   -0.250485   -1.495143
      4          9           0       -0.792319    0.373836    1.721646
      5          6           0        0.933391   -0.868987    0.675969
      6          1           0        0.613205   -1.871165    0.387155
      7          7           0       -1.486485   -0.481768   -0.213442
      8          8           0       -1.661182   -1.681399   -0.043804
      9          8           0       -2.310172    0.309291   -0.644991
     10          6           0        0.101462    1.487028   -0.040408
     11          7           0        0.327954    2.631954   -0.168559
     12          6           0        2.258531   -0.607061    0.120231
     13          7           0        3.370455   -0.428684   -0.209838
 ---------------------------------------------------------------------

 SCF Done:  E(RHF) =  -665.130623857     A.U. after    2 cycles

 The electronic state is 1-A.
 Alpha  occ. eigenvalues --  -26.24330 -26.23358 -20.47569 -20.47469 -15.68476
 Alpha  occ. eigenvalues --  -15.40749 -15.40573 -11.34563 -11.19042 -11.18462
 Alpha  occ. eigenvalues --  -11.18311  -1.55499  -1.39315  -1.33917  -1.32194
 Alpha  occ. eigenvalues --   -1.11221  -1.10659  -1.02195  -0.93412  -0.81182
 Alpha  occ. eigenvalues --   -0.71010  -0.65370  -0.63134  -0.61645  -0.57188
 Alpha  occ. eigenvalues --   -0.54118  -0.49840  -0.49586  -0.48510  -0.42921
 Alpha  occ. eigenvalues --   -0.42404  -0.40407  -0.39729  -0.39019  -0.38185
 Alpha  occ. eigenvalues --   -0.37403  -0.37319  -0.36258  -0.35988  -0.33200
 Alpha  occ. eigenvalues --   -0.32838
 Alpha virt. eigenvalues --    0.13430   0.14585   0.17218   0.18280   0.18406
 Alpha virt. eigenvalues --    0.20026   0.22299   0.22764   0.23540   0.24179
 Alpha virt. eigenvalues --    0.24405   0.24698   0.24918   0.25148   0.26578

 Mulliken charges:
               1
     1  C    1.038542
     2  H    0.313717
     3  F   -0.867565
     4  F   -0.899553
     5  C    0.341720
     6  H    0.408874
     7  N    3.692258
     8  O   -1.683763
     9  O   -1.620052
    10  C   -2.334291
    11  N    1.146978
    12  C   -1.454655
    13  N    0.917790
 Sum of Mulliken charges =  -1.00000

 Dipole moment (field-independent basis, Debye):
    X=             -1.3117    Y=             -3.8996    Z=              2.2408  Tot=              4.6849

 Test job not archived.
 1\1\GINC-SE127\SP\RHF\Aug-CC-pVDZ\C4H2F2N3O2(1-)\OHZDE\09-Apr-2025\0\\
 #t hf aug-cc-pvdz iop(5/13=1,5/36=2,99/5=2) pseudo=read geom=check gue
 ss=(read,tcheck) scf=(maxcycle=1)\\title\\-1,1\C,0,0.67400923,-0.05807
 126,0.04730097\H,0,1.86012135,1.7124337,0.25891315\F,0,-1.0629738,0.06
 452151,-0.02642089\F,0,2.3755282,-0.32889057,-0.02967902\C,0,0.8164456
 7,1.45153517,0.09470102\H,0,0.5079701,1.80896833,-0.88885278\N,0,0.585
 63045,-0.74753665,-1.28645638\O,0,0.66291088,-0.04176336,-2.28361369\O
 ,0,0.45350577,-1.96115895,-1.27488586\C,0,0.57936625,-0.86673451,1.246

 Normal termination of Gaussian 16 at Wed Apr  9 02:44:37 2025.
