 Gaussian 16, Revision C.01,

 ----------------------------------------------------------------------
 #t hf aug-cc-pvdz symm=none int=(grid=ultrafine) guess=(read,tcheck) s
 table=(opt,rrhf)
 ----------------------------------------------------------------------
 -----
 title
 -----
 Symbolic Z-matrix:
 Charge = -1 Multiplicity = 1

 SCF Done:  E(RHF) =  -1042.96807032     A.U. after   16 cycles
 Normal termination of Gaussian 16 at Wed Apr  9 03:00:42 2025.
 Gaussian 16:  ES64L-G16RevC.01  3-Jul-2019

 ----------------------------------------------------------------------
 #t hf aug-cc-pvdz iop(5/13=1,5/36=2,99/5=2) pseudo=read geom=check gue
 ss=(read,tcheck) scf=(maxcycle=1)
 ----------------------------------------------------------------------
 -----
 title
 -----
 Structure from the checkpoint file:  "E2SN2_415_mol2.chk"
 Charge = -1 Multiplicity = 1

                         Standard orientation:
 ---------------------------------------------------------------------
 Center     Atomic      Atomic             Coordinates (Angstroms)
 Number     Number       Type             X           Y           Z
 ---------------------------------------------------------------------
      1          6           0       -0.826405    0.454038   -0.167402
      2          6           0        0.266609   -0.498454    0.408644
      3         17           0       -0.000138    1.968026   -0.743540
      4          1           0       -0.364346   -1.399951    0.630199
      5          7           0       -1.581579   -0.094432   -1.251962
      6          1           0       -1.971851   -0.948631   -0.819737
      7          1           0       -0.966380   -0.372763   -2.007616
      8          7           0       -1.658616    0.743816    0.963628
      9          1           0       -2.427662    1.304230    0.607459
     10          1           0       -2.034408   -0.196042    1.185185
     11          6           0        0.914341    0.028730    1.597237
     12          7           0        1.443674    0.400530    2.577728
     13          7           0        1.301793   -0.849588   -0.608053
     14          8           0        0.919527   -1.505072   -1.577963
     15          8           0        2.459322   -0.471045   -0.436648
     16          9           0       -1.991996   -1.926946    0.706814
 ---------------------------------------------------------------------

 SCF Done:  E(RHF) =  -1043.61115334     A.U. after    2 cycles

 The electronic state is 1-A.
 Alpha  occ. eigenvalues -- -105.44235 -26.14542 -20.49225 -20.48780 -15.68780
 Alpha  occ. eigenvalues --  -15.40932 -15.36926 -15.36686 -11.26609 -11.21808
 Alpha  occ. eigenvalues --  -11.18190 -10.49176  -7.66103  -7.65752  -7.65738
 Alpha  occ. eigenvalues --   -1.56143  -1.39933  -1.21741  -1.15556  -1.11030
 Alpha  occ. eigenvalues --   -1.03037  -1.02783  -0.94182  -0.82713  -0.72857
 Alpha  occ. eigenvalues --   -0.69651  -0.65848  -0.64547  -0.61358  -0.58176
 Alpha  occ. eigenvalues --   -0.56788  -0.54475  -0.50710  -0.49731  -0.42808
 Alpha  occ. eigenvalues --   -0.40684  -0.40049  -0.39089  -0.37800  -0.36240
 Alpha  occ. eigenvalues --   -0.35325  -0.34771  -0.33905  -0.33404  -0.30576
 Alpha  occ. eigenvalues --   -0.30305  -0.29515
 Alpha virt. eigenvalues --    0.13780   0.14618   0.15527   0.16328   0.17391
 Alpha virt. eigenvalues --    0.17608   0.18289   0.18811   0.21674   0.22264
 Alpha virt. eigenvalues --    0.23607   0.24152   0.24592   0.25897   0.26140

 Mulliken charges:
               1
     1  C   -3.483398
     2  C    0.958648
     3  Cl  -0.032597
     4  H    0.335588
     5  N    0.879694
     6  H    0.326758
     7  H    0.284020
     8  N    0.898619
     9  H    0.258649
    10  H    0.274329
    11  C   -1.613934
    12  N    1.019629
    13  N    2.847902
    14  O   -1.543035
    15  O   -1.404775
    16  F   -1.006097
 Sum of Mulliken charges =  -1.00000

 Dipole moment (field-independent basis, Debye):
    X=              0.9933    Y=              2.2654    Z=             -3.6941  Tot=              4.4458

 Test job not archived.
 1\1\GINC-SE083\SP\RHF\Aug-CC-pVDZ\C3H5Cl1F1N4O2(1-)\OHZDE\09-Apr-2025\
 0\\#t hf aug-cc-pvdz iop(5/13=1,5/36=2,99/5=2) pseudo=read geom=check
 guess=(read,tcheck) scf=(maxcycle=1)\\title\\-1,1\C,0,-0.012639,0.0022
 09,0.008005\C,0,-0.511098,0.12381,-1.465257\Cl,0,1.805501,0.028649,-0.
 013873\H,0,-1.617509,0.186966,-1.287061\N,0,-0.473472,1.039471,0.87926
 7\H,0,-1.498848,0.945526,0.786723\H,0,-0.203725,1.948675,0.522144\N,0,
 -0.484204,-1.286426,0.423723\H,0,-0.241154,-1.368271,1.406871\H,0,-1.5
 10424,-1.155217,0.366296\C,0,-0.147671,-1.017708,-2.286896\N,0,0.09675

 Normal termination of Gaussian 16 at Wed Apr  9 03:00:57 2025.
