 Gaussian 16, Revision C.01,

 ----------------------------------------------------------------------
 #t hf aug-cc-pvdz symm=none int=(grid=ultrafine) guess=(read,tcheck) s
 table=(opt,rrhf)
 ----------------------------------------------------------------------
 -----
 title
 -----
 Symbolic Z-matrix:
 Charge = -1 Multiplicity = 1

 SCF Done:  E(RHF) =  -739.587006039     A.U. after   16 cycles
 Normal termination of Gaussian 16 at Wed Apr  9 02:43:34 2025.
 Gaussian 16:  ES64L-G16RevC.01  3-Jul-2019

 ----------------------------------------------------------------------
 #t hf aug-cc-pvdz iop(5/13=1,5/36=2,99/5=2) pseudo=read geom=check gue
 ss=(read,tcheck) scf=(maxcycle=1)
 ----------------------------------------------------------------------
 -----
 title
 -----
 Structure from the checkpoint file:  "E2SN2_213_mol1.chk"
 Charge = -1 Multiplicity = 1

                         Standard orientation:
 ---------------------------------------------------------------------
 Center     Atomic      Atomic             Coordinates (Angstroms)
 Number     Number       Type             X           Y           Z
 ---------------------------------------------------------------------
      1          6           0       -0.467597   -0.406356    0.125290
      2          1           0        0.736876   -0.282864   -1.641760
      3          9           0       -0.084072    0.493502    1.509760
      4          9           0       -1.019396   -1.357474   -1.307860
      5          6           0        0.669623    0.205338   -0.673436
      6          1           0       -0.327551   -1.344353    0.621372
      7          7           0       -1.860276    0.099424    0.161096
      8          8           0       -2.159004    1.104070   -0.471066
      9          8           0       -2.630682   -0.544366    0.866736
     10          7           0        1.968013   -0.293422    0.046585
     11          8           0        2.866937    0.525173    0.231926
     12          8           0        2.056443   -1.489539    0.302526
     13          7           0        0.642047    1.611111   -0.778943
     14          1           0        1.542202    1.946067   -1.092787
     15          1           0        0.449496    1.980502    0.142810
 ---------------------------------------------------------------------

 SCF Done:  E(RHF) =  -740.294336679     A.U. after    2 cycles

 The electronic state is 1-A.
 Alpha  occ. eigenvalues --  -26.23677 -26.18250 -20.47391 -20.47237 -20.44892
 Alpha  occ. eigenvalues --  -20.44737 -15.65874 -15.65687 -15.38415 -11.28057
 Alpha  occ. eigenvalues --  -11.22760  -1.54232  -1.52654  -1.38226  -1.36282
 Alpha  occ. eigenvalues --   -1.32906  -1.26724  -1.11655  -0.97666  -0.93363
 Alpha  occ. eigenvalues --   -0.78880  -0.71753  -0.67657  -0.66089  -0.63672
 Alpha  occ. eigenvalues --   -0.62482  -0.60422  -0.60037  -0.58924  -0.53147
 Alpha  occ. eigenvalues --   -0.49379  -0.43409  -0.41292  -0.40699  -0.39180
 Alpha  occ. eigenvalues --   -0.37766  -0.36459  -0.35407  -0.34387  -0.34088
 Alpha  occ. eigenvalues --   -0.33207  -0.32404  -0.30468  -0.30186
 Alpha virt. eigenvalues --    0.13154   0.14897   0.15999   0.16436   0.18429
 Alpha virt. eigenvalues --    0.20354   0.21267   0.22049   0.23378   0.24345
 Alpha virt. eigenvalues --    0.24804   0.25811   0.26561   0.27080   0.27991

 Mulliken charges:
               1
     1  C    0.689147
     2  H    0.101081
     3  F   -0.929956
     4  F   -0.935291
     5  C   -1.658128
     6  H   -0.036121
     7  N    3.582808
     8  O   -1.616154
     9  O   -1.621718
    10  N    3.076753
    11  O   -1.462071
    12  O   -1.550307
    13  N    0.761661
    14  H    0.261977
    15  H    0.336319
 Sum of Mulliken charges =  -1.00000

 Dipole moment (field-independent basis, Debye):
    X=              3.4654    Y=              2.0974    Z=             -0.5906  Tot=              4.0935

 Test job not archived.
 1\1\GINC-SE123\SP\RHF\Aug-CC-pVDZ\C2H4F2N3O4(1-)\OHZDE\09-Apr-2025\0\\
 #t hf aug-cc-pvdz iop(5/13=1,5/36=2,99/5=2) pseudo=read geom=check gue
 ss=(read,tcheck) scf=(maxcycle=1)\\title\\-1,1\C,0,0.50415744,0.004946
 45,-0.07569858\H,0,1.78826494,1.69999528,0.18188297\F,0,-1.1681106,0.1
 9707126,-0.27619662\F,0,2.27539551,-0.32426699,0.05606204\C,0,0.744033
 06,1.5039275,-0.04538485\H,0,0.3939531,-0.53681039,0.84076461\N,0,0.56
 844928,-0.85015175,-1.28455002\O,0,0.80822365,-0.34631125,-2.37396878\
 O,0,0.3474192,-2.04185632,-1.09243689\N,0,0.01873169,1.99155946,1.2542

 Normal termination of Gaussian 16 at Wed Apr  9 02:43:42 2025.
