 Gaussian 16, Revision C.01,

 ----------------------------------------------------------------------
 #t hf aug-cc-pvdz symm=none int=(grid=ultrafine) guess=(read,tcheck) s
 table=(opt,rrhf)
 ----------------------------------------------------------------------
 -----
 title
 -----
 Symbolic Z-matrix:
 Charge = -1 Multiplicity = 1

 SCF Done:  E(RHF) =  -1183.50203670     A.U. after   15 cycles
 Normal termination of Gaussian 16 at Wed Apr  9 02:54:15 2025.
 Gaussian 16:  ES64L-G16RevC.01  3-Jul-2019

 ----------------------------------------------------------------------
 #t hf aug-cc-pvdz iop(5/13=1,5/36=2,99/5=2) pseudo=read geom=check gue
 ss=(read,tcheck) scf=(maxcycle=1)
 ----------------------------------------------------------------------
 -----
 title
 -----
 Structure from the checkpoint file:  "E2SN2_342_mol1.chk"
 Charge = -1 Multiplicity = 1

                         Standard orientation:
 ---------------------------------------------------------------------
 Center     Atomic      Atomic             Coordinates (Angstroms)
 Number     Number       Type             X           Y           Z
 ---------------------------------------------------------------------
      1          6           0       -0.060825   -0.173869   -0.295814
      2          1           0        0.805782    1.319395   -1.502726
      3         17           0       -2.492459   -0.039906   -0.125408
      4         17           0        2.331505   -0.397979   -0.144514
      5          6           0        0.091421    1.292370   -0.669870
      6          1           0       -0.869324    1.656877   -1.027686
      7          6           0       -0.101034   -1.220487   -1.390183
      8          1           0       -1.084183   -1.266615   -1.851544
      9          1           0        0.648567   -0.975076   -2.141598
     10          1           0        0.150000   -2.195854   -0.975186
     11          6           0       -0.129179   -0.568746    1.086404
     12          7           0       -0.144423   -0.945806    2.202588
     13          7           0        0.489471    2.086882    0.478022
     14          1           0        0.410854    3.069392    0.250662
     15          1           0        1.456902    1.872777    0.689255
 ---------------------------------------------------------------------

 SCF Done:  E(RHF) =  -1183.92982381     A.U. after    2 cycles

 The electronic state is 1-A.
 Alpha  occ. eigenvalues -- -105.34307-105.32998 -15.37945 -15.37123 -11.26698
 Alpha  occ. eigenvalues --  -11.16295 -11.16000 -11.13009 -10.39087 -10.37774
 Alpha  occ. eigenvalues --   -7.55901  -7.55762  -7.55750  -7.54582  -7.54443
 Alpha  occ. eigenvalues --   -7.54439  -1.09343  -1.07211  -0.97706  -0.82738
 Alpha  occ. eigenvalues --   -0.80929  -0.78734  -0.76436  -0.60023  -0.57039
 Alpha  occ. eigenvalues --   -0.52742  -0.49142  -0.48773  -0.46347  -0.45536
 Alpha  occ. eigenvalues --   -0.42485  -0.39599  -0.35227  -0.32784  -0.27449
 Alpha  occ. eigenvalues --   -0.26738  -0.26492  -0.25103  -0.24640  -0.23934
 Alpha virt. eigenvalues --    0.12178   0.13160   0.14320   0.14881   0.15889
 Alpha virt. eigenvalues --    0.16464   0.16969   0.17450   0.20257   0.21637
 Alpha virt. eigenvalues --    0.21936   0.22610   0.23715   0.25399   0.25938

 Mulliken charges:
               1
     1  C   -0.120991
     2  H    0.200197
     3  Cl  -0.671593
     4  Cl  -0.638685
     5  C   -0.257186
     6  H    0.162116
     7  C   -0.179633
     8  H    0.246982
     9  H    0.201533
    10  H    0.220713
    11  C   -1.869988
    12  N    1.036196
    13  N    0.328246
    14  H    0.125523
    15  H    0.216571
 Sum of Mulliken charges =  -1.00000

 Dipole moment (field-independent basis, Debye):
    X=              1.6049    Y=              2.7499    Z=             -5.3270  Tot=              6.2060

 Test job not archived.
 1\1\GINC-SE070\SP\RHF\Aug-CC-pVDZ\C4H7Cl2N2(1-)\OHZDE\09-Apr-2025\0\\#
 t hf aug-cc-pvdz iop(5/13=1,5/36=2,99/5=2) pseudo=read geom=check gues
 s=(read,tcheck) scf=(maxcycle=1)\\title\\-1,1\C,0,0.51945672,-0.043716
 97,-0.0044118\H,0,1.18753616,1.83343747,-0.68810963\Cl,0,-1.89327168,-
 0.3734993,-0.1770788\Cl,0,2.87853175,0.11132178,0.45065999\C,0,0.41038
 087,1.47320357,-0.00184919\H,0,-0.56147091,1.74814224,-0.40662181\C,0,
 0.80618906,-0.76672996,-1.30429903\H,0,-0.09365313,-0.85991024,-1.9069
 2946\H,0,1.5650067,-0.21349714,-1.85646138\H,0,1.20446055,-1.75836559,

 Normal termination of Gaussian 16 at Wed Apr  9 02:54:21 2025.
