 Gaussian 16, Revision C.01,

 ----------------------------------------------------------------------
 #t hf aug-cc-pvdz symm=none int=(grid=ultrafine) guess=(read,tcheck) s
 table=(opt,rrhf)
 ----------------------------------------------------------------------
 -----
 title
 -----
 Symbolic Z-matrix:
 Charge = -1 Multiplicity = 1

 SCF Done:  E(RHF) =  -1043.01928358     A.U. after   16 cycles
 Normal termination of Gaussian 16 at Wed Apr  9 02:47:11 2025.
 Gaussian 16:  ES64L-G16RevC.01  3-Jul-2019

 ----------------------------------------------------------------------
 #t hf aug-cc-pvdz iop(5/13=1,5/36=2,99/5=2) pseudo=read geom=check gue
 ss=(read,tcheck) scf=(maxcycle=1)
 ----------------------------------------------------------------------
 -----
 title
 -----
 Structure from the checkpoint file:  "E2SN2_243_mol2.chk"
 Charge = -1 Multiplicity = 1

                         Standard orientation:
 ---------------------------------------------------------------------
 Center     Atomic      Atomic             Coordinates (Angstroms)
 Number     Number       Type             X           Y           Z
 ---------------------------------------------------------------------
      1          6           0       -0.430582    0.436864   -0.481483
      2          6           0       -0.754110   -0.593215    0.607614
      3          9           0       -1.607476    1.025860   -0.915127
      4          1           0        0.208609   -0.951255    0.993394
      5          7           0        0.305415    1.670917    0.139911
      6          8           0        0.569597    1.696960    1.338746
      7          8           0        0.593166    2.550029   -0.667891
      8          7           0        0.270458   -0.099510   -1.544341
      9          1           0        0.569686    0.630809   -2.179213
     10          1           0        1.082313   -0.629724   -1.187879
     11          6           0       -1.439466   -1.720113   -0.043997
     12          7           0       -2.048606   -2.608364   -0.509959
     13          7           0       -1.598499   -0.121266    1.695311
     14          1           0       -2.390688    0.376991    1.306669
     15          1           0       -1.054635    0.524402    2.251173
     16         17           0        2.587851   -1.399619    0.160347
 ---------------------------------------------------------------------

 SCF Done:  E(RHF) =  -1043.66389622     A.U. after    2 cycles

 The electronic state is 1-A.
 Alpha  occ. eigenvalues -- -105.30016 -26.39193 -20.50410 -20.49911 -15.68784
 Alpha  occ. eigenvalues --  -15.41327 -15.41234 -15.40120 -11.33452 -11.22052
 Alpha  occ. eigenvalues --  -11.18456 -10.34650  -7.51430  -7.51388  -7.51367
 Alpha  occ. eigenvalues --   -1.57246  -1.52165  -1.41099  -1.15682  -1.12327
 Alpha  occ. eigenvalues --   -1.10301  -0.96318  -0.90409  -0.77168  -0.75660
 Alpha  occ. eigenvalues --   -0.71513  -0.68308  -0.66680  -0.64631  -0.64238
 Alpha  occ. eigenvalues --   -0.61919  -0.57272  -0.56624  -0.54421  -0.52305
 Alpha  occ. eigenvalues --   -0.49991  -0.48998  -0.43331  -0.40379  -0.39363
 Alpha  occ. eigenvalues --   -0.38892  -0.38076  -0.35399  -0.35127  -0.23159
 Alpha  occ. eigenvalues --   -0.22565  -0.22342
 Alpha virt. eigenvalues --    0.12178   0.13724   0.14422   0.15374   0.16624
 Alpha virt. eigenvalues --    0.17494   0.18972   0.19438   0.20792   0.21692
 Alpha virt. eigenvalues --    0.23302   0.24189   0.24509   0.24868   0.25547

 Mulliken charges:
               1
     1  C   -0.351446
     2  C   -0.507705
     3  F   -1.022772
     4  H    0.182394
     5  N    2.924083
     6  O   -1.400745
     7  O   -1.499385
     8  N    0.713881
     9  H    0.354656
    10  H    0.195367
    11  C   -1.712921
    12  N    1.009203
    13  N    0.658741
    14  H    0.169348
    15  H    0.234071
    16  Cl  -0.946769
 Sum of Mulliken charges =  -1.00000

 Dipole moment (field-independent basis, Debye):
    X=             -5.9184    Y=              6.8872    Z=              0.2850  Tot=              9.0852

 Test job not archived.
 1\1\GINC-SE108\SP\RHF\Aug-CC-pVDZ\C3H5Cl1F1N4O2(1-)\OHZDE\09-Apr-2025\
 0\\#t hf aug-cc-pvdz iop(5/13=1,5/36=2,99/5=2) pseudo=read geom=check
 guess=(read,tcheck) scf=(maxcycle=1)\\title\\-1,1\C,0,-0.017787,0.0237
 97,-0.0022\C,0,-0.500316,0.005556,-1.457775\F,0,1.364119,-0.075485,0.0
 20633\H,0,-1.58075,0.194604,-1.430021\N,0,-0.22171,1.445967,0.619538\O
 ,0,-0.736359,2.344052,-0.040957\O,0,0.149486,1.548159,1.785708\N,0,-0.
 59372,-0.964535,0.772605\H,0,-0.345486,-0.843821,1.747169\H,0,-1.61938
 8,-0.94256,0.650858\C,0,-0.281586,-1.353972,-1.97551\N,0,-0.062829,-2.

 Normal termination of Gaussian 16 at Wed Apr  9 02:47:21 2025.
