 Gaussian 16, Revision C.01,

 ----------------------------------------------------------------------
 #t hf aug-cc-pvdz symm=none int=(grid=ultrafine) guess=(read,tcheck) s
 table=(opt,rrhf)
 ----------------------------------------------------------------------
 -----
 title
 -----
 Symbolic Z-matrix:
 Charge = -1 Multiplicity = 1

 SCF Done:  E(RHF) =  -1347.96992131     A.U. after   16 cycles
 Normal termination of Gaussian 16 at Wed Apr  9 02:45:34 2025.
 Gaussian 16:  ES64L-G16RevC.01  3-Jul-2019

 ----------------------------------------------------------------------
 #t hf aug-cc-pvdz iop(5/13=1,5/36=2,99/5=2) pseudo=read geom=check gue
 ss=(read,tcheck) scf=(maxcycle=1)
 ----------------------------------------------------------------------
 -----
 title
 -----
 Structure from the checkpoint file:  "E2SN2_240_mol1.chk"
 Charge = -1 Multiplicity = 1

                         Standard orientation:
 ---------------------------------------------------------------------
 Center     Atomic      Atomic             Coordinates (Angstroms)
 Number     Number       Type             X           Y           Z
 ---------------------------------------------------------------------
      1          6           0       -0.222502   -0.267976   -0.465703
      2          1           0       -0.284128    1.629620   -1.436370
      3         17           0        1.840295   -1.363081   -0.282075
      4         17           0       -2.318875    0.823666   -0.281237
      5          6           0        0.472644    0.958323   -1.032232
      6          1           0        1.083415    0.596152   -1.860034
      7          7           0       -0.383603   -0.496742    1.026233
      8          8           0        0.032102    0.366691    1.781224
      9          8           0       -0.919998   -1.548896    1.342932
     10          7           0       -0.758911   -1.190332   -1.373268
     11          1           0       -1.681968   -1.466456   -1.070724
     12          1           0       -0.150548   -1.993876   -1.445364
     13          6           0        1.350128    1.733048   -0.161289
     14          7           0        2.095464    2.447344    0.397160
 ---------------------------------------------------------------------

 SCF Done:  E(RHF) =  -1348.54543439     A.U. after    2 cycles

 The electronic state is 1-A.
 Alpha  occ. eigenvalues -- -105.36618-105.35913 -20.47410 -20.47228 -15.68391
 Alpha  occ. eigenvalues --  -15.41418 -15.39833 -11.34709 -11.19393 -11.17757
 Alpha  occ. eigenvalues --  -10.41452 -10.40742  -7.58274  -7.58104  -7.58099
 Alpha  occ. eigenvalues --   -7.57562  -7.57401  -7.57388  -1.55314  -1.39362
 Alpha  occ. eigenvalues --   -1.15504  -1.10381  -0.99578  -0.92790  -0.84071
 Alpha  occ. eigenvalues --   -0.81855  -0.73894  -0.70008  -0.64040  -0.63272
 Alpha  occ. eigenvalues --   -0.61195  -0.58455  -0.55365  -0.54078  -0.48605
 Alpha  occ. eigenvalues --   -0.43035  -0.39373  -0.37753  -0.37556  -0.35041
 Alpha  occ. eigenvalues --   -0.33599  -0.31590  -0.29198  -0.29017  -0.27856
 Alpha  occ. eigenvalues --   -0.27771  -0.26925
 Alpha virt. eigenvalues --    0.13017   0.13595   0.13850   0.15162   0.16243
 Alpha virt. eigenvalues --    0.17790   0.20290   0.20896   0.22082   0.22799
 Alpha virt. eigenvalues --    0.23736   0.24311   0.24744   0.25377   0.25734

 Mulliken charges:
               1
     1  C   -2.792562
     2  H    0.306644
     3  Cl  -0.550583
     4  Cl  -0.604237
     5  C    0.779757
     6  H    0.389674
     7  N    3.506883
     8  O   -1.540653
     9  O   -1.538794
    10  N    0.987944
    11  H    0.315728
    12  H    0.309795
    13  C   -1.454874
    14  N    0.885278
 Sum of Mulliken charges =  -1.00000

 Dipole moment (field-independent basis, Debye):
    X=             -1.4023    Y=             -2.1690    Z=             -3.6939  Tot=              4.5073

 Test job not archived.
 1\1\GINC-SE069\SP\RHF\Aug-CC-pVDZ\C3H4Cl2N3O2(1-)\OHZDE\09-Apr-2025\0\
 \#t hf aug-cc-pvdz iop(5/13=1,5/36=2,99/5=2) pseudo=read geom=check gu
 ess=(read,tcheck) scf=(maxcycle=1)\\title\\-1,1\C,0,0.67015369,-0.0709
 7827,0.00748263\H,0,1.66321711,1.80121763,0.24321414\Cl,0,-1.66928508,
 -0.08779895,-0.1143805\Cl,0,3.0271548,-0.21486823,-0.20306436\C,0,0.66
 605783,1.44802952,-0.01679113\H,0,-0.02040707,1.75466777,0.77327478\N,
 0,0.66004304,-0.90610161,-1.26004571\O,0,0.68981823,-0.31737985,-2.328
 15516\O,0,0.61563265,-2.11654598,-1.09301709\N,0,0.7220737,-0.70248774

 Normal termination of Gaussian 16 at Wed Apr  9 02:45:42 2025.
