 Gaussian 16, Revision C.01,

 ----------------------------------------------------------------------
 #t hf aug-cc-pvdz symm=none int=(grid=ultrafine) guess=(read,tcheck) s
 table=(opt,rrhf)
 ----------------------------------------------------------------------
 -----
 title
 -----
 Symbolic Z-matrix:
 Charge = -1 Multiplicity = 1

 SCF Done:  E(RHF) =  -1181.18264031     A.U. after   15 cycles
 Normal termination of Gaussian 16 at Wed Apr  9 02:46:40 2025.
 Gaussian 16:  ES64L-G16RevC.01  3-Jul-2019

 ----------------------------------------------------------------------
 #t hf aug-cc-pvdz iop(5/13=1,5/36=2,99/5=2) pseudo=read geom=check gue
 ss=(read,tcheck) scf=(maxcycle=1)
 ----------------------------------------------------------------------
 -----
 title
 -----
 Structure from the checkpoint file:  "E2SN2_252_mol1.chk"
 Charge = -1 Multiplicity = 1

                         Standard orientation:
 ---------------------------------------------------------------------
 Center     Atomic      Atomic             Coordinates (Angstroms)
 Number     Number       Type             X           Y           Z
 ---------------------------------------------------------------------
      1          6           0        0.042411   -0.304876   -0.167116
      2          1           0       -0.950258    0.509058    1.559737
      3         17           0        2.325955    0.018143   -0.427414
      4         17           0       -2.251783   -0.547964   -0.429018
      5          6           0       -0.088751    0.735718    0.931116
      6          1           0        0.011481   -0.056920   -1.209299
      7          1           0        0.811947    0.737423    1.545461
      8          6           0        0.208733   -1.669212    0.243306
      9          7           0        0.344547   -2.771507    0.632863
     10          6           0       -0.269109    2.076086    0.382310
     11          7           0       -0.415090    3.170234   -0.014899
 ---------------------------------------------------------------------

 SCF Done:  E(RHF) =  -1181.59139491     A.U. after    2 cycles

 The electronic state is 1-A.
 Alpha  occ. eigenvalues -- -105.36204-105.36166 -15.41580 -15.41424 -11.28430
 Alpha  occ. eigenvalues --  -11.20005 -11.19394 -11.18869 -10.40960 -10.40923
 Alpha  occ. eigenvalues --   -7.57786  -7.57748  -7.57615  -7.57607  -7.57577
 Alpha  occ. eigenvalues --   -7.57570  -1.12229  -1.11608  -1.02166  -0.87874
 Alpha  occ. eigenvalues --   -0.83006  -0.79648  -0.65753  -0.60720  -0.55218
 Alpha  occ. eigenvalues --   -0.53484  -0.50602  -0.49264  -0.43226  -0.39849
 Alpha  occ. eigenvalues --   -0.38649  -0.38191  -0.32647  -0.28493  -0.28044
 Alpha  occ. eigenvalues --   -0.27974  -0.27898  -0.24857
 Alpha virt. eigenvalues --    0.13372   0.14979   0.15091   0.16229   0.16556
 Alpha virt. eigenvalues --    0.18782   0.20859   0.21140   0.21629   0.22598
 Alpha virt. eigenvalues --    0.23737   0.24605   0.25072   0.25997   0.26586

 Mulliken charges:
               1
     1  C    0.598196
     2  H    0.306558
     3  Cl  -0.606105
     4  Cl  -0.606294
     5  C    0.425724
     6  H   -0.140470
     7  H    0.308559
     8  C   -1.718627
     9  N    0.935187
    10  C   -1.354445
    11  N    0.851717
 Sum of Mulliken charges =  -1.00000

 Dipole moment (field-independent basis, Debye):
    X=             -0.0818    Y=              0.9051    Z=              2.3491  Tot=              2.5188

 Test job not archived.
 1\1\GINC-SE132\SP\RHF\Aug-CC-pVDZ\C4H3Cl2N2(1-)\OHZDE\09-Apr-2025\0\\#
 t hf aug-cc-pvdz iop(5/13=1,5/36=2,99/5=2) pseudo=read geom=check gues
 s=(read,tcheck) scf=(maxcycle=1)\\title\\-1,1\C,0,0.55996058,-0.054231
 02,-0.03983782\H,0,1.50622452,1.83544764,-0.44431066\Cl,0,-1.74753168,
 -0.23401771,-0.21254202\Cl,0,2.80095154,-0.1884911,0.55256536\C,0,0.55
 193671,1.46405123,-0.06996808\H,0,0.41491925,-0.6183811,0.85976323\H,0
 ,-0.2489053,1.81462905,-0.7214483\C,0,0.77859057,-0.7303796,-1.2858501
 2\N,0,0.96019471,-1.2356422,-2.33321968\C,0,0.33753633,2.02656857,1.25

 Normal termination of Gaussian 16 at Wed Apr  9 02:46:45 2025.
