 Gaussian 16, Revision C.01,

 ----------------------------------------------------------------------
 #t hf aug-cc-pvdz symm=none int=(grid=ultrafine) guess=(read,tcheck) s
 table=(opt,rrhf)
 ----------------------------------------------------------------------
 -----
 title
 -----
 Symbolic Z-matrix:
 Charge = -1 Multiplicity = 1

 SCF Done:  E(RHF) =  -836.241623650     A.U. after   17 cycles
 Normal termination of Gaussian 16 at Wed Apr  9 02:43:03 2025.
 Gaussian 16:  ES64L-G16RevC.01  3-Jul-2019

 ----------------------------------------------------------------------
 #t hf aug-cc-pvdz iop(5/13=1,5/36=2,99/5=2) pseudo=read geom=check gue
 ss=(read,tcheck) scf=(maxcycle=1)
 ----------------------------------------------------------------------
 -----
 title
 -----
 Structure from the checkpoint file:  "E2SN2_220_mol2.chk"
 Charge = -1 Multiplicity = 1

                         Standard orientation:
 ---------------------------------------------------------------------
 Center     Atomic      Atomic             Coordinates (Angstroms)
 Number     Number       Type             X           Y           Z
 ---------------------------------------------------------------------
      1          6           0       -0.242890   -0.116843   -0.600401
      2          6           0        1.200314   -0.440738   -0.260859
      3         17           0       -1.366121   -1.474642   -0.345252
      4          1           0        1.489344   -1.261353   -0.943240
      5          1           0       -0.338418    0.183167   -1.642574
      6          7           0       -0.741451    1.075856    0.173070
      7          8           0       -0.863262    2.117445   -0.468575
      8          8           0       -0.969881    0.940655    1.368930
      9          6           0        1.450380   -0.918540    1.159015
     10          1           0        2.510240   -1.179290    1.200612
     11          1           0        0.849634   -1.794637    1.415817
     12          1           0        1.252105   -0.115575    1.869332
     13          7           0        1.987262    0.762851   -0.485733
     14          1           0        2.972878    0.365295   -0.537259
     15          1           0        1.825383    1.072242   -1.444840
     16          1           0        4.160541   -0.679951   -0.849307
 ---------------------------------------------------------------------

 SCF Done:  E(RHF) =  -836.702054122     A.U. after    2 cycles

 The electronic state is 1-A.
 Alpha  occ. eigenvalues -- -105.48457 -20.49348 -20.49248 -15.68732 -15.33702
 Alpha  occ. eigenvalues --  -11.26271 -11.15598 -11.09558 -10.53309  -7.70264
 Alpha  occ. eigenvalues --   -7.69872  -7.69859  -1.56423  -1.40456  -1.09936
 Alpha  occ. eigenvalues --   -1.03025  -0.93525  -0.87406  -0.78525  -0.71852
 Alpha  occ. eigenvalues --   -0.66291  -0.64550  -0.62094  -0.55088  -0.53811
 Alpha  occ. eigenvalues --   -0.52743  -0.44875  -0.42007  -0.41310  -0.40768
 Alpha  occ. eigenvalues --   -0.40325  -0.38056  -0.37578  -0.35662  -0.34435
 Alpha  occ. eigenvalues --   -0.30319  -0.09496
 Alpha virt. eigenvalues --    0.12533   0.13629   0.14602   0.15380   0.16154
 Alpha virt. eigenvalues --    0.16276   0.17272   0.18602   0.20557   0.20963
 Alpha virt. eigenvalues --    0.22240   0.23101   0.23810   0.25041   0.25902

 Mulliken charges:
               1
     1  C   -0.290121
     2  C   -1.696709
     3  Cl  -0.060523
     4  H    0.145968
     5  H    0.117624
     6  N    2.785466
     7  O   -1.409867
     8  O   -1.420482
     9  C    0.035475
    10  H    0.176856
    11  H    0.182861
    12  H    0.289915
    13  N    0.554053
    14  H    0.151922
    15  H    0.232064
    16  H   -0.794502
 Sum of Mulliken charges =  -1.00000

 Dipole moment (field-independent basis, Debye):
    X=            -13.5991    Y=             -0.1762    Z=              0.8874  Tot=             13.6291

 Test job not archived.
 1\1\GINC-SE460\SP\RHF\Aug-CC-pVDZ\C3H8Cl1N2O2(1-)\OHZDE\09-Apr-2025\0\
 \#t hf aug-cc-pvdz iop(5/13=1,5/36=2,99/5=2) pseudo=read geom=check gu
 ess=(read,tcheck) scf=(maxcycle=1)\\title\\-1,1\C,0,0.279732,-0.026037
 ,-0.22617\C,0,-0.818046,0.153862,-1.258427\Cl,0,1.887219,0.498749,-0.7
 83804\H,0,-0.526052,-0.479477,-2.116455\H,0,0.370137,-1.070864,0.06609
 5\N,0,-0.043995,0.689066,1.05959\O,0,-0.380302,-0.027032,2.000629\O,0,
 0.027595,1.911766,1.080135\C,0,-1.006054,1.568431,-1.77854\H,0,-1.7672
 76,1.497617,-2.558637\H,0,-0.087651,1.982057,-2.202613\H,0,-1.36954,2.

 Normal termination of Gaussian 16 at Wed Apr  9 02:43:08 2025.
