 Gaussian 16, Revision C.01,

 ----------------------------------------------------------------------
 #t hf aug-cc-pvdz symm=none int=(grid=ultrafine) guess=(read,tcheck) s
 table=(opt,rrhf)
 ----------------------------------------------------------------------
 -----
 title
 -----
 Symbolic Z-matrix:
 Charge = -1 Multiplicity = 1

 SCF Done:  E(RHF) =  -1199.57125058     A.U. after   15 cycles
 Normal termination of Gaussian 16 at Wed Apr  9 02:40:08 2025.
 Gaussian 16:  ES64L-G16RevC.01  3-Jul-2019

 ----------------------------------------------------------------------
 #t hf aug-cc-pvdz iop(5/13=1,5/36=2,99/5=2) pseudo=read geom=check gue
 ss=(read,tcheck) scf=(maxcycle=1)
 ----------------------------------------------------------------------
 -----
 title
 -----
 Structure from the checkpoint file:  "E2SN2_184_mol2.chk"
 Charge = -1 Multiplicity = 1

                         Standard orientation:
 ---------------------------------------------------------------------
 Center     Atomic      Atomic             Coordinates (Angstroms)
 Number     Number       Type             X           Y           Z
 ---------------------------------------------------------------------
      1          6           0        0.675552    0.033416   -0.204830
      2          6           0        0.120393    0.100455    1.237377
      3         17           0        1.592979   -1.495113   -0.459322
      4          1           0        0.981281    0.087938    1.917871
      5          1           0       -0.178250    0.013738   -0.892021
      6          6           0        1.567762    1.148048   -0.498480
      7          7           0        2.322361    2.015592   -0.738918
      8          7           0       -0.756182   -0.998643    1.595896
      9          1           0       -1.539384   -0.987075    0.941961
     10          1           0       -0.272867   -1.883784    1.491097
     11          7           0       -0.540671    1.386330    1.325032
     12          1           0       -1.334377    1.353680    0.683392
     13          1           0       -0.927399    1.458986    2.259987
     14         17           0       -2.657085    0.050527   -1.004252
 ---------------------------------------------------------------------

 SCF Done:  E(RHF) =  -1200.01378621     A.U. after    2 cycles

 The electronic state is 1-A.
 Alpha  occ. eigenvalues -- -105.46632-105.29646 -15.41046 -15.36612 -15.36521
 Alpha  occ. eigenvalues --  -11.22089 -11.19420 -11.18413 -10.51468 -10.34262
 Alpha  occ. eigenvalues --   -7.68411  -7.68045  -7.68025  -7.51027  -7.50996
 Alpha  occ. eigenvalues --   -7.50993  -1.13182  -1.10903  -1.01801  -1.00958
 Alpha  occ. eigenvalues --   -0.86286  -0.75706  -0.74341  -0.63604  -0.58789
 Alpha  occ. eigenvalues --   -0.57753  -0.54019  -0.52492  -0.49979  -0.46487
 Alpha  occ. eigenvalues --   -0.43392  -0.39423  -0.38603  -0.36306  -0.35912
 Alpha  occ. eigenvalues --   -0.33977  -0.32116  -0.22367  -0.22135  -0.22079
 Alpha virt. eigenvalues --    0.12945   0.13990   0.14154   0.15916   0.17427
 Alpha virt. eigenvalues --    0.17809   0.18741   0.19385   0.21911   0.22330
 Alpha virt. eigenvalues --    0.23461   0.24384   0.24861   0.25219   0.25899

 Mulliken charges:
               1
     1  C    0.603086
     2  C   -2.779548
     3  Cl  -0.060401
     4  H    0.004559
     5  H    0.256237
     6  C   -1.434244
     7  N    0.878093
     8  N    0.840690
     9  H    0.219465
    10  H    0.237831
    11  N    0.755906
    12  H    0.209796
    13  H    0.225360
    14  Cl  -0.956830
 Sum of Mulliken charges =  -1.00000

 Dipole moment (field-independent basis, Debye):
    X=              5.1443    Y=             -3.2970    Z=              4.0179  Tot=              7.3128

 Test job not archived.
 1\1\GINC-SE074\SP\RHF\Aug-CC-pVDZ\C3H6Cl2N3(1-)\OHZDE\09-Apr-2025\0\\#
 t hf aug-cc-pvdz iop(5/13=1,5/36=2,99/5=2) pseudo=read geom=check gues
 s=(read,tcheck) scf=(maxcycle=1)\\title\\-1,1\C,0,-0.354071,-0.101905,
 0.151839\C,0,-0.583795,-0.775801,-1.221387\Cl,0,0.864076,1.217122,0.01
 3547\H,0,0.373895,-1.21104,-1.53404\H,0,-1.297881,0.363453,0.458859\C,
 0,0.120559,-1.049796,1.15229\N,0,0.543918,-1.790187,1.960034\N,0,-1.03
 4005,0.125313,-2.265533\H,0,-1.912802,0.537859,-1.951381\H,0,-0.36448,
 0.875328,-2.396932\N,0,-1.531746,-1.840036,-0.962627\H,0,-2.405865,-1.

 Normal termination of Gaussian 16 at Wed Apr  9 02:40:14 2025.
