 Gaussian 16, Revision C.01,

 ----------------------------------------------------------------------
 #t hf aug-cc-pvdz symm=none int=(grid=ultrafine) guess=(read,tcheck) s
 table=(opt,rrhf)
 ----------------------------------------------------------------------
 -----
 title
 -----
 Symbolic Z-matrix:
 Charge = -1 Multiplicity = 1

 SCF Done:  E(RHF) =  -419.471567222     A.U. after   15 cycles
 Normal termination of Gaussian 16 at Wed Apr  9 02:50:14 2025.
 Gaussian 16:  ES64L-G16RevC.01  3-Jul-2019

 ----------------------------------------------------------------------
 #t hf aug-cc-pvdz iop(5/13=1,5/36=2,99/5=2) pseudo=read geom=check gue
 ss=(read,tcheck) scf=(maxcycle=1)
 ----------------------------------------------------------------------
 -----
 title
 -----
 Structure from the checkpoint file:  "E2SN2_287_mol2.chk"
 Charge = -1 Multiplicity = 1

                         Standard orientation:
 ---------------------------------------------------------------------
 Center     Atomic      Atomic             Coordinates (Angstroms)
 Number     Number       Type             X           Y           Z
 ---------------------------------------------------------------------
      1          6           0        0.348705   -0.457302   -0.006278
      2          6           0       -0.831273    0.374169   -0.577501
      3          9           0        0.638040   -1.491069   -0.914986
      4          1           0       -0.622248    0.422632   -1.656531
      5          6           0        1.563482    0.385265    0.017613
      6          7           0        2.535655    1.044521    0.013675
      7          6           0        0.074080   -1.063577    1.350464
      8          1           0       -0.644751   -1.868653    1.197283
      9          1           0        0.990845   -1.464873    1.789610
     10          1           0       -0.403349   -0.328526    2.010191
     11          7           0       -0.954063    1.719102   -0.044662
     12          1           0       -0.066982    2.210075   -0.028269
     13          1           0       -1.337515    1.642457    0.911019
     14          7           0       -2.049974   -0.384445   -0.359408
     15          1           0       -2.327926   -0.179579    0.612247
     16          1           0       -2.763142    0.055010   -0.932958
     17          1           0       -2.218579    0.845508    2.359267
 ---------------------------------------------------------------------

 SCF Done:  E(RHF) =  -419.897809179     A.U. after    2 cycles

 The electronic state is 1-A.
 Alpha  occ. eigenvalues --  -26.34634 -15.41913 -15.35063 -15.34498 -11.24506
 Alpha  occ. eigenvalues --  -11.18483 -11.17744 -11.11103  -1.46783  -1.12438
 Alpha  occ. eigenvalues --   -1.10165  -0.99394  -0.94893  -0.81450  -0.73688
 Alpha  occ. eigenvalues --   -0.63009  -0.60057  -0.58298  -0.55123  -0.52766
 Alpha  occ. eigenvalues --   -0.51751  -0.50789  -0.46654  -0.45068  -0.42745
 Alpha  occ. eigenvalues --   -0.42282  -0.41757  -0.39543  -0.38366  -0.33020
 Alpha  occ. eigenvalues --   -0.29936  -0.10152
 Alpha virt. eigenvalues --    0.13106   0.13267   0.14496   0.15160   0.15786
 Alpha virt. eigenvalues --    0.17435   0.17921   0.19287   0.20951   0.21444
 Alpha virt. eigenvalues --    0.22237   0.23097   0.23627   0.24346   0.25067

 Mulliken charges:
               1
     1  C    1.693664
     2  C   -3.147265
     3  F   -0.996208
     4  H   -0.069751
     5  C   -2.067642
     6  N    0.990254
     7  C    0.049630
     8  H    0.294265
     9  H    0.088278
    10  H    0.308865
    11  N    0.935860
    12  H    0.256493
    13  H    0.195070
    14  N    0.872860
    15  H    0.197268
    16  H    0.243762
    17  H   -0.845403
 Sum of Mulliken charges =  -1.00000

 Dipole moment (field-independent basis, Debye):
    X=              4.7276    Y=             -3.7420    Z=             -6.5291  Tot=              8.8872

 Test job not archived.
 1\1\GINC-SE322\SP\RHF\Aug-CC-pVDZ\C4H9F1N3(1-)\OHZDE\09-Apr-2025\0\\#t
  hf aug-cc-pvdz iop(5/13=1,5/36=2,99/5=2) pseudo=read geom=check guess
 =(read,tcheck) scf=(maxcycle=1)\\title\\-1,1\C,0,0.074569,0.039895,-0.
 010566\C,0,-0.450728,-0.061486,-1.467883\F,0,1.442234,-0.288172,-0.012
 823\H,0,0.371038,0.348083,-2.073936\C,0,0.018297,1.452132,0.423707\N,0
 ,-0.001388,2.576808,0.762042\C,0,-0.641908,-0.863919,0.965916\H,0,-0.3
 28634,-1.883569,0.74119\H,0,-0.374598,-0.613286,1.995515\H,0,-1.72634,
 -0.819022,0.806321\N,0,-1.670213,0.678704,-1.737722\H,0,-1.637332,1.62

 Normal termination of Gaussian 16 at Wed Apr  9 02:50:22 2025.
