 Gaussian 16, Revision C.01,

 ----------------------------------------------------------------------
 #t hf aug-cc-pvdz symm=none int=(grid=ultrafine) guess=(read,tcheck) s
 table=(opt,rrhf)
 ----------------------------------------------------------------------
 -----
 title
 -----
 Symbolic Z-matrix:
 Charge = -1 Multiplicity = 1

 SCF Done:  E(RHF) =  -463.354944768     A.U. after   15 cycles
 Normal termination of Gaussian 16 at Wed Apr  9 02:57:11 2025.
 Gaussian 16:  ES64L-G16RevC.01  3-Jul-2019

 ----------------------------------------------------------------------
 #t hf aug-cc-pvdz iop(5/13=1,5/36=2,99/5=2) pseudo=read geom=check gue
 ss=(read,tcheck) scf=(maxcycle=1)
 ----------------------------------------------------------------------
 -----
 title
 -----
 Structure from the checkpoint file:  "E2SN2_372_mol1.chk"
 Charge = -1 Multiplicity = 1

                         Standard orientation:
 ---------------------------------------------------------------------
 Center     Atomic      Atomic             Coordinates (Angstroms)
 Number     Number       Type             X           Y           Z
 ---------------------------------------------------------------------
      1          6           0        0.839053   -0.200820    0.258128
      2          1           0        0.069647    1.008727   -1.275916
      3          9           0       -0.276774   -1.027953    1.419919
      4          9           0        2.081853    0.741532   -0.632731
      5          6           0       -0.286060    0.645218   -0.309977
      6          1           0        1.352767    0.129831    1.145867
      7          7           0        1.154245   -1.417038   -0.428359
      8          1           0        0.969706   -2.163829    0.225759
      9          1           0        2.133563   -1.363279   -0.667794
     10          6           0       -0.577566    1.825717    0.611860
     11          1           0       -0.882446    1.438905    1.584485
     12          1           0        0.341341    2.406472    0.715346
     13          1           0       -1.365681    2.469979    0.211651
     14          6           0       -1.508026   -0.126995   -0.562492
     15          7           0       -2.535532   -0.612639   -0.858669
 ---------------------------------------------------------------------

 SCF Done:  E(RHF) =  -463.812146191     A.U. after    2 cycles

 The electronic state is 1-A.
 Alpha  occ. eigenvalues --  -26.16184 -26.15449 -15.35645 -15.34152 -11.21571
 Alpha  occ. eigenvalues --  -11.13706 -11.13082 -11.10522  -1.25214  -1.23532
 Alpha  occ. eigenvalues --   -1.06605  -1.03827  -0.94358  -0.77958  -0.70838
 Alpha  occ. eigenvalues --   -0.56464  -0.55167  -0.54366  -0.50709  -0.46185
 Alpha  occ. eigenvalues --   -0.42428  -0.41359  -0.40698  -0.37307  -0.34470
 Alpha  occ. eigenvalues --   -0.33793  -0.32785  -0.31869  -0.31407  -0.30882
 Alpha  occ. eigenvalues --   -0.29509  -0.26671
 Alpha virt. eigenvalues --    0.12987   0.14216   0.14467   0.15282   0.16430
 Alpha virt. eigenvalues --    0.16958   0.17468   0.19932   0.23053   0.24508
 Alpha virt. eigenvalues --    0.25109   0.25818   0.26333   0.27010   0.27817

 Mulliken charges:
               1
     1  C   -0.281109
     2  H    0.362576
     3  F   -0.934687
     4  F   -0.957453
     5  C    0.015185
     6  H   -0.072115
     7  N    0.550506
     8  H    0.295864
     9  H    0.280936
    10  C    0.035337
    11  H    0.334732
    12  H    0.194327
    13  H    0.114354
    14  C   -1.989828
    15  N    1.051375
 Sum of Mulliken charges =  -1.00000

 Dipole moment (field-independent basis, Debye):
    X=              1.8829    Y=              2.5109    Z=              0.8748  Tot=              3.2581

 Test job not archived.
 1\1\GINC-SE149\SP\RHF\Aug-CC-pVDZ\C4H7F2N2(1-)\OHZDE\09-Apr-2025\0\\#t
  hf aug-cc-pvdz iop(5/13=1,5/36=2,99/5=2) pseudo=read geom=check guess
 =(read,tcheck) scf=(maxcycle=1)\\title\\-1,1\C,0,0.54737474,-0.0598277
 3,-0.03817972\H,0,1.61054903,1.72853436,-0.3205\F,0,-1.24748078,-0.105
 87338,-0.27344664\F,0,2.26414395,-0.13099128,0.48512437\C,0,0.57544746
 ,1.45644596,-0.10547034\H,0,0.3338158,-0.54350667,0.90084082\N,0,0.804
 65323,-0.77375642,-1.25222724\H,0,-0.03758106,-1.29205327,-1.45626665\
 H,0,1.58407361,-1.38673391,-1.06237317\C,0,0.15077632,2.05331591,1.233

 Normal termination of Gaussian 16 at Wed Apr  9 02:57:16 2025.
