 Gaussian 16, Revision C.01,

 ----------------------------------------------------------------------
 #t hf aug-cc-pvdz symm=none int=(grid=ultrafine) guess=(read,tcheck) s
 table=(opt,rrhf)
 ----------------------------------------------------------------------
 -----
 title
 -----
 Symbolic Z-matrix:
 Charge = -1 Multiplicity = 1

 SCF Done:  E(RHF) =  -1099.64863477     A.U. after   16 cycles
 Normal termination of Gaussian 16 at Wed Apr  9 02:45:56 2025.
 Gaussian 16:  ES64L-G16RevC.01  3-Jul-2019

 ----------------------------------------------------------------------
 #t hf aug-cc-pvdz iop(5/13=1,5/36=2,99/5=2) pseudo=read geom=check gue
 ss=(read,tcheck) scf=(maxcycle=1)
 ----------------------------------------------------------------------
 -----
 title
 -----
 Structure from the checkpoint file:  "E2SN2_237_mol1.chk"
 Charge = -1 Multiplicity = 1

                         Standard orientation:
 ---------------------------------------------------------------------
 Center     Atomic      Atomic             Coordinates (Angstroms)
 Number     Number       Type             X           Y           Z
 ---------------------------------------------------------------------
      1          6           0       -0.571881   -0.159359   -0.512272
      2          1           0        0.764819    1.115635   -1.586140
      3          9           0       -0.134638   -2.022735   -0.654848
      4         17           0       -1.125589    1.883944   -0.004971
      5          6           0        0.798207    0.148567   -1.093117
      6          1           0        1.029640   -0.662846   -1.772182
      7          7           0       -0.782304   -0.594899    0.923143
      8          8           0        0.169341   -0.527478    1.684518
      9          8           0       -1.912347   -0.962763    1.208075
     10          7           0       -1.591225   -0.356862   -1.464402
     11          1           0       -2.435625    0.108936   -1.167029
     12          1           0       -1.712647   -1.361541   -1.503683
     13          7           0        1.941408    0.219513   -0.136360
     14          8           0        2.160082    1.301052    0.404534
     15          8           0        2.628858   -0.789826    0.000729
 ---------------------------------------------------------------------

 SCF Done:  E(RHF) =  -1100.34138588     A.U. after    2 cycles

 The electronic state is 1-A.
 Alpha  occ. eigenvalues -- -105.37642 -26.17942 -20.46333 -20.46219 -20.45857
 Alpha  occ. eigenvalues --  -20.45687 -15.66795 -15.66183 -15.39576 -11.32916
 Alpha  occ. eigenvalues --  -11.19797 -10.42499  -7.59349  -7.59127  -7.59120
 Alpha  occ. eigenvalues --   -1.53905  -1.53360  -1.37818  -1.37235  -1.26788
 Alpha  occ. eigenvalues --   -1.12461  -1.01468  -0.94285  -0.84577  -0.79968
 Alpha  occ. eigenvalues --   -0.71658  -0.68287  -0.62967  -0.62840  -0.62076
 Alpha  occ. eigenvalues --   -0.61716  -0.59968  -0.59885  -0.52315  -0.51043
 Alpha  occ. eigenvalues --   -0.41849  -0.37157  -0.37008  -0.36600  -0.35555
 Alpha  occ. eigenvalues --   -0.34848  -0.34651  -0.33772  -0.32393  -0.31123
 Alpha  occ. eigenvalues --   -0.29493  -0.29049  -0.28599
 Alpha virt. eigenvalues --    0.13305   0.14226   0.15056   0.16304   0.18035
 Alpha virt. eigenvalues --    0.18583   0.20139   0.20949   0.22298   0.23140
 Alpha virt. eigenvalues --    0.24088   0.25533   0.26138   0.26715   0.27292

 Mulliken charges:
               1
     1  C   -2.169077
     2  H    0.247125
     3  F   -0.913825
     4  Cl  -0.442257
     5  C   -0.096927
     6  H    0.322668
     7  N    3.618400
     8  O   -1.679932
     9  O   -1.592516
    10  N    0.842747
    11  H    0.339893
    12  H    0.398525
    13  N    3.087714
    14  O   -1.508614
    15  O   -1.453921
 Sum of Mulliken charges =  -1.00000

 Dipole moment (field-independent basis, Debye):
    X=             -0.6282    Y=              0.9939    Z=             -3.1015  Tot=              3.3169

 Test job not archived.
 1\1\GINC-SE112\SP\RHF\Aug-CC-pVDZ\C2H4Cl1F1N3O4(1-)\OHZDE\09-Apr-2025\
 0\\#t hf aug-cc-pvdz iop(5/13=1,5/36=2,99/5=2) pseudo=read geom=check
 guess=(read,tcheck) scf=(maxcycle=1)\\title\\-1,1\C,0,0.73327732,-0.05
 576755,0.01489529\H,0,1.26848538,1.94485257,0.54086241\F,0,-1.16217226
 ,-0.34607247,-0.06680717\Cl,0,2.89602231,0.08016157,-0.19268161\C,0,0.
 44639373,1.43623481,0.04600736\H,0,-0.49616116,1.55356991,0.56649088\N
 ,0,0.64357859,-0.8886311,-1.24711937\O,0,0.50350557,-0.30204486,-2.308
 32656\O,0,0.74265133,-2.09728571,-1.09596784\N,0,0.74485019,-0.6859566

 Normal termination of Gaussian 16 at Wed Apr  9 02:46:05 2025.
