 Gaussian 16, Revision C.01,

 ----------------------------------------------------------------------
 #t hf aug-cc-pvdz symm=none int=(grid=ultrafine) guess=(read,tcheck) s
 table=(opt,rrhf)
 ----------------------------------------------------------------------
 -----
 title
 -----
 Symbolic Z-matrix:
 Charge = -1 Multiplicity = 1

 SCF Done:  E(RHF) =  -1222.60847020     A.U. after   15 cycles
 Normal termination of Gaussian 16 at Wed Apr  9 02:34:53 2025.
 Gaussian 16:  ES64L-G16RevC.01  3-Jul-2019

 ----------------------------------------------------------------------
 #t hf aug-cc-pvdz iop(5/13=1,5/36=2,99/5=2) pseudo=read geom=check gue
 ss=(read,tcheck) scf=(maxcycle=1)
 ----------------------------------------------------------------------
 -----
 title
 -----
 Structure from the checkpoint file:  "E2SN2_110_mol2.chk"
 Charge = -1 Multiplicity = 1

                         Standard orientation:
 ---------------------------------------------------------------------
 Center     Atomic      Atomic             Coordinates (Angstroms)
 Number     Number       Type             X           Y           Z
 ---------------------------------------------------------------------
      1          6           0        0.768231   -0.611015    0.380330
      2          6           0        0.032961    0.692877   -0.000076
      3         17           0        1.638870   -1.173158   -1.108900
      4          1           0       -0.602021    0.474261   -0.870555
      5          6           0        1.798370   -0.383354    1.469892
      6          1           0        2.260815   -1.331137    1.755750
      7          1           0        1.286446    0.048484    2.332274
      8          1           0        2.582290    0.300933    1.138812
      9          6           0       -0.244857   -1.674045    0.764033
     10          1           0       -1.015681   -1.778680   -0.000065
     11          1           0        0.262326   -2.629441    0.921883
     12          1           0       -0.740130   -1.370436    1.688113
     13          6           0        0.996872    1.734248   -0.374654
     14          7           0        1.753425    2.594421   -0.634923
     15          7           0       -0.775419    1.131026    1.141857
     16          1           0       -1.722672    0.795329    0.931505
     17          1           0       -0.828942    2.143147    1.142576
     18         17           0       -3.311690   -0.078775   -0.422040
 ---------------------------------------------------------------------

 SCF Done:  E(RHF) =  -1223.08001056     A.U. after    2 cycles

 The electronic state is 1-A.
 Alpha  occ. eigenvalues -- -105.44533-105.28776 -15.41176 -15.37399 -11.20919
 Alpha  occ. eigenvalues --  -11.19435 -11.18191 -11.13407 -11.11799 -10.49435
 Alpha  occ. eigenvalues --  -10.33375  -7.66364  -7.66028  -7.66019  -7.50144
 Alpha  occ. eigenvalues --   -7.50107  -7.50102  -1.12681  -1.09091  -1.02370
 Alpha  occ. eigenvalues --   -0.89314  -0.85940  -0.84837  -0.74201  -0.68093
 Alpha  occ. eigenvalues --   -0.61933  -0.57543  -0.54294  -0.52964  -0.50730
 Alpha  occ. eigenvalues --   -0.49816  -0.45893  -0.44874  -0.43370  -0.41042
 Alpha  occ. eigenvalues --   -0.39815  -0.39366  -0.37803  -0.35029  -0.33606
 Alpha  occ. eigenvalues --   -0.32192  -0.21637  -0.21115  -0.21085
 Alpha virt. eigenvalues --    0.11423   0.12578   0.13286   0.14177   0.15301
 Alpha virt. eigenvalues --    0.16179   0.16320   0.17962   0.18217   0.19603
 Alpha virt. eigenvalues --    0.20712   0.22229   0.23228   0.23903   0.23984

 Mulliken charges:
               1
     1  C   -1.523356
     2  C    0.192354
     3  Cl  -0.174782
     4  H    0.117583
     5  C    0.191526
     6  H    0.153190
     7  H    0.358176
     8  H    0.256634
     9  C   -0.028358
    10  H    0.276384
    11  H    0.139053
    12  H    0.318805
    13  C   -2.464157
    14  N    1.147904
    15  N    0.598749
    16  H    0.236649
    17  H    0.169204
    18  Cl  -0.965558
 Sum of Mulliken charges =  -1.00000

 Dipole moment (field-independent basis, Debye):
    X=              7.9255    Y=             -2.2625    Z=              3.4007  Tot=              8.9161

 Test job not archived.
 1\1\GINC-SE335\SP\RHF\Aug-CC-pVDZ\C5H9Cl2N2(1-)\OHZDE\09-Apr-2025\0\\#
 t hf aug-cc-pvdz iop(5/13=1,5/36=2,99/5=2) pseudo=read geom=check gues
 s=(read,tcheck) scf=(maxcycle=1)\\title\\-1,1\C,0,-0.525642,-0.022334,
 -1.473989\C,0,-0.054594,-0.204899,-0.014451\Cl,0,-0.20654,-1.592083,-2
 .325978\H,0,0.995876,-0.528096,-0.042446\C,0,-2.012496,0.264733,-1.557
 764\H,0,-2.304189,0.443912,-2.595393\H,0,-2.217419,1.156028,-0.961229\
 H,0,-2.600694,-0.569367,-1.169573\C,0,0.303982,1.056353,-2.146125\H,0,
 1.370848,0.869808,-2.019785\H,0,0.053138,1.108452,-3.208808\H,0,0.0820

 Normal termination of Gaussian 16 at Wed Apr  9 02:35:02 2025.
