 Gaussian 16, Revision C.01,

 ----------------------------------------------------------------------
 #t hf aug-cc-pvdz symm=none int=(grid=ultrafine) guess=(read,tcheck) s
 table=(opt,rrhf)
 ----------------------------------------------------------------------
 -----
 title
 -----
 Symbolic Z-matrix:
 Charge = -1 Multiplicity = 1

 SCF Done:  E(RHF) =  -627.854866258     A.U. after   16 cycles
 Normal termination of Gaussian 16 at Wed Apr  9 02:47:18 2025.
 Gaussian 16:  ES64L-G16RevC.01  3-Jul-2019

 ----------------------------------------------------------------------
 #t hf aug-cc-pvdz iop(5/13=1,5/36=2,99/5=2) pseudo=read geom=check gue
 ss=(read,tcheck) scf=(maxcycle=1)
 ----------------------------------------------------------------------
 -----
 title
 -----
 Structure from the checkpoint file:  "E2SN2_249_mol2.chk"
 Charge = -1 Multiplicity = 1

                         Standard orientation:
 ---------------------------------------------------------------------
 Center     Atomic      Atomic             Coordinates (Angstroms)
 Number     Number       Type             X           Y           Z
 ---------------------------------------------------------------------
      1          6           0        0.918719   -0.157273    0.671063
      2          6           0       -0.518302    0.372574    0.847514
      3          9           0        1.097279   -1.237264    1.551397
      4          1           0       -0.898638   -0.072942    1.774502
      5          1           0        1.611133    0.639827    0.922127
      6          6           0        1.241950   -0.635544   -0.677749
      7          7           0        1.504754   -1.197932   -1.674216
      8          7           0       -1.430517   -0.339073   -0.193749
      9          8           0       -1.481149   -1.565514   -0.118121
     10          8           0       -2.076820    0.349768   -0.977638
     11          7           0       -0.568756    1.771380    0.818005
     12          1           0       -1.506214    2.092795    0.620740
     13          1           0        0.144008    2.075618    0.092766
     14          9           0        1.427265    1.889653   -0.700210
 ---------------------------------------------------------------------

 SCF Done:  E(RHF) =  -628.453753675     A.U. after    2 cycles

 The electronic state is 1-A.
 Alpha  occ. eigenvalues --  -26.34791 -26.11880 -20.47412 -20.46787 -15.65480
 Alpha  occ. eigenvalues --  -15.38443 -15.35298 -11.24674 -11.22531 -11.15937
 Alpha  occ. eigenvalues --   -1.53852  -1.46855  -1.37973  -1.19191  -1.10084
 Alpha  occ. eigenvalues --   -1.08438  -0.94537  -0.87952  -0.74840  -0.68290
 Alpha  occ. eigenvalues --   -0.63845  -0.62802  -0.60650  -0.59909  -0.56989
 Alpha  occ. eigenvalues --   -0.54318  -0.48851  -0.48509  -0.45035  -0.43844
 Alpha  occ. eigenvalues --   -0.39127  -0.36980  -0.36703  -0.35646  -0.32917
 Alpha  occ. eigenvalues --   -0.32519  -0.28295  -0.27992  -0.27485
 Alpha virt. eigenvalues --    0.12993   0.14452   0.15539   0.18169   0.18600
 Alpha virt. eigenvalues --    0.18952   0.19729   0.21601   0.22963   0.24038
 Alpha virt. eigenvalues --    0.24672   0.25660   0.26160   0.26818   0.27109

 Mulliken charges:
               1
     1  C    1.607109
     2  C   -1.551796
     3  F   -0.888182
     4  H    0.047533
     5  H    0.323987
     6  C   -1.822701
     7  N    0.943785
     8  N    2.879772
     9  O   -1.498774
    10  O   -1.406087
    11  N    0.606764
    12  H    0.320302
    13  H    0.422064
    14  F   -0.983776
 Sum of Mulliken charges =  -1.00000

 Dipole moment (field-independent basis, Debye):
    X=             -3.9347    Y=             -1.4226    Z=              5.6275  Tot=              7.0124

 Test job not archived.
 1\1\GINC-SE036\SP\RHF\Aug-CC-pVDZ\C3H4F2N3O2(1-)\OHZDE\09-Apr-2025\0\\
 #t hf aug-cc-pvdz iop(5/13=1,5/36=2,99/5=2) pseudo=read geom=check gue
 ss=(read,tcheck) scf=(maxcycle=1)\\title\\-1,1\C,0,-0.02018,0.031938,-
 0.050297\C,0,-0.390545,0.038037,-1.546858\F,0,1.362608,0.254042,0.0584
 24\H,0,0.55434,-0.040206,-2.097783\H,0,-0.269483,-0.94117,0.360491\C,0
 ,-0.69158,1.055248,0.75876\N,0,-1.049598,1.956859,1.419982\N,0,-0.8169
 39,1.483395,-1.936644\O,0,0.028265,2.360208,-1.765561\O,0,-1.926056,1.
 65567,-2.433507\N,0,-1.323827,-0.957405,-1.860154\H,0,-1.785295,-0.754

 Normal termination of Gaussian 16 at Wed Apr  9 02:47:25 2025.
