 Gaussian 16, Revision C.01,

 ----------------------------------------------------------------------
 #t hf aug-cc-pvdz symm=none int=(grid=ultrafine) guess=(read,tcheck) s
 table=(opt,rrhf)
 ----------------------------------------------------------------------
 -----
 title
 -----
 Symbolic Z-matrix:
 Charge = -1 Multiplicity = 1

 SCF Done:  E(RHF) =  -876.120142881     A.U. after   16 cycles
 Normal termination of Gaussian 16 at Wed Apr  9 02:48:05 2025.
 Gaussian 16:  ES64L-G16RevC.01  3-Jul-2019

 ----------------------------------------------------------------------
 #t hf aug-cc-pvdz iop(5/13=1,5/36=2,99/5=2) pseudo=read geom=check gue
 ss=(read,tcheck) scf=(maxcycle=1)
 ----------------------------------------------------------------------
 -----
 title
 -----
 Structure from the checkpoint file:  "E2SN2_261_mol1.chk"
 Charge = -1 Multiplicity = 1

                         Standard orientation:
 ---------------------------------------------------------------------
 Center     Atomic      Atomic             Coordinates (Angstroms)
 Number     Number       Type             X           Y           Z
 ---------------------------------------------------------------------
      1          6           0       -0.640999    0.144624   -0.367415
      2          1           0        0.132250    1.387771    1.125336
      3         17           0        0.250640   -1.844421   -0.848468
      4          9           0       -1.576961    1.776549   -0.270426
      5          6           0        0.545630    0.893473    0.236996
      6          1           0       -0.836586    0.227542   -1.418727
      7          6           0       -1.623135   -0.417603    0.522139
      8          7           0       -2.407060   -0.852020    1.282873
      9          7           0        1.005562    1.851597   -0.769452
     10          1           0        1.750548    2.412387   -0.370925
     11          1           0        0.188265    2.439774   -0.908408
     12          6           0        1.689580    0.096559    0.703501
     13          7           0        2.668758   -0.342945    1.180748
 ---------------------------------------------------------------------

 SCF Done:  E(RHF) =  -876.599733734     A.U. after    2 cycles

 The electronic state is 1-A.
 Alpha  occ. eigenvalues -- -105.35700 -26.19631 -15.40117 -15.39674 -15.39289
 Alpha  occ. eigenvalues --  -11.26754 -11.21641 -11.17711 -11.17540 -10.40503
 Alpha  occ. eigenvalues --   -7.57339  -7.57150  -7.57139  -1.27661  -1.12225
 Alpha  occ. eigenvalues --   -1.09924  -1.08797  -0.95542  -0.84029  -0.79945
 Alpha  occ. eigenvalues --   -0.66815  -0.62450  -0.55307  -0.54392  -0.53197
 Alpha  occ. eigenvalues --   -0.48823  -0.48339  -0.43558  -0.39035  -0.38812
 Alpha  occ. eigenvalues --   -0.37176  -0.36919  -0.35563  -0.34915  -0.33654
 Alpha  occ. eigenvalues --   -0.27499  -0.27339  -0.26335
 Alpha virt. eigenvalues --    0.12420   0.14547   0.14777   0.15888   0.18537
 Alpha virt. eigenvalues --    0.18857   0.19933   0.22069   0.22561   0.23398
 Alpha virt. eigenvalues --    0.24006   0.24753   0.25401   0.25886   0.26080

 Mulliken charges:
               1
     1  C    1.069269
     2  H    0.369345
     3  Cl  -0.529903
     4  F   -0.896255
     5  C   -0.139898
     6  H    0.024030
     7  C   -1.460744
     8  N    0.837453
     9  N    0.389036
    10  H    0.145111
    11  H    0.212824
    12  C   -2.020366
    13  N    1.000097
 Sum of Mulliken charges =  -1.00000

 Dipole moment (field-independent basis, Debye):
    X=              1.4925    Y=              4.5186    Z=             -1.1194  Tot=              4.8886

 Test job not archived.
 1\1\GINC-SE132\SP\RHF\Aug-CC-pVDZ\C4H4Cl1F1N3(1-)\OHZDE\09-Apr-2025\0\
 \#t hf aug-cc-pvdz iop(5/13=1,5/36=2,99/5=2) pseudo=read geom=check gu
 ess=(read,tcheck) scf=(maxcycle=1)\\title\\-1,1\C,0,0.41768822,-0.0415
 9822,-0.03660018\H,0,1.52730622,1.62534324,-0.63800611\Cl,0,-1.6757984
 8,-0.3969202,-0.72492436\F,0,2.11341909,-0.00495651,0.78301323\C,0,0.5
 4787894,1.47511071,-0.16629072\H,0,0.10324523,-0.46581151,0.89697105\C
 ,0,0.98580961,-0.87001889,-1.06759749\N,0,1.47239393,-1.50979058,-1.92
 544361\N,0,0.49199387,2.02753621,1.1880279\H,0,0.64509692,3.02879437,1

 Normal termination of Gaussian 16 at Wed Apr  9 02:48:11 2025.
