 Gaussian 16, Revision C.01,

 ----------------------------------------------------------------------
 #t hf aug-cc-pvdz symm=none int=(grid=ultrafine) guess=(read,tcheck) s
 table=(opt,rrhf)
 ----------------------------------------------------------------------
 -----
 title
 -----
 Symbolic Z-matrix:
 Charge = -1 Multiplicity = 1

 SCF Done:  E(RHF) =  -1334.36169516     A.U. after   15 cycles
 Normal termination of Gaussian 16 at Wed Apr  9 02:39:37 2025.
 Gaussian 16:  ES64L-G16RevC.01  3-Jul-2019

 ----------------------------------------------------------------------
 #t hf aug-cc-pvdz iop(5/13=1,5/36=2,99/5=2) pseudo=read geom=check gue
 ss=(read,tcheck) scf=(maxcycle=1)
 ----------------------------------------------------------------------
 -----
 title
 -----
 Structure from the checkpoint file:  "E2SN2_14_mol2.chk"
 Charge = -1 Multiplicity = 1

                         Standard orientation:
 ---------------------------------------------------------------------
 Center     Atomic      Atomic             Coordinates (Angstroms)
 Number     Number       Type             X           Y           Z
 ---------------------------------------------------------------------
      1          6           0        0.968257   -0.158829    0.403857
      2          6           0       -0.483278   -0.101727   -0.107042
      3         17           0        1.850224   -1.506731   -0.354549
      4          1           0       -0.960695    0.710198    0.450599
      5          7           0        1.640458    1.149733    0.000434
      6          8           0        2.484301    1.172729   -0.887367
      7          8           0        1.219981    2.136123    0.602609
      8          6           0        1.050118   -0.301403    1.907742
      9          1           0        0.535449   -1.223129    2.170914
     10          1           0        2.090683   -0.335249    2.238947
     11          1           0        0.539712    0.539536    2.376813
     12          7           0       -1.149397   -1.329071    0.295749
     13          1           0       -1.055514   -2.010983   -0.449847
     14          1           0       -2.142968   -1.087420    0.360352
     15          6           0       -0.595477    0.224182   -1.591614
     16          1           0       -1.661531    0.280338   -1.817705
     17          1           0       -0.130281   -0.556894   -2.200502
     18          1           0       -0.138697    1.184159   -1.849773
     19         17           0       -3.955256    0.289710    0.074980
 ---------------------------------------------------------------------

 SCF Done:  E(RHF) =  -1334.93953458     A.U. after    2 cycles

 The electronic state is 1-A.
 Alpha  occ. eigenvalues -- -105.47559-105.27895 -20.50290 -20.49795 -15.69360
 Alpha  occ. eigenvalues --  -15.35675 -11.27000 -11.16549 -11.15166 -11.11165
 Alpha  occ. eigenvalues --  -10.52468 -10.32473  -7.69420  -7.69033  -7.69024
 Alpha  occ. eigenvalues --   -7.49237  -7.49203  -7.49199  -1.57280  -1.41190
 Alpha  occ. eigenvalues --   -1.11354  -1.04612  -0.94128  -0.89509  -0.87944
 Alpha  occ. eigenvalues --   -0.77135  -0.73136  -0.72360  -0.65617  -0.64791
 Alpha  occ. eigenvalues --   -0.63349  -0.57187  -0.53327  -0.51171  -0.50141
 Alpha  occ. eigenvalues --   -0.48519  -0.46416  -0.44559  -0.41531  -0.40811
 Alpha  occ. eigenvalues --   -0.39959  -0.38473  -0.36496  -0.36016  -0.35380
 Alpha  occ. eigenvalues --   -0.31926  -0.20574  -0.20176  -0.20115
 Alpha virt. eigenvalues --    0.11392   0.13112   0.13666   0.14135   0.14152
 Alpha virt. eigenvalues --    0.15668   0.16058   0.16264   0.17859   0.18865
 Alpha virt. eigenvalues --    0.20075   0.21078   0.22099   0.24112   0.24231

 Mulliken charges:
               1
     1  C   -1.886326
     2  C   -1.217655
     3  Cl   0.025842
     4  H    0.207875
     5  N    3.237035
     6  O   -1.447559
     7  O   -1.610130
     8  C    0.112360
     9  H    0.386640
    10  H    0.164183
    11  H    0.347445
    12  N    0.628095
    13  H    0.261977
    14  H    0.254074
    15  C   -0.038651
    16  H    0.173563
    17  H    0.197250
    18  H    0.191991
    19  Cl  -0.988010
 Sum of Mulliken charges =  -1.00000

 Dipole moment (field-independent basis, Debye):
    X=             12.2542    Y=             -2.3973    Z=              0.1491  Tot=             12.4874

 Test job not archived.
 1\1\GINC-SE132\SP\RHF\Aug-CC-pVDZ\C4H9Cl2N2O2(1-)\OHZDE\09-Apr-2025\0\
 \#t hf aug-cc-pvdz iop(5/13=1,5/36=2,99/5=2) pseudo=read geom=check gu
 ess=(read,tcheck) scf=(maxcycle=1)\\title\\-1,1\C,0,-0.48343,0.026733,
 -1.571974\C,0,0.154516,0.04496,-0.170573\Cl,0,-2.235976,-0.267273,-1.4
 6231\H,0,1.229013,0.170863,-0.337059\N,0,-0.259492,1.404299,-2.187688\
 O,0,-1.19073,2.188624,-2.323405\O,0,0.91364,1.64347,-2.468651\C,0,0.13
 4521,-1.014844,-2.47859\H,0,-0.009404,-1.981713,-2.000917\H,0,-0.33595
 9,-1.000419,-3.46452\H,0,1.202282,-0.819246,-2.575276\N,0,-0.022162,-1

 Normal termination of Gaussian 16 at Wed Apr  9 02:39:49 2025.
