 Gaussian 16, Revision C.01,

 ----------------------------------------------------------------------
 #t hf aug-cc-pvdz symm=none int=(grid=ultrafine) guess=(read,tcheck) s
 table=(opt,rrhf)
 ----------------------------------------------------------------------
 -----
 title
 -----
 Symbolic Z-matrix:
 Charge = -1 Multiplicity = 1

 SCF Done:  E(RHF) =  -1220.26724128     A.U. after   15 cycles
 Normal termination of Gaussian 16 at Wed Apr  9 02:53:28 2025.
 Gaussian 16:  ES64L-G16RevC.01  3-Jul-2019

 ----------------------------------------------------------------------
 #t hf aug-cc-pvdz iop(5/13=1,5/36=2,99/5=2) pseudo=read geom=check gue
 ss=(read,tcheck) scf=(maxcycle=1)
 ----------------------------------------------------------------------
 -----
 title
 -----
 Structure from the checkpoint file:  "E2SN2_325_mol2.chk"
 Charge = -1 Multiplicity = 1

                         Standard orientation:
 ---------------------------------------------------------------------
 Center     Atomic      Atomic             Coordinates (Angstroms)
 Number     Number       Type             X           Y           Z
 ---------------------------------------------------------------------
      1          6           0        0.314671   -0.786117   -0.433658
      2          6           0       -0.002939    0.549929    0.251004
      3         17           0        2.066808   -0.883898   -0.841760
      4          1           0       -1.120181    0.539235    0.324436
      5          1           0       -0.229098   -0.785139   -1.378717
      6          6           0       -0.097975   -1.966351    0.418044
      7          1           0       -1.168112   -1.874595    0.616629
      8          1           0        0.087615   -2.897169   -0.120945
      9          1           0        0.463359   -1.986434    1.354746
     10          6           0        0.386065    1.700852   -0.562202
     11          7           0        0.689721    2.625642   -1.218959
     12          6           0        0.594635    0.646342    1.581432
     13          7           0        1.055971    0.705557    2.659982
     14         17           0       -3.091524   -0.126821   -0.241242
 ---------------------------------------------------------------------

 SCF Done:  E(RHF) =  -1220.71918452     A.U. after    2 cycles

 The electronic state is 1-A.
 Alpha  occ. eigenvalues -- -105.46304-105.30181 -15.42881 -15.42423 -11.22750
 Alpha  occ. eigenvalues --  -11.21668 -11.20198 -11.19740 -11.13709 -10.51188
 Alpha  occ. eigenvalues --  -10.34804  -7.68127  -7.67773  -7.67760  -7.51581
 Alpha  occ. eigenvalues --   -7.51533  -7.51528  -1.13977  -1.12383  -1.06163
 Alpha  occ. eigenvalues --   -0.95613  -0.89030  -0.75872  -0.74529  -0.68136
 Alpha  occ. eigenvalues --   -0.59743  -0.57052  -0.52141  -0.51719  -0.50590
 Alpha  occ. eigenvalues --   -0.47227  -0.44667  -0.42533  -0.41096  -0.40772
 Alpha  occ. eigenvalues --   -0.39587  -0.38143  -0.35483  -0.35226  -0.22750
 Alpha  occ. eigenvalues --   -0.22552  -0.22507
 Alpha virt. eigenvalues --    0.12076   0.13753   0.14542   0.16017   0.16738
 Alpha virt. eigenvalues --    0.17658   0.18435   0.19169   0.21602   0.22306
 Alpha virt. eigenvalues --    0.22644   0.23225   0.23607   0.24231   0.24672

 Mulliken charges:
               1
     1  C   -0.694123
     2  C    0.626789
     3  Cl  -0.091336
     4  H    0.411506
     5  H    0.186172
     6  C   -0.132259
     7  H    0.260402
     8  H    0.139404
     9  H    0.278600
    10  C   -1.641270
    11  N    0.995284
    12  C   -1.341631
    13  N    0.925843
    14  Cl  -0.923380
 Sum of Mulliken charges =  -1.00000

 Dipole moment (field-independent basis, Debye):
    X=              6.4021    Y=             -3.9453    Z=             -0.4093  Tot=              7.5312

 Test job not archived.
 1\1\GINC-SE461\SP\RHF\Aug-CC-pVDZ\C5H5Cl2N2(1-)\OHZDE\09-Apr-2025\0\\#
 t hf aug-cc-pvdz iop(5/13=1,5/36=2,99/5=2) pseudo=read geom=check gues
 s=(read,tcheck) scf=(maxcycle=1)\\title\\-1,1\C,0,-0.049007,0.013876,0
 .023296\C,0,-0.614387,0.318039,-1.370435\Cl,0,1.74234,-0.164885,-0.048
 895\H,0,-1.721793,0.269448,-1.212234\H,0,-0.450824,-0.9572,0.313773\C,
 0,-0.435822,1.074245,1.030578\H,0,-1.526545,1.12685,1.05514\H,0,-0.068
 293,0.798655,2.020703\H,0,-0.013319,2.043776,0.757795\C,0,-0.252785,-0
 .700732,-2.354612\N,0,0.029472,-1.523519,-3.143361\C,0,-0.225291,1.643

 Normal termination of Gaussian 16 at Wed Apr  9 02:53:35 2025.
