 Gaussian 16, Revision C.01,

 ----------------------------------------------------------------------
 #t hf aug-cc-pvdz symm=none int=(grid=ultrafine) guess=(read,tcheck) s
 table=(opt,rrhf)
 ----------------------------------------------------------------------
 -----
 title
 -----
 Symbolic Z-matrix:
 Charge = -1 Multiplicity = 1

 SCF Done:  E(RHF) =  -740.463481664     A.U. after   17 cycles
 Normal termination of Gaussian 16 at Wed Apr  9 02:33:14 2025.
 Gaussian 16:  ES64L-G16RevC.01  3-Jul-2019

 ----------------------------------------------------------------------
 #t hf aug-cc-pvdz iop(5/13=1,5/36=2,99/5=2) pseudo=read geom=check gue
 ss=(read,tcheck) scf=(maxcycle=1)
 ----------------------------------------------------------------------
 -----
 title
 -----
 Structure from the checkpoint file:  "E2SN2_107_mol1.chk"
 Charge = -1 Multiplicity = 1

                         Standard orientation:
 ---------------------------------------------------------------------
 Center     Atomic      Atomic             Coordinates (Angstroms)
 Number     Number       Type             X           Y           Z
 ---------------------------------------------------------------------
      1          6           0       -0.268368   -0.013357   -0.562019
      2          6           0        1.066052   -0.436444   -0.137368
      3         17           0       -0.897514    1.635780    0.228789
      4          1           0        2.352532   -1.989051   -1.516018
      5          1           0        1.437822   -1.345984   -0.886830
      6          7           0        1.085947   -1.001657    1.192705
      7          1           0        1.443627   -0.292373    1.824858
      8          1           0        1.774833   -1.751297    1.173296
      9          7           0        2.100908    0.553552   -0.383742
     10          1           0        1.723664    1.397742   -0.797227
     11          1           0        2.746817    0.112085   -1.046977
     12          6           0       -1.309094   -0.989151   -0.277632
     13          7           0       -2.168312   -1.774359   -0.117058
     14          1           0       -0.282907    0.251582   -1.621737
 ---------------------------------------------------------------------

 SCF Done:  E(RHF) =  -740.832007201     A.U. after    2 cycles

 The electronic state is 1-A.
 Alpha  occ. eigenvalues -- -105.43802 -15.40379 -15.35101 -15.34845 -11.22703
 Alpha  occ. eigenvalues --  -11.17778 -11.13326 -10.48545  -7.65449  -7.65131
 Alpha  occ. eigenvalues --   -7.65119  -1.11281  -1.09184  -0.99881  -0.97429
 Alpha  occ. eigenvalues --   -0.85925  -0.71292  -0.61588  -0.59393  -0.55435
 Alpha  occ. eigenvalues --   -0.51212  -0.49565  -0.47506  -0.46374  -0.39964
 Alpha  occ. eigenvalues --   -0.37678  -0.35847  -0.34381  -0.33638  -0.32715
 Alpha  occ. eigenvalues --   -0.29585  -0.10553
 Alpha virt. eigenvalues --    0.13117   0.14213   0.14688   0.16107   0.16640
 Alpha virt. eigenvalues --    0.17902   0.18601   0.19892   0.22076   0.22906
 Alpha virt. eigenvalues --    0.23136   0.24075   0.24732   0.25589   0.26596

 Mulliken charges:
               1
     1  C    0.141438
     2  C   -2.311682
     3  Cl  -0.125123
     4  H   -0.614221
     5  H    0.203250
     6  N    0.470304
     7  H    0.219091
     8  H    0.299527
     9  N    0.587784
    10  H    0.207736
    11  H    0.230107
    12  C   -1.328604
    13  N    0.804312
    14  H    0.216081
 Sum of Mulliken charges =  -1.00000

 Dipole moment (field-independent basis, Debye):
    X=             -3.0571    Y=              7.2973    Z=              2.0415  Tot=              8.1710

 Test job not archived.
 1\1\GINC-SE054\SP\RHF\Aug-CC-pVDZ\C3H7Cl1N3(1-)\OHZDE\09-Apr-2025\0\\#
 t hf aug-cc-pvdz iop(5/13=1,5/36=2,99/5=2) pseudo=read geom=check gues
 s=(read,tcheck) scf=(maxcycle=1)\\title\\-1,1\C,0,-0.21155323,-0.00342
 872,-0.31975439\C,0,-0.32350287,0.10013551,1.13515122\Cl,0,1.5961923,-
 0.11304821,-0.99864762\H,0,-2.41021894,-0.51238614,2.24723334\H,0,-1.5
 0568098,-0.08477011,1.44407552\N,0,0.00422651,1.41508841,1.63759352\H,
 0,0.94417158,1.37501489,2.0190817\H,0,-0.62323026,1.58499607,2.4213861
 3\N,0,0.31444497,-0.99159023,1.85130596\H,0,0.75809365,-1.6477383,1.21

 Normal termination of Gaussian 16 at Wed Apr  9 02:33:19 2025.
