 Gaussian 16, Revision C.01,

 ----------------------------------------------------------------------
 #t hf aug-cc-pvdz symm=none int=(grid=ultrafine) guess=(read,tcheck) s
 table=(opt,rrhf)
 ----------------------------------------------------------------------
 -----
 title
 -----
 Symbolic Z-matrix:
 Charge = -1 Multiplicity = 1

 SCF Done:  E(RHF) =  -1199.50603019     A.U. after   15 cycles
 Normal termination of Gaussian 16 at Wed Apr  9 02:40:00 2025.
 Gaussian 16:  ES64L-G16RevC.01  3-Jul-2019

 ----------------------------------------------------------------------
 #t hf aug-cc-pvdz iop(5/13=1,5/36=2,99/5=2) pseudo=read geom=check gue
 ss=(read,tcheck) scf=(maxcycle=1)
 ----------------------------------------------------------------------
 -----
 title
 -----
 Structure from the checkpoint file:  "E2SN2_184_mol1.chk"
 Charge = -1 Multiplicity = 1

                         Standard orientation:
 ---------------------------------------------------------------------
 Center     Atomic      Atomic             Coordinates (Angstroms)
 Number     Number       Type             X           Y           Z
 ---------------------------------------------------------------------
      1          6           0        0.178947   -0.127202   -0.388051
      2          1           0        0.792034    1.800896    0.208890
      3         17           0       -2.072494   -0.882264   -0.635828
      4         17           0        2.470423    0.172542   -0.604881
      5          6           0       -0.123798    1.213159    0.290641
      6          1           0        0.162533   -0.196537   -1.459067
      7          6           0        0.402982   -1.298878    0.410412
      8          7           0        0.619883   -2.208280    1.126326
      9          7           0       -0.496429    0.983467    1.691703
     10          1           0       -0.496179    1.886741    2.153943
     11          1           0        0.215683    0.420305    2.147963
     12          7           0       -1.121638    1.949948   -0.450738
     13          1           0       -1.190489    2.883038   -0.061248
     14          1           0       -2.009873    1.472412   -0.347475
 ---------------------------------------------------------------------

 SCF Done:  E(RHF) =  -1199.94915442     A.U. after    2 cycles

 The electronic state is 1-A.
 Alpha  occ. eigenvalues -- -105.35157-105.33725 -15.39083 -15.38151 -15.37380
 Alpha  occ. eigenvalues --  -11.25589 -11.19768 -11.17367 -10.39908 -10.38487
 Alpha  occ. eigenvalues --   -7.56733  -7.56566  -7.56556  -7.55302  -7.55165
 Alpha  occ. eigenvalues --   -7.55134  -1.12911  -1.09216  -1.02705  -0.94237
 Alpha  occ. eigenvalues --   -0.81359  -0.78905  -0.75406  -0.62373  -0.62030
 Alpha  occ. eigenvalues --   -0.58982  -0.53191  -0.50999  -0.48319  -0.46832
 Alpha  occ. eigenvalues --   -0.41195  -0.36841  -0.34927  -0.34074  -0.30197
 Alpha  occ. eigenvalues --   -0.27164  -0.26707  -0.25947  -0.25474  -0.23451
 Alpha virt. eigenvalues --    0.11492   0.13245   0.14698   0.15260   0.16430
 Alpha virt. eigenvalues --    0.17108   0.17816   0.19854   0.22100   0.22560
 Alpha virt. eigenvalues --    0.23421   0.24263   0.25079   0.25673   0.26313

 Mulliken charges:
               1
     1  C    1.112184
     2  H    0.100098
     3  Cl  -0.677802
     4  Cl  -0.587084
     5  C   -2.071222
     6  H   -0.150600
     7  C   -1.800517
     8  N    0.958228
     9  N    0.684835
    10  H    0.119326
    11  H    0.234812
    12  N    0.616432
    13  H    0.193264
    14  H    0.268048
 Sum of Mulliken charges =  -1.00000

 Dipole moment (field-independent basis, Debye):
    X=             -0.7047    Y=              6.1667    Z=              1.6916  Tot=              6.4332

 Test job not archived.
 1\1\GINC-SE069\SP\RHF\Aug-CC-pVDZ\C3H6Cl2N3(1-)\OHZDE\09-Apr-2025\0\\#
 t hf aug-cc-pvdz iop(5/13=1,5/36=2,99/5=2) pseudo=read geom=check gues
 s=(read,tcheck) scf=(maxcycle=1)\\title\\-1,1\C,0,0.67218056,0.0098962
 7,0.00713489\H,0,1.69596245,1.84438242,-0.18340287\Cl,0,-1.67003705,-0
 .3410181,-0.29515089\Cl,0,2.97613469,-0.25576642,0.10170261\C,0,0.6595
 451,1.54211793,-0.02421504\H,0,0.72195916,-0.54033549,-0.91314755\C,0,
 0.53639513,-0.68118331,1.25794704\N,0,0.46510794,-1.18128302,2.3216243
 3\N,0,0.13443008,2.0570695,1.24608622\H,0,0.32280434,3.05390274,1.2662

 Normal termination of Gaussian 16 at Wed Apr  9 02:40:06 2025.
