 Gaussian 16, Revision C.01,

 ----------------------------------------------------------------------
 #t hf aug-cc-pvdz symm=none int=(grid=ultrafine) guess=(read,tcheck) s
 table=(opt,rrhf)
 ----------------------------------------------------------------------
 -----
 title
 -----
 Symbolic Z-matrix:
 Charge = -1 Multiplicity = 1

 SCF Done:  E(RHF) =  -1295.32603031     A.U. after   15 cycles
 Normal termination of Gaussian 16 at Wed Apr  9 03:01:38 2025.
 Gaussian 16:  ES64L-G16RevC.01  3-Jul-2019

 ----------------------------------------------------------------------
 #t hf aug-cc-pvdz iop(5/13=1,5/36=2,99/5=2) pseudo=read geom=check gue
 ss=(read,tcheck) scf=(maxcycle=1)
 ----------------------------------------------------------------------
 -----
 title
 -----
 Structure from the checkpoint file:  "E2SN2_56_mol2.chk"
 Charge = -1 Multiplicity = 1

                         Standard orientation:
 ---------------------------------------------------------------------
 Center     Atomic      Atomic             Coordinates (Angstroms)
 Number     Number       Type             X           Y           Z
 ---------------------------------------------------------------------
      1          6           0       -0.225237    0.338908    0.094803
      2          6           0       -0.019388   -0.707013   -1.028867
      3         17           0       -0.764432    1.897315   -0.543111
      4          1           0        0.565862   -0.158986   -1.775101
      5          1           0        0.724067    0.488690    0.616164
      6          7           0       -1.231190   -0.193333    1.072578
      7          8           0       -0.797378   -1.073531    1.819042
      8          8           0       -2.400563    0.177364    1.032845
      9          6           0       -1.341416   -1.160649   -1.631137
     10          1           0       -1.903104   -1.767605   -0.913872
     11          1           0       -1.130991   -1.784382   -2.501104
     12          1           0       -1.969426   -0.319319   -1.930173
     13          7           0        0.776886   -1.846711   -0.625370
     14          1           0        0.357305   -2.278822    0.190847
     15          1           0        1.689263   -1.488745   -0.337734
     16         17           0        3.114251    0.333940    0.313501
 ---------------------------------------------------------------------

 SCF Done:  E(RHF) =  -1295.86121004     A.U. after    2 cycles

 The electronic state is 1-A.
 Alpha  occ. eigenvalues -- -105.46571-105.28668 -20.49285 -20.48908 -15.68433
 Alpha  occ. eigenvalues --  -15.35799 -11.24036 -11.17207 -11.12763 -10.51448
 Alpha  occ. eigenvalues --  -10.33266  -7.68408  -7.68012  -7.67996  -7.50032
 Alpha  occ. eigenvalues --   -7.50005  -7.49988  -1.56198  -1.40044  -1.09989
 Alpha  occ. eigenvalues --   -1.03792  -0.92738  -0.89679  -0.78211  -0.74080
 Alpha  occ. eigenvalues --   -0.72529  -0.65913  -0.64707  -0.62927  -0.57452
 Alpha  occ. eigenvalues --   -0.54702  -0.50459  -0.48571  -0.43743  -0.42797
 Alpha  occ. eigenvalues --   -0.42016  -0.39213  -0.38331  -0.37227  -0.35441
 Alpha  occ. eigenvalues --   -0.34433  -0.31165  -0.21364  -0.21116  -0.20936
 Alpha virt. eigenvalues --    0.11963   0.13457   0.13560   0.15387   0.16004
 Alpha virt. eigenvalues --    0.16231   0.17106   0.18793   0.19287   0.21318
 Alpha virt. eigenvalues --    0.23170   0.24052   0.24266   0.25178   0.26136

 Mulliken charges:
               1
     1  C   -0.297050
     2  C   -1.748655
     3  Cl  -0.013433
     4  H    0.088528
     5  H    0.193745
     6  N    3.063102
     7  O   -1.520589
     8  O   -1.498927
     9  C   -0.037900
    10  H    0.188989
    11  H    0.150599
    12  H    0.189581
    13  N    0.785095
    14  H    0.259555
    15  H    0.171422
    16  Cl  -0.974062
 Sum of Mulliken charges =  -1.00000

 Dipole moment (field-independent basis, Debye):
    X=             -9.1657    Y=             -0.5154    Z=             -2.1739  Tot=              9.4340

 Test job not archived.
 1\1\GINC-SE129\SP\RHF\Aug-CC-pVDZ\C3H7Cl2N2O2(1-)\OHZDE\09-Apr-2025\0\
 \#t hf aug-cc-pvdz iop(5/13=1,5/36=2,99/5=2) pseudo=read geom=check gu
 ess=(read,tcheck) scf=(maxcycle=1)\\title\\-1,1\C,0,-0.142579,-0.27309
 5,-1.360126\C,0,0.040435,-0.230494,0.177291\Cl,0,0.362915,-1.823508,-2
 .043495\H,0,1.056065,-0.615735,0.318006\H,0,0.464326,0.517223,-1.81011
 8\N,0,-1.584712,-0.013582,-1.682884\O,0,-1.927794,1.164621,-1.563376\O
 ,0,-2.344508,-0.940762,-1.946466\C,0,-0.9619,-1.124425,0.89317\H,0,-1.
 971964,-0.709601,0.81539\H,0,-0.699237,-1.163,1.951322\H,0,-0.977589,-

 Normal termination of Gaussian 16 at Wed Apr  9 03:01:47 2025.
