 Gaussian 16, Revision C.01,

 ----------------------------------------------------------------------
 #t hf aug-cc-pvdz symm=none int=(grid=ultrafine) guess=(read,tcheck) s
 table=(opt,rrhf)
 ----------------------------------------------------------------------
 -----
 title
 -----
 Symbolic Z-matrix:
 Charge = -1 Multiplicity = 1

 SCF Done:  E(RHF) =  -935.180383243     A.U. after   16 cycles
 Normal termination of Gaussian 16 at Wed Apr  9 02:43:14 2025.
 Gaussian 16:  ES64L-G16RevC.01  3-Jul-2019

 ----------------------------------------------------------------------
 #t hf aug-cc-pvdz iop(5/13=1,5/36=2,99/5=2) pseudo=read geom=check gue
 ss=(read,tcheck) scf=(maxcycle=1)
 ----------------------------------------------------------------------
 -----
 title
 -----
 Structure from the checkpoint file:  "E2SN2_221_mol1.chk"
 Charge = -1 Multiplicity = 1

                         Standard orientation:
 ---------------------------------------------------------------------
 Center     Atomic      Atomic             Coordinates (Angstroms)
 Number     Number       Type             X           Y           Z
 ---------------------------------------------------------------------
      1          6           0        0.102119   -0.137918   -0.407230
      2          1           0       -0.844534   -1.498946    0.827816
      3         17           0       -0.101958    1.977652   -0.489183
      4          9           0        0.471439   -2.032369   -0.754832
      5          6           0       -1.143251   -0.572512    0.342594
      6          1           0        0.194628   -0.180811   -1.472663
      7          7           0        1.407692   -0.187207    0.284383
      8          8           0        1.413814   -0.474637    1.476360
      9          8           0        2.399413    0.068107   -0.390456
     10          6           0       -2.199568   -0.890966   -0.714736
     11          1           0       -2.462468    0.012279   -1.275204
     12          1           0       -1.800747   -1.647571   -1.390093
     13          1           0       -3.108422   -1.272928   -0.236861
     14          7           0       -1.587845    0.336400    1.398173
     15          1           0       -2.355018   -0.119336    1.879966
     16          1           0       -1.933660    1.194814    0.987757
 ---------------------------------------------------------------------

 SCF Done:  E(RHF) =  -935.728687307     A.U. after    2 cycles

 The electronic state is 1-A.
 Alpha  occ. eigenvalues -- -105.37190 -26.14029 -20.44159 -20.43857 -15.64573
 Alpha  occ. eigenvalues --  -15.35960 -11.25024 -11.14701 -11.10512 -10.42005
 Alpha  occ. eigenvalues --   -7.58858  -7.58644  -7.58626  -1.51578  -1.35378
 Alpha  occ. eigenvalues --   -1.21727  -1.07235  -0.98183  -0.88220  -0.83737
 Alpha  occ. eigenvalues --   -0.75476  -0.68783  -0.63427  -0.60481  -0.59022
 Alpha  occ. eigenvalues --   -0.57157  -0.51244  -0.47530  -0.46108  -0.42987
 Alpha  occ. eigenvalues --   -0.39752  -0.35657  -0.35226  -0.33622  -0.31861
 Alpha  occ. eigenvalues --   -0.30574  -0.30111  -0.29281  -0.28487  -0.28352
 Alpha  occ. eigenvalues --   -0.25556
 Alpha virt. eigenvalues --    0.11809   0.13260   0.13994   0.15590   0.16493
 Alpha virt. eigenvalues --    0.16847   0.17384   0.19377   0.21403   0.22120
 Alpha virt. eigenvalues --    0.23939   0.24677   0.25652   0.26510   0.27063

 Mulliken charges:
               1
     1  C   -0.058388
     2  H    0.364994
     3  Cl  -0.546392
     4  F   -0.917380
     5  C   -1.334394
     6  H    0.001687
     7  N    3.210155
     8  O   -1.490118
     9  O   -1.573258
    10  C   -0.191548
    11  H    0.244058
    12  H    0.282607
    13  H    0.066064
    14  N    0.524277
    15  H    0.195697
    16  H    0.221939
 Sum of Mulliken charges =  -1.00000

 Dipole moment (field-independent basis, Debye):
    X=             -5.2315    Y=              0.8458    Z=              0.4910  Tot=              5.3221

 Test job not archived.
 1\1\GINC-SE461\SP\RHF\Aug-CC-pVDZ\C3H7Cl1F1N2O2(1-)\OHZDE\09-Apr-2025\
 0\\#t hf aug-cc-pvdz iop(5/13=1,5/36=2,99/5=2) pseudo=read geom=check
 guess=(read,tcheck) scf=(maxcycle=1)\\title\\-1,1\C,0,0.34310764,-0.00
 140109,-0.10800767\H,0,1.54990175,1.64265449,-0.44655867\Cl,0,-1.71549
 064,-0.27980996,-0.56480242\F,0,2.16893976,-0.10110662,0.60091095\C,0,
 0.50647424,1.50567753,-0.17187943\H,0,0.22429229,-0.54391118,0.8069297
 7\N,0,0.9042493,-0.82891778,-1.19686827\O,0,1.38457557,-0.25117567,-2.
 16586887\O,0,0.84558327,-2.04528728,-1.05158461\C,0,0.30097097,2.02686

 Normal termination of Gaussian 16 at Wed Apr  9 02:43:29 2025.
