 Gaussian 16, Revision C.01,

 ----------------------------------------------------------------------
 #t hf aug-cc-pvdz symm=none int=(grid=ultrafine) guess=(read,tcheck) s
 table=(opt,rrhf)
 ----------------------------------------------------------------------
 -----
 title
 -----
 Symbolic Z-matrix:
 Charge = -1 Multiplicity = 1

 SCF Done:  E(RHF) =  -875.250922302     A.U. after   17 cycles
 Normal termination of Gaussian 16 at Wed Apr  9 02:56:04 2025.
 Gaussian 16:  ES64L-G16RevC.01  3-Jul-2019

 ----------------------------------------------------------------------
 #t hf aug-cc-pvdz iop(5/13=1,5/36=2,99/5=2) pseudo=read geom=check gue
 ss=(read,tcheck) scf=(maxcycle=1)
 ----------------------------------------------------------------------
 -----
 title
 -----
 Structure from the checkpoint file:  "E2SN2_351_mol1.chk"
 Charge = -1 Multiplicity = 1

                         Standard orientation:
 ---------------------------------------------------------------------
 Center     Atomic      Atomic             Coordinates (Angstroms)
 Number     Number       Type             X           Y           Z
 ---------------------------------------------------------------------
      1          6           0       -1.019222    0.274124    0.288541
      2          1           0        0.539245    1.105277    1.486568
      3         17           0       -0.609532   -1.402325   -0.928690
      4          1           0       -1.239748    2.034132    1.406855
      5          6           0        0.396705    0.864521    0.435287
      6          6           0       -1.620452   -0.398285    1.517572
      7          1           0       -1.874103   -1.438662    1.296797
      8          1           0       -0.910047   -0.386343    2.344791
      9          1           0       -2.515917    0.131327    1.834764
     10          6           0       -2.006917    0.872174   -0.712680
     11          1           0       -2.501618    1.737409   -0.281616
     12          1           0       -1.480716    1.157029   -1.623197
     13          1           0       -2.747994    0.111733   -0.970918
     14          7           0        0.607053    1.951798   -0.485776
     15          1           0        1.566806    2.268949   -0.413160
     16          1           0       -0.012782    2.672362   -0.120744
     17          7           0        1.544154   -0.144178    0.230959
     18          8           0        2.348219    0.006440   -0.685469
     19          8           0        1.649255   -0.991718    1.115344
 ---------------------------------------------------------------------

 SCF Done:  E(RHF) =  -875.754753006     A.U. after    2 cycles

 The electronic state is 1-A.
 Alpha  occ. eigenvalues -- -105.36019 -20.45261 -20.44650 -15.64008 -15.36556
 Alpha  occ. eigenvalues --  -11.21015 -11.20360 -11.10042 -11.09577 -10.40901
 Alpha  occ. eigenvalues --   -7.57755  -7.57542  -7.57519  -1.52034  -1.35902
 Alpha  occ. eigenvalues --   -1.09626  -0.96687  -0.90928  -0.82487  -0.81271
 Alpha  occ. eigenvalues --   -0.74791  -0.67415  -0.61821  -0.60803  -0.58683
 Alpha  occ. eigenvalues --   -0.54294  -0.53498  -0.49391  -0.47090  -0.43900
 Alpha  occ. eigenvalues --   -0.42377  -0.39831  -0.38208  -0.35258  -0.34567
 Alpha  occ. eigenvalues --   -0.33491  -0.31045  -0.29086  -0.27467  -0.26889
 Alpha  occ. eigenvalues --   -0.11877
 Alpha virt. eigenvalues --    0.13201   0.13565   0.13913   0.14973   0.15225
 Alpha virt. eigenvalues --    0.15435   0.16782   0.17455   0.18733   0.19469
 Alpha virt. eigenvalues --    0.20356   0.22360   0.23211   0.24083   0.24515

 Mulliken charges:
               1
     1  C   -1.258025
     2  H    0.043801
     3  Cl  -0.528769
     4  H   -0.513613
     5  C   -1.481759
     6  C   -0.235562
     7  H    0.249585
     8  H    0.203965
     9  H    0.178123
    10  C    0.230954
    11  H    0.181356
    12  H    0.349283
    13  H    0.221204
    14  N    0.764217
    15  H    0.188925
    16  H    0.333087
    17  N    3.130740
    18  O   -1.506183
    19  O   -1.551328
 Sum of Mulliken charges =  -1.00000

 Dipole moment (field-independent basis, Debye):
    X=              0.4944    Y=             -0.4256    Z=             -0.5664  Tot=              0.8639

 Test job not archived.
 1\1\GINC-SE115\SP\RHF\Aug-CC-pVDZ\C4H10Cl1N2O2(1-)\OHZDE\09-Apr-2025\0
 \\#t hf aug-cc-pvdz iop(5/13=1,5/36=2,99/5=2) pseudo=read geom=check g
 uess=(read,tcheck) scf=(maxcycle=1)\\title\\-1,1\C,0,0.40103835,-0.090
 40039,-0.04124859\H,0,1.51220709,1.56441469,-0.80400457\Cl,0,-1.689306
 98,-0.15914303,-0.33401345\H,0,2.44646058,0.19082683,0.32487577\C,0,0.
 64878343,1.42624843,-0.15679304\C,0,0.88548467,-0.96155016,-1.19473813
 \H,0,0.05105641,-1.5212582,-1.62592411\H,0,1.32706585,-0.3454932,-1.97
 869563\H,0,1.64448753,-1.65809742,-0.84589317\C,0,0.32106734,-0.758986

 Normal termination of Gaussian 16 at Wed Apr  9 02:56:15 2025.
