 Gaussian 16, Revision C.01,

 ----------------------------------------------------------------------
 #t hf aug-cc-pvdz symm=none int=(grid=ultrafine) guess=(read,tcheck) s
 table=(opt,rrhf)
 ----------------------------------------------------------------------
 -----
 title
 -----
 Symbolic Z-matrix:
 Charge = -1 Multiplicity = 1

 SCF Done:  E(RHF) =  -611.812158156     A.U. after   16 cycles
 Normal termination of Gaussian 16 at Wed Apr  9 02:40:49 2025.
 Gaussian 16:  ES64L-G16RevC.01  3-Jul-2019

 ----------------------------------------------------------------------
 #t hf aug-cc-pvdz iop(5/13=1,5/36=2,99/5=2) pseudo=read geom=check gue
 ss=(read,tcheck) scf=(maxcycle=1)
 ----------------------------------------------------------------------
 -----
 title
 -----
 Structure from the checkpoint file:  "E2SN2_186_mol1.chk"
 Charge = -1 Multiplicity = 1

                         Standard orientation:
 ---------------------------------------------------------------------
 Center     Atomic      Atomic             Coordinates (Angstroms)
 Number     Number       Type             X           Y           Z
 ---------------------------------------------------------------------
      1          6           0       -1.106424    0.230591    0.375948
      2          1           0       -0.116879    0.427767   -1.501251
      3          9           0       -0.168357   -0.658803    1.661219
      4          9           0       -1.874165    1.364911   -0.737749
      5          6           0        0.162938    0.327460   -0.452192
      6          1           0       -1.265986    0.953906    1.152221
      7          6           0       -2.101997   -0.866354    0.115769
      8          1           0       -3.079019   -0.523546    0.461100
      9          1           0       -2.181838   -1.052549   -0.954835
     10          1           0       -1.814524   -1.775861    0.635153
     11          7           0        1.017219   -0.917446   -0.401136
     12          8           0        2.167252   -0.844761    0.010873
     13          8           0        0.497077   -1.919397   -0.880594
     14          6           0        0.953951    1.484724   -0.049848
     15          7           0        1.564995    2.441739    0.246290
 ---------------------------------------------------------------------

 SCF Done:  E(RHF) =  -612.396534442     A.U. after    2 cycles

 The electronic state is 1-A.
 Alpha  occ. eigenvalues --  -26.19005 -26.16504 -20.46897 -20.46367 -15.66781
 Alpha  occ. eigenvalues --  -15.40492 -11.22438 -11.22291 -11.17732 -11.10059
 Alpha  occ. eigenvalues --   -1.54178  -1.38088  -1.27708  -1.24889  -1.10904
 Alpha  occ. eigenvalues --   -1.02630  -0.89375  -0.81138  -0.71687  -0.67627
 Alpha  occ. eigenvalues --   -0.64147  -0.61854  -0.59023  -0.50622  -0.49818
 Alpha  occ. eigenvalues --   -0.47149  -0.45982  -0.41837  -0.39761  -0.39046
 Alpha  occ. eigenvalues --   -0.37787  -0.37364  -0.35583  -0.34182  -0.33991
 Alpha  occ. eigenvalues --   -0.33152  -0.32488  -0.31523  -0.28170
 Alpha virt. eigenvalues --    0.13381   0.13720   0.14896   0.15912   0.16874
 Alpha virt. eigenvalues --    0.18466   0.19060   0.21667   0.22594   0.23469
 Alpha virt. eigenvalues --    0.23622   0.24298   0.25028   0.25944   0.26764

 Mulliken charges:
               1
     1  C    1.336838
     2  H    0.268745
     3  F   -0.936190
     4  F   -0.900670
     5  C   -0.410415
     6  H   -0.179086
     7  C   -0.525812
     8  H    0.187701
     9  H    0.259795
    10  H    0.309695
    11  N    3.131987
    12  O   -1.443486
    13  O   -1.596543
    14  C   -1.483677
    15  N    0.981116
 Sum of Mulliken charges =  -1.00000

 Dipole moment (field-independent basis, Debye):
    X=             -1.1684    Y=             -2.2755    Z=             -2.6317  Tot=              3.6700

 Test job not archived.
 1\1\GINC-SE094\SP\RHF\Aug-CC-pVDZ\C4H5F2N2O2(1-)\OHZDE\09-Apr-2025\0\\
 #t hf aug-cc-pvdz iop(5/13=1,5/36=2,99/5=2) pseudo=read geom=check gue
 ss=(read,tcheck) scf=(maxcycle=1)\\title\\-1,1\C,0,0.57930548,-0.05095
 404,0.05877823\H,0,1.63031794,1.73185136,0.56763079\F,0,-1.23722579,0.
 05891435,0.16392804\F,0,2.29365129,-0.06950812,-0.36205765\C,0,0.65468
 568,1.4623559,0.16217272\H,0,0.38457784,-0.48798422,-0.9016016\C,0,0.7
 5953326,-0.90646959,1.28260793\H,0,1.1094515,-1.88833572,0.95882098\H,
 0,1.52999596,-0.4817835,1.92546563\H,0,-0.17575618,-0.99839071,1.82702

 Normal termination of Gaussian 16 at Wed Apr  9 02:40:57 2025.
