 Gaussian 16, Revision C.01,

 ----------------------------------------------------------------------
 #t hf aug-cc-pvdz symm=none int=(grid=ultrafine) guess=(read,tcheck) s
 table=(opt,rrhf)
 ----------------------------------------------------------------------
 -----
 title
 -----
 Symbolic Z-matrix:
 Charge = -1 Multiplicity = 1

 SCF Done:  E(RHF) =  -836.239304196     A.U. after   17 cycles
 Normal termination of Gaussian 16 at Wed Apr  9 02:40:31 2025.
 Gaussian 16:  ES64L-G16RevC.01  3-Jul-2019

 ----------------------------------------------------------------------
 #t hf aug-cc-pvdz iop(5/13=1,5/36=2,99/5=2) pseudo=read geom=check gue
 ss=(read,tcheck) scf=(maxcycle=1)
 ----------------------------------------------------------------------
 -----
 title
 -----
 Structure from the checkpoint file:  "E2SN2_188_mol1.chk"
 Charge = -1 Multiplicity = 1

                         Standard orientation:
 ---------------------------------------------------------------------
 Center     Atomic      Atomic             Coordinates (Angstroms)
 Number     Number       Type             X           Y           Z
 ---------------------------------------------------------------------
      1          6           0       -1.011365    0.270037    0.717102
      2          1           0        0.815714    0.754449    1.678969
      3         17           0       -1.368767   -1.020297   -0.857775
      4          1           0       -1.049340    1.201271    2.688300
      5          6           0        0.472810    0.021176    0.953909
      6          1           0       -1.611438   -0.231858    1.452413
      7          6           0       -1.498198    1.589675    0.153967
      8          1           0       -1.012281    2.427395    0.640699
      9          1           0       -1.313931    1.638772   -0.919982
     10          1           0       -2.571973    1.660990    0.335138
     11          7           0        1.289052    0.378225   -0.311709
     12          8           0        1.998858   -0.490555   -0.818228
     13          8           0        1.255000    1.549583   -0.686707
     14          7           0        0.725021   -1.301574    1.394549
     15          1           0        1.717285   -1.447324    1.518567
     16          1           0        0.386139   -1.952761    0.697802
 ---------------------------------------------------------------------

 SCF Done:  E(RHF) =  -836.700845160     A.U. after    2 cycles

 The electronic state is 1-A.
 Alpha  occ. eigenvalues -- -105.38684 -20.46841 -20.46519 -15.65282 -15.38479
 Alpha  occ. eigenvalues --  -11.21228 -11.20097 -11.10206 -10.43494  -7.60356
 Alpha  occ. eigenvalues --   -7.60135  -7.60115  -1.53473  -1.37417  -1.11624
 Alpha  occ. eigenvalues --   -0.96653  -0.90795  -0.83738  -0.77409  -0.70388
 Alpha  occ. eigenvalues --   -0.65088  -0.62726  -0.61206  -0.58376  -0.53522
 Alpha  occ. eigenvalues --   -0.48818  -0.44961  -0.43193  -0.41531  -0.38579
 Alpha  occ. eigenvalues --   -0.36608  -0.33643  -0.33197  -0.32303  -0.30007
 Alpha  occ. eigenvalues --   -0.29751  -0.09766
 Alpha virt. eigenvalues --    0.13045   0.14016   0.14897   0.15597   0.16115
 Alpha virt. eigenvalues --    0.16373   0.17744   0.18610   0.20652   0.21695
 Alpha virt. eigenvalues --    0.22796   0.23622   0.24295   0.25997   0.26442

 Mulliken charges:
               1
     1  C   -0.305534
     2  H    0.091118
     3  Cl  -0.524208
     4  H   -0.663687
     5  C   -1.441995
     6  H    0.047964
     7  C   -0.113373
     8  H    0.191422
     9  H    0.271965
    10  H    0.168689
    11  N    2.890856
    12  O   -1.425236
    13  O   -1.506233
    14  N    0.803380
    15  H    0.239724
    16  H    0.275146
 Sum of Mulliken charges =  -1.00000

 Dipole moment (field-independent basis, Debye):
    X=              3.2433    Y=             -2.5399    Z=             -5.0673  Tot=              6.5305

 Test job not archived.
 1\1\GINC-SE366\SP\RHF\Aug-CC-pVDZ\C3H8Cl1N2O2(1-)\OHZDE\09-Apr-2025\0\
 \#t hf aug-cc-pvdz iop(5/13=1,5/36=2,99/5=2) pseudo=read geom=check gu
 ess=(read,tcheck) scf=(maxcycle=1)\\title\\-1,1\C,0,0.35915658,-0.0360
 1852,0.07273541\H,0,1.74218895,1.56397554,0.23179776\Cl,0,-1.7053914,0
 .01205809,-0.01817614\H,0,2.45282528,-0.37167279,-0.43534954\C,0,0.677
 02321,1.45363739,0.0467805\H,0,0.53419799,-0.48719519,-0.88563259\C,0,
 0.5958791,-0.85978251,1.32211418\H,0,1.56065922,-0.63641869,1.76268905
 \H,0,-0.18881226,-0.67487789,2.0568251\H,0,0.58055319,-1.91433486,1.04

 Normal termination of Gaussian 16 at Wed Apr  9 02:40:37 2025.
