 Gaussian 16, Revision C.01,

 ----------------------------------------------------------------------
 #t hf aug-cc-pvdz symm=none int=(grid=ultrafine) guess=(read,tcheck) s
 table=(opt,rrhf)
 ----------------------------------------------------------------------
 -----
 title
 -----
 Symbolic Z-matrix:
 Charge = -1 Multiplicity = 1

 SCF Done:  E(RHF) =  -1236.27038266     A.U. after   16 cycles
 Normal termination of Gaussian 16 at Wed Apr  9 03:02:13 2025.
 Gaussian 16:  ES64L-G16RevC.01  3-Jul-2019

 ----------------------------------------------------------------------
 #t hf aug-cc-pvdz iop(5/13=1,5/36=2,99/5=2) pseudo=read geom=check gue
 ss=(read,tcheck) scf=(maxcycle=1)
 ----------------------------------------------------------------------
 -----
 title
 -----
 Structure from the checkpoint file:  "E2SN2_80_mol2.chk"
 Charge = -1 Multiplicity = 1

                         Standard orientation:
 ---------------------------------------------------------------------
 Center     Atomic      Atomic             Coordinates (Angstroms)
 Number     Number       Type             X           Y           Z
 ---------------------------------------------------------------------
      1          6           0       -0.397462   -0.553349   -0.204102
      2          6           0       -0.076715    0.889819   -0.607800
      3         17           0       -0.583295   -0.552016    1.660654
      4          1           0        0.891926    1.142517   -0.165892
      5          1           0        0.056185    0.902730   -1.693439
      6          6           0       -1.721748   -0.977523   -0.683978
      7          7           0       -2.764019   -1.324789   -1.100472
      8          7           0        0.603060   -1.397086   -0.693488
      9          1           0        0.521117   -2.341363   -0.341575
     10          1           0        1.544585   -1.007538   -0.523927
     11          6           0       -1.111164    1.842726   -0.227864
     12          7           0       -1.940387    2.628487    0.041671
     13         17           0        3.262010    0.243036   -0.170458
 ---------------------------------------------------------------------

 SCF Done:  E(RHF) =  -1236.73687734     A.U. after    2 cycles

 The electronic state is 1-A.
 Alpha  occ. eigenvalues -- -105.46048-105.30268 -15.43993 -15.42375 -15.40609
 Alpha  occ. eigenvalues --  -11.29881 -11.20734 -11.19614 -11.19485 -10.50905
 Alpha  occ. eigenvalues --  -10.34898  -7.67821  -7.67465  -7.67458  -7.51675
 Alpha  occ. eigenvalues --   -7.51635  -7.51613  -1.16897  -1.13007  -1.12498
 Alpha  occ. eigenvalues --   -0.99582  -0.93457  -0.83135  -0.75899  -0.69168
 Alpha  occ. eigenvalues --   -0.60960  -0.59277  -0.56953  -0.54326  -0.51398
 Alpha  occ. eigenvalues --   -0.50467  -0.49671  -0.42477  -0.41593  -0.39670
 Alpha  occ. eigenvalues --   -0.39143  -0.37047  -0.35801  -0.34357  -0.23319
 Alpha  occ. eigenvalues --   -0.22778  -0.22555
 Alpha virt. eigenvalues --    0.12781   0.13918   0.15679   0.16780   0.17288
 Alpha virt. eigenvalues --    0.18538   0.18737   0.20511   0.21287   0.22021
 Alpha virt. eigenvalues --    0.22906   0.22982   0.24462   0.24674   0.25047

 Mulliken charges:
               1
     1  C   -1.904955
     2  C    1.074897
     3  Cl   0.021897
     4  H    0.257173
     5  H    0.312996
     6  C   -1.228626
     7  N    0.905106
     8  N    0.963958
     9  H    0.214838
    10  H    0.073105
    11  C   -1.654361
    12  N    0.907996
    13  Cl  -0.944025
 Sum of Mulliken charges =  -1.00000

 Dipole moment (field-independent basis, Debye):
    X=             -4.1665    Y=             -2.6595    Z=              0.2618  Tot=              4.9499

 Test job not archived.
 1\1\GINC-SE332\SP\RHF\Aug-CC-pVDZ\C4H4Cl2N3(1-)\OHZDE\09-Apr-2025\0\\#
 t hf aug-cc-pvdz iop(5/13=1,5/36=2,99/5=2) pseudo=read geom=check gues
 s=(read,tcheck) scf=(maxcycle=1)\\title\\-1,1\C,0,-0.263331,0.028901,-
 1.457389\C,0,0.022358,-0.109754,0.041857\Cl,0,-0.021387,-1.673896,-2.2
 01564\H,0,1.076345,-0.384415,0.147098\H,0,-0.09384,0.881763,0.488885\C
 ,0,-1.67968,0.32486,-1.722535\N,0,-2.803811,0.597654,-1.928208\N,0,0.5
 61094,1.024069,-1.988803\H,0,0.518521,1.065526,-2.998102\H,0,1.533143,
 0.931674,-1.651828\C,0,-0.854957,-1.058288,0.714962\N,0,-1.565171,-1.7

 Normal termination of Gaussian 16 at Wed Apr  9 03:02:18 2025.
