 Gaussian 16, Revision C.01,

 ----------------------------------------------------------------------
 #t hf aug-cc-pvdz symm=none int=(grid=ultrafine) guess=(read,tcheck) s
 table=(opt,rrhf)
 ----------------------------------------------------------------------
 -----
 title
 -----
 Symbolic Z-matrix:
 Charge = -1 Multiplicity = 1

 SCF Done:  E(RHF) =  -935.177042255     A.U. after   16 cycles
 Normal termination of Gaussian 16 at Wed Apr  9 02:36:30 2025.
 Gaussian 16:  ES64L-G16RevC.01  3-Jul-2019

 ----------------------------------------------------------------------
 #t hf aug-cc-pvdz iop(5/13=1,5/36=2,99/5=2) pseudo=read geom=check gue
 ss=(read,tcheck) scf=(maxcycle=1)
 ----------------------------------------------------------------------
 -----
 title
 -----
 Structure from the checkpoint file:  "E2SN2_128_mol1.chk"
 Charge = -1 Multiplicity = 1

                         Standard orientation:
 ---------------------------------------------------------------------
 Center     Atomic      Atomic             Coordinates (Angstroms)
 Number     Number       Type             X           Y           Z
 ---------------------------------------------------------------------
      1          6           0       -0.101649    0.005206   -0.410412
      2          6           0        0.636270    1.168860    0.022670
      3         17           0       -1.985088    0.320782   -0.833379
      4          9           0        2.932531    0.195662   -0.499899
      5          1           0        1.978807    0.637057   -0.097092
      6          1           0        0.710644    1.843092   -0.838702
      7          7           0        0.380666   -0.686056   -1.569100
      8          1           0        1.397836   -0.643074   -1.509344
      9          1           0        0.076186   -0.165475   -2.380967
     10          7           0       -0.192455   -1.004943    0.745677
     11          8           0       -0.923497   -0.741202    1.696649
     12          8           0        0.555457   -1.975790    0.682896
     13          6           0        0.212655    1.894189    1.283261
     14          1           0        0.406896    1.306174    2.183546
     15          1           0        0.782961    2.824545    1.374821
     16          1           0       -0.856423    2.146826    1.288752
 ---------------------------------------------------------------------

 SCF Done:  E(RHF) =  -935.727677060     A.U. after    2 cycles

 The electronic state is 1-A.
 Alpha  occ. eigenvalues -- -105.40652 -26.19466 -20.45389 -20.45007 -15.64363
 Alpha  occ. eigenvalues --  -15.36817 -11.25953 -11.08788 -11.05378 -10.45471
 Alpha  occ. eigenvalues --   -7.62365  -7.62062  -7.62054  -1.52347  -1.36247
 Alpha  occ. eigenvalues --   -1.28542  -1.10761  -0.95226  -0.87530  -0.86555
 Alpha  occ. eigenvalues --   -0.74832  -0.68769  -0.61712  -0.60950  -0.58562
 Alpha  occ. eigenvalues --   -0.56492  -0.50840  -0.47396  -0.43581  -0.41787
 Alpha  occ. eigenvalues --   -0.40743  -0.38322  -0.36419  -0.36154  -0.35783
 Alpha  occ. eigenvalues --   -0.34262  -0.32188  -0.31978  -0.31044  -0.29902
 Alpha  occ. eigenvalues --   -0.18152
 Alpha virt. eigenvalues --    0.13169   0.13812   0.14562   0.15168   0.17285
 Alpha virt. eigenvalues --    0.17911   0.17981   0.19578   0.20659   0.23375
 Alpha virt. eigenvalues --    0.23974   0.24648   0.25620   0.26228   0.27194

 Mulliken charges:
               1
     1  C   -2.118698
     2  C   -0.204060
     3  Cl  -0.216257
     4  F   -1.083345
     5  H    1.103610
     6  H   -0.038781
     7  N    0.855775
     8  H    0.243016
     9  H    0.306458
    10  N    2.980267
    11  O   -1.530619
    12  O   -1.431261
    13  C   -0.329175
    14  H    0.207082
    15  H    0.070223
    16  H    0.185767
 Sum of Mulliken charges =  -1.00000

 Dipole moment (field-independent basis, Debye):
    X=             -2.7679    Y=              1.7453    Z=             -0.8694  Tot=              3.3858

 Test job not archived.
 1\1\GINC-SE042\SP\RHF\Aug-CC-pVDZ\C3H7Cl1F1N2O2(1-)\OHZDE\09-Apr-2025\
 0\\#t hf aug-cc-pvdz iop(5/13=1,5/36=2,99/5=2) pseudo=read geom=check
 guess=(read,tcheck) scf=(maxcycle=1)\\title\\-1,1\C,0,-0.19977966,-0.0
 4856046,-0.26121289\C,0,-0.20928167,0.08173431,1.17722684\Cl,0,1.57215
 906,-0.21427813,-1.07275606\F,0,-2.63664642,-0.64005853,1.4599318\H,0,
 -1.61762242,-0.16463152,1.41269084\H,0,0.13722726,-0.87295636,1.590238
 89\N,0,-0.92103591,-1.14986057,-0.82685917\H,0,-1.75378387,-1.25739073
 ,-0.24804926\H,0,-0.34261201,-1.97355994,-0.72792568\N,0,-0.72947674,1

 Normal termination of Gaussian 16 at Wed Apr  9 02:36:38 2025.
