 Gaussian 16, Revision C.01,

 ----------------------------------------------------------------------
 #t hf aug-cc-pvdz symm=none int=(grid=ultrafine) guess=(read,tcheck) s
 table=(opt,rrhf)
 ----------------------------------------------------------------------
 -----
 title
 -----
 Symbolic Z-matrix:
 Charge = -1 Multiplicity = 1

 SCF Done:  E(RHF) =  -555.143979751     A.U. after   15 cycles
 Normal termination of Gaussian 16 at Wed Apr  9 02:58:48 2025.
 Gaussian 16:  ES64L-G16RevC.01  3-Jul-2019

 ----------------------------------------------------------------------
 #t hf aug-cc-pvdz iop(5/13=1,5/36=2,99/5=2) pseudo=read geom=check gue
 ss=(read,tcheck) scf=(maxcycle=1)
 ----------------------------------------------------------------------
 -----
 title
 -----
 Structure from the checkpoint file:  "E2SN2_392_mol2.chk"
 Charge = -1 Multiplicity = 1

                         Standard orientation:
 ---------------------------------------------------------------------
 Center     Atomic      Atomic             Coordinates (Angstroms)
 Number     Number       Type             X           Y           Z
 ---------------------------------------------------------------------
      1          6           0        0.355873   -0.197441   -0.552963
      2          6           0       -0.633578    0.014791    0.596863
      3          9           0       -0.015301   -1.339805   -1.289386
      4          1           0       -0.313286    1.006942    0.991765
      5          7           0        0.357622    0.945945   -1.380484
      6          1           0        0.540539    1.735326   -0.686457
      7          1           0        1.125575    0.883689   -2.040473
      8          6           0        1.698671   -0.550117   -0.002153
      9          7           0        2.775959   -0.838132    0.368039
     10          6           0       -0.575838   -1.086449    1.655477
     11          1           0        0.388877   -1.063184    2.165646
     12          1           0       -1.359119   -0.931315    2.400592
     13          1           0       -0.716401   -2.072791    1.205597
     14          6           0       -1.980975    0.107862    0.041150
     15          7           0       -3.097610    0.140458   -0.322874
     16          9           0        0.781646    2.336645    0.720532
 ---------------------------------------------------------------------

 SCF Done:  E(RHF) =  -555.679298342     A.U. after    2 cycles

 The electronic state is 1-A.
 Alpha  occ. eigenvalues --  -26.34519 -26.12441 -15.40843 -15.39061 -15.35691
 Alpha  occ. eigenvalues --  -11.27794 -11.17420 -11.16588 -11.15325 -11.13511
 Alpha  occ. eigenvalues --   -1.47013  -1.19567  -1.11587  -1.09911  -1.07989
 Alpha  occ. eigenvalues --   -0.97325  -0.83112  -0.79001  -0.64934  -0.62875
 Alpha  occ. eigenvalues --   -0.59219  -0.55651  -0.52812  -0.50495  -0.49182
 Alpha  occ. eigenvalues --   -0.47991  -0.47326  -0.45340  -0.43161  -0.42033
 Alpha  occ. eigenvalues --   -0.39544  -0.38923  -0.36685  -0.35571  -0.33912
 Alpha  occ. eigenvalues --   -0.28917  -0.28154  -0.27556
 Alpha virt. eigenvalues --    0.12504   0.13827   0.14032   0.14988   0.17222
 Alpha virt. eigenvalues --    0.18345   0.18582   0.19059   0.20749   0.22326
 Alpha virt. eigenvalues --    0.23169   0.23542   0.24876   0.25273   0.25480

 Mulliken charges:
               1
     1  C    0.508770
     2  C   -0.063082
     3  F   -0.997900
     4  H    0.275005
     5  N    0.445011
     6  H    0.439927
     7  H    0.262057
     8  C   -1.806669
     9  N    0.969149
    10  C    0.041292
    11  H    0.225906
    12  H    0.144109
    13  H    0.269235
    14  C   -1.726961
    15  N    1.019767
    16  F   -1.005617
 Sum of Mulliken charges =  -1.00000

 Dipole moment (field-independent basis, Debye):
    X=             -0.2827    Y=             -5.1169    Z=             -0.1018  Tot=              5.1257

 Test job not archived.
 1\1\GINC-SE131\SP\RHF\Aug-CC-pVDZ\C5H6F2N3(1-)\OHZDE\09-Apr-2025\0\\#t
  hf aug-cc-pvdz iop(5/13=1,5/36=2,99/5=2) pseudo=read geom=check guess
 =(read,tcheck) scf=(maxcycle=1)\\title\\-1,1\C,0,0.010669,-0.023017,0.
 008982\C,0,-0.513871,-0.012497,-1.430081\F,0,1.418365,0.034906,-0.0020
 23\H,0,-1.61285,0.085732,-1.270415\N,0,-0.524748,1.081355,0.705989\H,0
 ,-1.573497,0.973736,0.542288\H,0,-0.319862,0.987687,1.695161\C,0,-0.28
 6093,-1.342577,0.642678\N,0,-0.48387,-2.36075,1.194722\C,0,-0.143683,-
 1.269071,-2.217933\H,0,-0.644676,-2.139062,-1.789436\H,0,-0.465118,-1.

 Normal termination of Gaussian 16 at Wed Apr  9 02:58:56 2025.
