 Gaussian 16, Revision C.01,

 ----------------------------------------------------------------------
 #t hf aug-cc-pvdz symm=none int=(grid=ultrafine) guess=(read,tcheck) s
 table=(opt,rrhf)
 ----------------------------------------------------------------------
 -----
 title
 -----
 Symbolic Z-matrix:
 Charge = -1 Multiplicity = 1

 SCF Done:  E(RHF) =  -876.152913086     A.U. after   16 cycles
 Normal termination of Gaussian 16 at Wed Apr  9 02:48:07 2025.
 Gaussian 16:  ES64L-G16RevC.01  3-Jul-2019

 ----------------------------------------------------------------------
 #t hf aug-cc-pvdz iop(5/13=1,5/36=2,99/5=2) pseudo=read geom=check gue
 ss=(read,tcheck) scf=(maxcycle=1)
 ----------------------------------------------------------------------
 -----
 title
 -----
 Structure from the checkpoint file:  "E2SN2_261_mol2.chk"
 Charge = -1 Multiplicity = 1

                         Standard orientation:
 ---------------------------------------------------------------------
 Center     Atomic      Atomic             Coordinates (Angstroms)
 Number     Number       Type             X           Y           Z
 ---------------------------------------------------------------------
      1          6           0       -0.547787    0.114202    0.207171
      2          6           0        0.512841   -0.326803   -0.831713
      3         17           0       -0.702791    1.903917    0.303604
      4          1           0        0.206807    0.014385   -1.829412
      5          1           0       -0.158475   -0.335604    1.169391
      6          6           0       -1.834110   -0.449953   -0.165000
      7          7           0       -2.860618   -0.924518   -0.487618
      8          7           0        0.712282   -1.763416   -0.817686
      9          1           0       -0.139623   -2.204844   -1.148159
     10          1           0        0.827202   -1.970352    0.200698
     11          6           0        1.792289    0.337123   -0.531825
     12          7           0        2.816806    0.883446   -0.362595
     13          9           0        0.776982   -1.476241    1.783300
 ---------------------------------------------------------------------

 SCF Done:  E(RHF) =  -876.630579661     A.U. after    2 cycles

 The electronic state is 1-A.
 Alpha  occ. eigenvalues -- -105.46113 -26.12732 -15.41644 -15.39363 -15.36184
 Alpha  occ. eigenvalues --  -11.20986 -11.20686 -11.18924 -11.16544 -10.50929
 Alpha  occ. eigenvalues --   -7.67876  -7.67502  -7.67485  -1.19863  -1.12649
 Alpha  occ. eigenvalues --   -1.10708  -1.07726  -1.00730  -0.87419  -0.81505
 Alpha  occ. eigenvalues --   -0.64096  -0.59452  -0.55480  -0.53702  -0.51239
 Alpha  occ. eigenvalues --   -0.49528  -0.47351  -0.45752  -0.39890  -0.39368
 Alpha  occ. eigenvalues --   -0.37639  -0.37111  -0.36592  -0.35143  -0.32575
 Alpha  occ. eigenvalues --   -0.29234  -0.28608  -0.26710
 Alpha virt. eigenvalues --    0.13058   0.14679   0.15810   0.17151   0.18135
 Alpha virt. eigenvalues --    0.18422   0.19258   0.21488   0.22384   0.23206
 Alpha virt. eigenvalues --    0.23568   0.24211   0.25067   0.25397   0.26068

 Mulliken charges:
               1
     1  C    0.459031
     2  C   -0.822699
     3  Cl  -0.083021
     4  H    0.062928
     5  H    0.476021
     6  C   -1.451756
     7  N    0.874522
     8  N    0.531322
     9  H    0.246575
    10  H    0.285390
    11  C   -1.543928
    12  N    0.948805
    13  F   -0.983190
 Sum of Mulliken charges =  -1.00000

 Dipole moment (field-independent basis, Debye):
    X=             -3.2277    Y=              3.1400    Z=             -4.0102  Tot=              6.0299

 Test job not archived.
 1\1\GINC-SE208\SP\RHF\Aug-CC-pVDZ\C4H4Cl1F1N3(1-)\OHZDE\09-Apr-2025\0\
 \#t hf aug-cc-pvdz iop(5/13=1,5/36=2,99/5=2) pseudo=read geom=check gu
 ess=(read,tcheck) scf=(maxcycle=1)\\title\\-1,1\C,0,-0.129099,0.12082,
 0.006222\C,0,-0.401913,0.221628,-1.514997\Cl,0,1.28736,-0.924914,0.375
 668\H,0,0.463724,0.682414,-2.008777\H,0,-1.096067,-0.308758,0.406461\C
 ,0,0.12101,1.453394,0.528811\N,0,0.31377,2.544005,0.924316\N,0,-1.6125
 4,0.97012,-1.794236\H,0,-1.459852,1.934417,-1.51741\H,0,-2.306639,0.53
 7285,-1.143072\C,0,-0.536684,-1.133183,-2.075392\N,0,-0.599256,-2.1931

 Normal termination of Gaussian 16 at Wed Apr  9 02:48:13 2025.
