 Gaussian 16, Revision C.01,

 ----------------------------------------------------------------------
 #t hf aug-cc-pvdz symm=none int=(grid=ultrafine) guess=(read,tcheck) s
 table=(opt,rrhf)
 ----------------------------------------------------------------------
 -----
 title
 -----
 Symbolic Z-matrix:
 Charge = -1 Multiplicity = 1

 SCF Done:  E(RHF) =  -1042.91876477     A.U. after   17 cycles
 Normal termination of Gaussian 16 at Wed Apr  9 03:00:52 2025.
 Gaussian 16:  ES64L-G16RevC.01  3-Jul-2019

 ----------------------------------------------------------------------
 #t hf aug-cc-pvdz iop(5/13=1,5/36=2,99/5=2) pseudo=read geom=check gue
 ss=(read,tcheck) scf=(maxcycle=1)
 ----------------------------------------------------------------------
 -----
 title
 -----
 Structure from the checkpoint file:  "E2SN2_415_mol1.chk"
 Charge = -1 Multiplicity = 1

                         Standard orientation:
 ---------------------------------------------------------------------
 Center     Atomic      Atomic             Coordinates (Angstroms)
 Number     Number       Type             X           Y           Z
 ---------------------------------------------------------------------
      1          6           0        0.996285    0.077624    0.024875
      2          1           0       -0.191765    1.061543    1.451487
      3         17           0        0.256222   -1.650119   -1.262719
      4          9           0        1.666506    1.536076    1.094462
      5          6           0       -0.382162    0.322093    0.674478
      6          7           0        1.334733    0.839101   -1.129130
      7          1           0        1.773043    0.250740   -1.820535
      8          1           0        1.932852    1.584970   -0.800908
      9          7           0        1.835488   -0.787137    0.796161
     10          1           0        2.552789   -0.189492    1.184053
     11          1           0        2.205014   -1.529343    0.222019
     12          6           0       -0.998599   -0.854372    1.272920
     13          7           0       -1.535664   -1.701465    1.883201
     14          7           0       -1.347956    0.999284   -0.259085
     15          8           0       -1.173437    2.204469   -0.410744
     16          8           0       -2.242265    0.336578   -0.775721
 ---------------------------------------------------------------------

 SCF Done:  E(RHF) =  -1043.56272044     A.U. after    2 cycles

 The electronic state is 1-A.
 Alpha  occ. eigenvalues -- -105.34452 -26.18547 -20.47533 -20.47186 -15.67295
 Alpha  occ. eigenvalues --  -15.40455 -15.38375 -15.37953 -11.31521 -11.22983
 Alpha  occ. eigenvalues --  -11.17924 -10.39360  -7.56180  -7.56025  -7.56005
 Alpha  occ. eigenvalues --   -1.54595  -1.38511  -1.27584  -1.13202  -1.10652
 Alpha  occ. eigenvalues --   -1.05103  -1.02606  -0.83900  -0.81120  -0.74362
 Alpha  occ. eigenvalues --   -0.68749  -0.64324  -0.62648  -0.61091  -0.59502
 Alpha  occ. eigenvalues --   -0.58051  -0.57988  -0.52585  -0.49328  -0.40658
 Alpha  occ. eigenvalues --   -0.39642  -0.38835  -0.37350  -0.36389  -0.35221
 Alpha  occ. eigenvalues --   -0.34792  -0.34000  -0.33656  -0.32410  -0.27729
 Alpha  occ. eigenvalues --   -0.27022  -0.26700
 Alpha virt. eigenvalues --    0.12902   0.13790   0.14474   0.15306   0.16780
 Alpha virt. eigenvalues --    0.17778   0.18729   0.21031   0.21898   0.22425
 Alpha virt. eigenvalues --    0.23125   0.23909   0.24508   0.25087   0.25675

 Mulliken charges:
               1
     1  C   -2.934613
     2  H    0.477106
     3  Cl  -0.574533
     4  F   -0.951433
     5  C    0.547086
     6  N    0.774599
     7  H    0.284453
     8  H    0.389886
     9  N    0.797570
    10  H    0.321897
    11  H    0.311889
    12  C   -1.478813
    13  N    0.969630
    14  N    2.928948
    15  O   -1.464684
    16  O   -1.398989
 Sum of Mulliken charges =  -1.00000

 Dipole moment (field-independent basis, Debye):
    X=              3.0277    Y=              1.9584    Z=             -0.6231  Tot=              3.6593

 Test job not archived.
 1\1\GINC-SE044\SP\RHF\Aug-CC-pVDZ\C3H5Cl1F1N4O2(1-)\OHZDE\09-Apr-2025\
 0\\#t hf aug-cc-pvdz iop(5/13=1,5/36=2,99/5=2) pseudo=read geom=check
 guess=(read,tcheck) scf=(maxcycle=1)\\title\\-1,1\C,0,0.5919758,-0.127
 57878,-0.00332668\H,0,1.58114124,1.71599971,0.19044948\Cl,0,-1.6735525
 8,-0.36019069,0.05961421\F,0,2.51415324,0.02131886,-0.06127228\C,0,0.5
 4128084,1.41300025,0.07356601\N,0,0.65343278,-0.72985102,-1.2915853\H,
 0,0.03537288,-1.52505705,-1.33603394\H,0,1.62467962,-0.96902637,-1.437
 43024\N,0,0.744363,-0.7493151,1.27619601\H,0,1.69160384,-1.10235785,1.

 Normal termination of Gaussian 16 at Wed Apr  9 03:01:02 2025.
