 Gaussian 16, Revision C.01,

 ----------------------------------------------------------------------
 #t hf aug-cc-pvdz symm=none int=(grid=ultrafine) guess=(read,tcheck) s
 table=(opt,rrhf)
 ----------------------------------------------------------------------
 -----
 title
 -----
 Symbolic Z-matrix:
 Charge = -1 Multiplicity = 1

 SCF Done:  E(RHF) =  -839.415731496     A.U. after   16 cycles
 Normal termination of Gaussian 16 at Wed Apr  9 02:51:05 2025.
 Gaussian 16:  ES64L-G16RevC.01  3-Jul-2019

 ----------------------------------------------------------------------
 #t hf aug-cc-pvdz iop(5/13=1,5/36=2,99/5=2) pseudo=read geom=check gue
 ss=(read,tcheck) scf=(maxcycle=1)
 ----------------------------------------------------------------------
 -----
 title
 -----
 Structure from the checkpoint file:  "E2SN2_302_mol1.chk"
 Charge = -1 Multiplicity = 1

                         Standard orientation:
 ---------------------------------------------------------------------
 Center     Atomic      Atomic             Coordinates (Angstroms)
 Number     Number       Type             X           Y           Z
 ---------------------------------------------------------------------
      1          6           0       -0.263087   -0.126065   -0.344362
      2          1           0       -1.111841    1.711899   -0.827464
      3         17           0        1.929254   -0.494900   -0.108685
      4          9           0       -2.270758    0.045938   -0.368174
      5          6           0       -0.123177    1.367917   -0.533385
      6          1           0        0.580147    1.501547   -1.363765
      7          6           0       -0.565952   -0.670787    0.968287
      8          7           0       -0.753345   -1.192919    2.005915
      9          7           0       -0.398048   -0.924893   -1.525162
     10          1           0       -1.402596   -1.068838   -1.573467
     11          1           0        0.085789   -1.802378   -1.389022
     12          7           0        0.265223    2.029307    0.704391
     13          1           0        0.164668    3.029618    0.590618
     14          1           0        1.239818    1.821153    0.885049
 ---------------------------------------------------------------------

 SCF Done:  E(RHF) =  -839.872299336     A.U. after    2 cycles

 The electronic state is 1-A.
 Alpha  occ. eigenvalues -- -105.35443 -26.14547 -15.37095 -15.36530 -15.36296
 Alpha  occ. eigenvalues --  -11.27138 -11.15030 -11.13709 -10.40266  -7.57097
 Alpha  occ. eigenvalues --   -7.56922  -7.56900  -1.22621  -1.09753  -1.06227
 Alpha  occ. eigenvalues --   -1.05638  -0.88108  -0.81167  -0.75352  -0.61080
 Alpha  occ. eigenvalues --   -0.58561  -0.57832  -0.50806  -0.48928  -0.46113
 Alpha  occ. eigenvalues --   -0.45127  -0.39791  -0.35818  -0.33946  -0.32801
 Alpha  occ. eigenvalues --   -0.30610  -0.29673  -0.29565  -0.27729  -0.26912
 Alpha  occ. eigenvalues --   -0.26618
 Alpha virt. eigenvalues --    0.12598   0.14190   0.14953   0.15447   0.16735
 Alpha virt. eigenvalues --    0.17710   0.19955   0.21021   0.22009   0.23607
 Alpha virt. eigenvalues --    0.24117   0.24451   0.25901   0.26907   0.27251

 Mulliken charges:
               1
     1  C   -0.889613
     2  H    0.274113
     3  Cl  -0.504867
     4  F   -0.876316
     5  C   -0.307974
     6  H    0.136967
     7  C   -1.783000
     8  N    1.005018
     9  N    0.743431
    10  H    0.336303
    11  H    0.245488
    12  N    0.277206
    13  H    0.138512
    14  H    0.204732
 Sum of Mulliken charges =  -1.00000

 Dipole moment (field-independent basis, Debye):
    X=              2.3035    Y=              2.8689    Z=             -3.4050  Tot=              5.0130

 Test job not archived.
 1\1\GINC-SE459\SP\RHF\Aug-CC-pVDZ\C3H6Cl1F1N3(1-)\OHZDE\09-Apr-2025\0\
 \#t hf aug-cc-pvdz iop(5/13=1,5/36=2,99/5=2) pseudo=read geom=check gu
 ess=(read,tcheck) scf=(maxcycle=1)\\title\\-1,1\C,0,0.56138635,-0.0381
 1358,0.02527082\H,0,1.67240892,1.71411592,0.19020299\Cl,0,-1.67165691,
 -0.1393102,0.06020667\F,0,2.56439108,-0.12973748,-0.17590404\C,0,0.622
 53033,1.47293124,0.04239938\H,0,0.04115787,1.78766014,0.91704507\C,0,0
 .64313511,-0.75796117,-1.23434536\N,0,0.64560477,-1.41034976,-2.213525
 36\N,0,0.73675499,-0.71397491,1.27550535\H,0,1.71591305,-0.98247213,1.

 Normal termination of Gaussian 16 at Wed Apr  9 02:51:11 2025.
