 Gaussian 16, Revision C.01,

 ----------------------------------------------------------------------
 #t hf aug-cc-pvdz symm=none int=(grid=ultrafine) guess=(read,tcheck) s
 table=(opt,rrhf)
 ----------------------------------------------------------------------
 -----
 title
 -----
 Symbolic Z-matrix:
 Charge = -1 Multiplicity = 1

 SCF Done:  E(RHF) =  -1042.92620892     A.U. after   17 cycles
 Normal termination of Gaussian 16 at Wed Apr  9 02:53:14 2025.
 Gaussian 16:  ES64L-G16RevC.01  3-Jul-2019

 ----------------------------------------------------------------------
 #t hf aug-cc-pvdz iop(5/13=1,5/36=2,99/5=2) pseudo=read geom=check gue
 ss=(read,tcheck) scf=(maxcycle=1)
 ----------------------------------------------------------------------
 -----
 title
 -----
 Structure from the checkpoint file:  "E2SN2_308_mol1.chk"
 Charge = -1 Multiplicity = 1

                         Standard orientation:
 ---------------------------------------------------------------------
 Center     Atomic      Atomic             Coordinates (Angstroms)
 Number     Number       Type             X           Y           Z
 ---------------------------------------------------------------------
      1          6           0       -0.544594    0.036595    0.353298
      2          1           0        0.354253   -1.127622   -1.240787
      3          9           0        0.633855    1.423305    1.019223
      4         17           0       -2.030092   -1.378154   -0.544905
      5          6           0        0.526975   -0.185827   -0.723770
      6          6           0       -1.475606    1.138433    0.157651
      7          7           0       -2.264407    2.009578    0.097699
      8          7           0       -0.487752   -0.637131    1.600277
      9          1           0       -1.426377   -0.821515    1.924548
     10          1           0        0.003890   -0.005378    2.220742
     11          7           0        1.913349   -0.428100   -0.075991
     12          8           0        2.830818    0.322569   -0.396237
     13          8           0        2.037685   -1.427586    0.622544
     14          7           0        0.535817    0.910210   -1.613916
     15          1           0        1.222579    0.771631   -2.341641
     16          1           0        0.784789    1.724795   -1.062495
 ---------------------------------------------------------------------

 SCF Done:  E(RHF) =  -1043.57149985     A.U. after    2 cycles

 The electronic state is 1-A.
 Alpha  occ. eigenvalues -- -105.36621 -26.19013 -20.46321 -20.46275 -15.65469
 Alpha  occ. eigenvalues --  -15.39090 -15.38924 -15.38864 -11.30883 -11.23396
 Alpha  occ. eigenvalues --  -11.17248 -10.41444  -7.58281  -7.58093  -7.58073
 Alpha  occ. eigenvalues --   -1.53480  -1.37413  -1.27683  -1.13484  -1.10528
 Alpha  occ. eigenvalues --   -1.08429  -0.94456  -0.88543  -0.81261  -0.74865
 Alpha  occ. eigenvalues --   -0.66526  -0.66146  -0.64024  -0.61596  -0.60001
 Alpha  occ. eigenvalues --   -0.58546  -0.53658  -0.49044  -0.47800  -0.43741
 Alpha  occ. eigenvalues --   -0.41476  -0.38935  -0.36999  -0.36579  -0.35721
 Alpha  occ. eigenvalues --   -0.34176  -0.33396  -0.33269  -0.31515  -0.28710
 Alpha  occ. eigenvalues --   -0.28320  -0.27841
 Alpha virt. eigenvalues --    0.12859   0.13822   0.14536   0.16461   0.16822
 Alpha virt. eigenvalues --    0.18824   0.19084   0.19821   0.21339   0.22623
 Alpha virt. eigenvalues --    0.23084   0.23211   0.24337   0.25018   0.25902

 Mulliken charges:
               1
     1  C   -0.415476
     2  H    0.076926
     3  F   -0.891645
     4  Cl  -0.481921
     5  C   -1.450079
     6  C   -1.818926
     7  N    1.048062
     8  N    0.812443
     9  H    0.244710
    10  H    0.301600
    11  N    3.154624
    12  O   -1.503125
    13  O   -1.528668
    14  N    0.744090
    15  H    0.242382
    16  H    0.465004
 Sum of Mulliken charges =  -1.00000

 Dipole moment (field-independent basis, Debye):
    X=              2.8402    Y=             -1.7330    Z=             -0.9019  Tot=              3.4473

 Test job not archived.
 1\1\GINC-SE016\SP\RHF\Aug-CC-pVDZ\C3H5Cl1F1N4O2(1-)\OHZDE\09-Apr-2025\
 0\\#t hf aug-cc-pvdz iop(5/13=1,5/36=2,99/5=2) pseudo=read geom=check
 guess=(read,tcheck) scf=(maxcycle=1)\\title\\-1,1\C,0,0.76398653,-0.03
 800163,0.0311106\H,0,1.72566591,1.88163289,0.33869031\F,0,-1.16938502,
 0.09165805,0.01048654\Cl,0,2.98486349,-0.2047294,-0.20318712\C,0,0.743
 86783,1.49688684,0.07006597\C,0,0.57930667,-0.67995121,-1.26229727\N,0
 ,0.42550247,-1.2916171,-2.25572726\N,0,0.71881203,-0.80655228,1.222489
 83\H,0,1.25611104,-1.65242357,1.09608764\H,0,-0.26272288,-1.00691087,1

 Normal termination of Gaussian 16 at Wed Apr  9 02:53:24 2025.
