 Gaussian 16, Revision C.01,

 ----------------------------------------------------------------------
 #t hf aug-cc-pvdz symm=none int=(grid=ultrafine) guess=(read,tcheck) s
 table=(opt,rrhf)
 ----------------------------------------------------------------------
 -----
 title
 -----
 Symbolic Z-matrix:
 Charge = -1 Multiplicity = 1

 SCF Done:  E(RHF) =  -740.479285469     A.U. after   15 cycles
 Normal termination of Gaussian 16 at Wed Apr  9 03:01:59 2025.
 Gaussian 16:  ES64L-G16RevC.01  3-Jul-2019

 ----------------------------------------------------------------------
 #t hf aug-cc-pvdz iop(5/13=1,5/36=2,99/5=2) pseudo=read geom=check gue
 ss=(read,tcheck) scf=(maxcycle=1)
 ----------------------------------------------------------------------
 -----
 title
 -----
 Structure from the checkpoint file:  "E2SN2_82_mol2.chk"
 Charge = -1 Multiplicity = 1

                         Standard orientation:
 ---------------------------------------------------------------------
 Center     Atomic      Atomic             Coordinates (Angstroms)
 Number     Number       Type             X           Y           Z
 ---------------------------------------------------------------------
      1          6           0       -0.206558   -0.173011    0.203160
      2          6           0        0.923818   -0.818049   -0.638138
      3         17           0       -0.206866    1.653454   -0.117282
      4          1           0        0.919274   -0.372394   -1.638858
      5          1           0        0.649628   -1.877674   -0.722873
      6          6           0       -1.532302   -0.623732   -0.232020
      7          7           0       -2.579920   -1.021282   -0.585737
      8          7           0        0.013948   -0.484733    1.563914
      9          1           0        1.019535   -0.337575    1.691833
     10          1           0       -0.532445    0.104461    2.178555
     11          7           0        2.191662   -0.598660    0.012839
     12          1           0        2.821112   -0.098252   -0.714791
     13          1           0        2.635604   -1.494643    0.180297
     14          1           0        3.514433    0.388840   -1.915495
 ---------------------------------------------------------------------

 SCF Done:  E(RHF) =  -740.848634580     A.U. after    2 cycles

 The electronic state is 1-A.
 Alpha  occ. eigenvalues -- -105.44577 -15.42499 -15.40516 -15.33401 -11.26281
 Alpha  occ. eigenvalues --  -11.19459 -11.15194 -10.49437  -7.66355  -7.65998
 Alpha  occ. eigenvalues --   -7.65993  -1.15571  -1.11766  -1.03577  -0.96109
 Alpha  occ. eigenvalues --   -0.85950  -0.75660  -0.65143  -0.58791  -0.57434
 Alpha  occ. eigenvalues --   -0.52819  -0.51274  -0.48938  -0.47555  -0.41540
 Alpha  occ. eigenvalues --   -0.40850  -0.39507  -0.36331  -0.34187  -0.33558
 Alpha  occ. eigenvalues --   -0.30369  -0.09706
 Alpha virt. eigenvalues --    0.12066   0.13783   0.14711   0.16124   0.16965
 Alpha virt. eigenvalues --    0.17945   0.18145   0.20195   0.21469   0.22501
 Alpha virt. eigenvalues --    0.22823   0.23518   0.23875   0.24546   0.24938

 Mulliken charges:
               1
     1  C   -1.477773
     2  C   -0.473169
     3  Cl   0.025432
     4  H    0.197893
     5  H    0.113688
     6  C   -1.139680
     7  N    0.806683
     8  N    0.669594
     9  H    0.337601
    10  H    0.176695
    11  N    0.251802
    12  H    0.025673
    13  H    0.271847
    14  H   -0.786287
 Sum of Mulliken charges =  -1.00000

 Dipole moment (field-independent basis, Debye):
    X=             -8.4472    Y=             -1.3424    Z=              7.6069  Tot=             11.4465

 Test job not archived.
 1\1\GINC-SE454\SP\RHF\Aug-CC-pVDZ\C3H7Cl1N3(1-)\OHZDE\09-Apr-2025\0\\#
 t hf aug-cc-pvdz iop(5/13=1,5/36=2,99/5=2) pseudo=read geom=check gues
 s=(read,tcheck) scf=(maxcycle=1)\\title\\-1,1\C,0,-0.661736,-0.123006,
 -1.519753\C,0,0.117898,-0.189996,-0.18211\Cl,0,0.227382,1.038732,-2.65
 9267\H,0,1.190129,-0.246918,-0.399252\H,0,-0.197237,-1.131165,0.286991
 \C,0,-0.64778,-1.410367,-2.221631\N,0,-0.641036,-2.46024,-2.749256\N,0
 ,-1.984959,0.291833,-1.246924\H,0,-1.871025,1.057939,-0.576607\H,0,-2.
 464936,0.594619,-2.084433\N,0,-0.181923,0.978848,0.607347\H,0,0.771235

 Normal termination of Gaussian 16 at Wed Apr  9 03:02:04 2025.
