 Gaussian 16, Revision C.01,

 ----------------------------------------------------------------------
 #t hf aug-cc-pvdz symm=none int=(grid=ultrafine) guess=(read,tcheck) s
 table=(opt,rrhf)
 ----------------------------------------------------------------------
 -----
 title
 -----
 Symbolic Z-matrix:
 Charge = -1 Multiplicity = 1

 SCF Done:  E(RHF) =  -500.035835878     A.U. after   15 cycles
 Normal termination of Gaussian 16 at Wed Apr  9 02:48:00 2025.
 Gaussian 16:  ES64L-G16RevC.01  3-Jul-2019

 ----------------------------------------------------------------------
 #t hf aug-cc-pvdz iop(5/13=1,5/36=2,99/5=2) pseudo=read geom=check gue
 ss=(read,tcheck) scf=(maxcycle=1)
 ----------------------------------------------------------------------
 -----
 title
 -----
 Structure from the checkpoint file:  "E2SN2_269_mol1.chk"
 Charge = -1 Multiplicity = 1

                         Standard orientation:
 ---------------------------------------------------------------------
 Center     Atomic      Atomic             Coordinates (Angstroms)
 Number     Number       Type             X           Y           Z
 ---------------------------------------------------------------------
      1          6           0       -0.179967   -0.066995    0.003429
      2          1           0        0.426046   -1.867388    0.938514
      3          9           0       -0.186396    0.003014   -1.780570
      4          9           0       -0.217694    0.065280    1.783886
      5          6           0        0.681230   -1.321557    0.030624
      6          1           0        0.414159   -1.913327   -0.844605
      7          6           0       -1.624670   -0.214579   -0.006413
      8          7           0       -2.787414   -0.380649   -0.013373
      9          6           0        0.388844    1.271311   -0.013977
     10          7           0        0.879104    2.338608   -0.028950
     11          6           0        2.162196   -0.978316    0.011616
     12          1           0        2.402726   -0.415379   -0.891792
     13          1           0        2.417163   -0.374488    0.884344
     14          1           0        2.769082   -1.888954    0.028278
 ---------------------------------------------------------------------

 SCF Done:  E(RHF) =  -500.514007054     A.U. after    2 cycles

 The electronic state is 1-A.
 Alpha  occ. eigenvalues --  -26.20082 -26.20064 -15.38700 -15.38073 -11.28758
 Alpha  occ. eigenvalues --  -11.16880 -11.16560 -11.12659 -11.11371  -1.29362
 Alpha  occ. eigenvalues --   -1.27921  -1.09037  -1.08324  -0.97018  -0.87511
 Alpha  occ. eigenvalues --   -0.74778  -0.68605  -0.54245  -0.52921  -0.48469
 Alpha  occ. eigenvalues --   -0.47578  -0.46748  -0.43566  -0.42596  -0.40407
 Alpha  occ. eigenvalues --   -0.40207  -0.36684  -0.36161  -0.35347  -0.35239
 Alpha  occ. eigenvalues --   -0.34742  -0.33584  -0.32580  -0.30327
 Alpha virt. eigenvalues --    0.11762   0.13972   0.14456   0.15725   0.16879
 Alpha virt. eigenvalues --    0.18316   0.19755   0.22093   0.22744   0.23336
 Alpha virt. eigenvalues --    0.23648   0.24809   0.24970   0.25183   0.26170

 Mulliken charges:
               1
     1  C    2.694049
     2  H    0.209082
     3  F   -0.846870
     4  F   -0.846532
     5  C    0.125837
     6  H    0.211997
     7  C   -2.605016
     8  N    1.096096
     9  C   -2.493492
    10  N    1.101657
    11  C   -0.213252
    12  H    0.268866
    13  H    0.265140
    14  H    0.032439
 Sum of Mulliken charges =  -1.00000

 Dipole moment (field-independent basis, Debye):
    X=              3.8673    Y=             -4.2167    Z=              0.0790  Tot=              5.7222

 Test job not archived.
 1\1\GINC-SE461\SP\RHF\Aug-CC-pVDZ\C5H5F2N2(1-)\OHZDE\09-Apr-2025\0\\#t
  hf aug-cc-pvdz iop(5/13=1,5/36=2,99/5=2) pseudo=read geom=check guess
 =(read,tcheck) scf=(maxcycle=1)\\title\\-1,1\C,0,0.5960888,-0.04177383
 ,-0.0070711\H,0,1.42953805,1.85176847,-0.45752887\F,0,-1.15758786,-0.2
 76381,-0.24618033\F,0,2.35156306,0.00408864,0.31720277\C,0,0.48292613,
 1.47459102,-0.0715496\H,0,-0.32068695,1.70714991,-0.76988119\C,0,0.852
 00344,-0.7734664,-1.23515007\N,0,1.05956608,-1.32428751,-2.25157317\C,
 0,0.45684106,-0.78382316,1.23586249\N,0,0.33803417,-1.35417825,2.25580

 Normal termination of Gaussian 16 at Wed Apr  9 02:48:06 2025.
