 Gaussian 16, Revision C.01,

 ----------------------------------------------------------------------
 #t hf aug-cc-pvdz symm=none int=(grid=ultrafine) guess=(read,tcheck) s
 table=(opt,rrhf)
 ----------------------------------------------------------------------
 -----
 title
 -----
 Symbolic Z-matrix:
 Charge = -1 Multiplicity = 1

 SCF Done:  E(RHF) =  -891.284299664     A.U. after   16 cycles
 Normal termination of Gaussian 16 at Wed Apr  9 03:00:49 2025.
 Gaussian 16:  ES64L-G16RevC.01  3-Jul-2019

 ----------------------------------------------------------------------
 #t hf aug-cc-pvdz iop(5/13=1,5/36=2,99/5=2) pseudo=read geom=check gue
 ss=(read,tcheck) scf=(maxcycle=1)
 ----------------------------------------------------------------------
 -----
 title
 -----
 Structure from the checkpoint file:  "E2SN2_47_mol2.chk"
 Charge = -1 Multiplicity = 1

                         Standard orientation:
 ---------------------------------------------------------------------
 Center     Atomic      Atomic             Coordinates (Angstroms)
 Number     Number       Type             X           Y           Z
 ---------------------------------------------------------------------
      1          6           0       -0.091806    0.183542    0.284353
      2          6           0        1.203083   -0.369372   -0.339946
      3         17           0       -0.434537    1.849133   -0.414709
      4          1           0        1.201169   -0.127844   -1.407619
      5          7           0       -1.325883   -0.598450   -0.150047
      6          8           0       -1.386961   -0.934366   -1.327643
      7          8           0       -2.190844   -0.815501    0.695677
      8          7           0        0.002701    0.174018    1.676472
      9          1           0        0.910775    0.599551    1.865832
     10          1           0       -0.758011    0.669383    2.120233
     11          6           0        1.285749   -1.884366   -0.160907
     12          1           0        1.293600   -2.140858    0.902275
     13          1           0        0.468036   -2.418416   -0.649712
     14          1           0        2.223808   -2.213447   -0.613748
     15          7           0        2.304914    0.329673    0.298401
     16          1           0        2.904737   -0.358190    0.745031
     17          1           0        2.899896    0.716060   -0.515269
     18          1           0        3.611284    0.921933   -1.816022
 ---------------------------------------------------------------------

 SCF Done:  E(RHF) =  -891.803699608     A.U. after    2 cycles

 The electronic state is 1-A.
 Alpha  occ. eigenvalues -- -105.45420 -20.49532 -20.49245 -15.68626 -15.40686
 Alpha  occ. eigenvalues --  -15.33422 -11.28447 -11.15374 -11.11864 -10.50286
 Alpha  occ. eigenvalues --   -7.67216  -7.66840  -7.66833  -1.56567  -1.40514
 Alpha  occ. eigenvalues --   -1.16397  -1.04680  -0.99434  -0.91993  -0.87724
 Alpha  occ. eigenvalues --   -0.77812  -0.72470  -0.66938  -0.64824  -0.64081
 Alpha  occ. eigenvalues --   -0.60090  -0.55334  -0.52778  -0.50253  -0.49927
 Alpha  occ. eigenvalues --   -0.44618  -0.42996  -0.40732  -0.39217  -0.39101
 Alpha  occ. eigenvalues --   -0.36352  -0.34756  -0.34642  -0.33958  -0.30633
 Alpha  occ. eigenvalues --   -0.09626
 Alpha virt. eigenvalues --    0.12056   0.12857   0.13635   0.14597   0.15069
 Alpha virt. eigenvalues --    0.15862   0.17294   0.17515   0.17884   0.21477
 Alpha virt. eigenvalues --    0.22114   0.22460   0.23209   0.23896   0.24529

 Mulliken charges:
               1
     1  C   -2.262455
     2  C   -1.220663
     3  Cl   0.023933
     4  H    0.075976
     5  N    3.280570
     6  O   -1.596982
     7  O   -1.522848
     8  N    0.854672
     9  H    0.378092
    10  H    0.263978
    11  C   -0.096647
    12  H    0.284033
    13  H    0.206383
    14  H    0.143804
    15  N    0.663761
    16  H    0.249224
    17  H    0.033052
    18  H   -0.757884
 Sum of Mulliken charges =  -1.00000

 Dipole moment (field-independent basis, Debye):
    X=             -9.7231    Y=             -3.2829    Z=              7.2040  Tot=             12.5385

 Test job not archived.
 1\1\GINC-SE080\SP\RHF\Aug-CC-pVDZ\C3H9Cl1N3O2(1-)\OHZDE\09-Apr-2025\0\
 \#t hf aug-cc-pvdz iop(5/13=1,5/36=2,99/5=2) pseudo=read geom=check gu
 ess=(read,tcheck) scf=(maxcycle=1)\\title\\-1,1\C,0,-0.611699,-0.10303
 ,-1.499735\C,0,0.101372,-0.110845,-0.134572\Cl,0,0.381326,0.882309,-2.
 692779\H,0,1.175033,-0.235825,-0.307481\N,0,-0.619541,-1.477397,-2.158
 684\O,0,0.411221,-2.137159,-2.084222\O,0,-1.642584,-1.823028,-2.745575
 \N,0,-1.92189,0.354928,-1.355883\H,0,-1.827374,1.204263,-0.798003\H,0,
 -2.373913,0.522344,-2.243937\C,0,-0.410733,-1.256748,0.73649\H,0,-1.48

 Normal termination of Gaussian 16 at Wed Apr  9 03:00:59 2025.
