 Gaussian 16, Revision C.01,

 ----------------------------------------------------------------------
 #t hf aug-cc-pvdz symm=none int=(grid=ultrafine) guess=(read,tcheck) s
 table=(opt,rrhf)
 ----------------------------------------------------------------------
 -----
 title
 -----
 Symbolic Z-matrix:
 Charge = -1 Multiplicity = 1

 SCF Done:  E(RHF) =  -860.122077482     A.U. after   16 cycles
 Normal termination of Gaussian 16 at Wed Apr  9 02:49:20 2025.
 Gaussian 16:  ES64L-G16RevC.01  3-Jul-2019

 ----------------------------------------------------------------------
 #t hf aug-cc-pvdz iop(5/13=1,5/36=2,99/5=2) pseudo=read geom=check gue
 ss=(read,tcheck) scf=(maxcycle=1)
 ----------------------------------------------------------------------
 -----
 title
 -----
 Structure from the checkpoint file:  "E2SN2_278_mol1.chk"
 Charge = -1 Multiplicity = 1

                         Standard orientation:
 ---------------------------------------------------------------------
 Center     Atomic      Atomic             Coordinates (Angstroms)
 Number     Number       Type             X           Y           Z
 ---------------------------------------------------------------------
      1          6           0       -0.431469    0.349059   -0.251924
      2          1           0        1.011832    0.841083   -1.704905
      3         17           0       -1.100061   -1.732399    0.115572
      4          9           0        0.277498    2.192374   -0.345235
      5          6           0        0.746600   -0.046742   -1.133012
      6          1           0        0.450072   -0.858353   -1.799584
      7          6           0       -0.252575    0.626863    1.152685
      8          7           0       -0.168552    0.795361    2.313946
      9          6           0       -1.707142    0.780840   -0.941612
     10          1           0       -1.572258    1.805239   -1.277574
     11          1           0       -1.917048    0.112895   -1.778465
     12          1           0       -2.542765    0.715381   -0.245338
     13          6           0        1.921208   -0.482109   -0.386703
     14          7           0        2.899123   -0.833116    0.159147
 ---------------------------------------------------------------------

 SCF Done:  E(RHF) =  -860.586604766     A.U. after    2 cycles

 The electronic state is 1-A.
 Alpha  occ. eigenvalues -- -105.36646 -26.16305 -15.39755 -15.37821 -11.27349
 Alpha  occ. eigenvalues --  -11.17620 -11.17190 -11.16336 -11.13106 -10.41456
 Alpha  occ. eigenvalues --   -7.58299  -7.58102  -7.58096  -1.24237  -1.10345
 Alpha  occ. eigenvalues --   -1.08277  -1.00786  -0.89575  -0.82766  -0.78238
 Alpha  occ. eigenvalues --   -0.63634  -0.54271  -0.53992  -0.50971  -0.48539
 Alpha  occ. eigenvalues --   -0.48316  -0.46270  -0.44167  -0.41550  -0.37539
 Alpha  occ. eigenvalues --   -0.37193  -0.35465  -0.32271  -0.32179  -0.31047
 Alpha  occ. eigenvalues --   -0.28446  -0.27971  -0.27342
 Alpha virt. eigenvalues --    0.12513   0.13523   0.14432   0.15175   0.16245
 Alpha virt. eigenvalues --    0.18211   0.19539   0.20012   0.21610   0.22273
 Alpha virt. eigenvalues --    0.22901   0.23929   0.25124   0.25560   0.26279

 Mulliken charges:
               1
     1  C   -0.338852
     2  H    0.404388
     3  Cl  -0.520033
     4  F   -0.836302
     5  C    0.687511
     6  H    0.276425
     7  C   -1.912436
     8  N    1.041189
     9  C    0.086509
    10  H    0.325762
    11  H    0.211323
    12  H    0.208470
    13  C   -1.562855
    14  N    0.928901
 Sum of Mulliken charges =  -1.00000

 Dipole moment (field-independent basis, Debye):
    X=             -3.2212    Y=             -0.5315    Z=             -6.4768  Tot=              7.2531

 Test job not archived.
 1\1\GINC-SE249\SP\RHF\Aug-CC-pVDZ\C5H5Cl1F1N2(1-)\OHZDE\09-Apr-2025\0\
 \#t hf aug-cc-pvdz iop(5/13=1,5/36=2,99/5=2) pseudo=read geom=check gu
 ess=(read,tcheck) scf=(maxcycle=1)\\title\\-1,1\C,0,0.51372745,-0.0692
 6091,0.02167571\H,0,1.6295124,1.69328492,0.31290655\Cl,0,-1.69697922,-
 0.1268527,0.17657083\F,0,2.4513882,-0.0589049,-0.37140799\C,0,0.605085
 81,1.45136967,0.03421286\H,0,-0.09724267,1.85528917,0.76533744\C,0,0.5
 2826811,-0.80749176,-1.21804556\N,0,0.46691601,-1.44730638,-2.20336324
 \C,0,0.75942268,-0.79583646,1.32596412\H,0,1.83293531,-0.82916052,1.49

 Normal termination of Gaussian 16 at Wed Apr  9 02:49:27 2025.
