 Gaussian 16, Revision C.01,

 ----------------------------------------------------------------------
 #t hf aug-cc-pvdz symm=none int=(grid=ultrafine) guess=(read,tcheck) s
 table=(opt,rrhf)
 ----------------------------------------------------------------------
 -----
 title
 -----
 Symbolic Z-matrix:
 Charge = -1 Multiplicity = 1

 SCF Done:  E(RHF) =  -862.549709225     A.U. after   14 cycles
 Normal termination of Gaussian 16 at Wed Apr  9 02:53:50 2025.
 Gaussian 16:  ES64L-G16RevC.01  3-Jul-2019

 ----------------------------------------------------------------------
 #t hf aug-cc-pvdz iop(5/13=1,5/36=2,99/5=2) pseudo=read geom=check gue
 ss=(read,tcheck) scf=(maxcycle=1)
 ----------------------------------------------------------------------
 -----
 title
 -----
 Structure from the checkpoint file:  "E2SN2_316_mol2.chk"
 Charge = -1 Multiplicity = 1

                         Standard orientation:
 ---------------------------------------------------------------------
 Center     Atomic      Atomic             Coordinates (Angstroms)
 Number     Number       Type             X           Y           Z
 ---------------------------------------------------------------------
      1          6           0       -0.769392   -0.268020    0.461919
      2          6           0       -0.323956    0.889000   -0.433157
      3          9           0       -1.843245    0.182749    1.274887
      4          1           0        0.466286    0.484579   -1.075407
      5          6           0       -1.397686   -1.351132   -0.348888
      6          7           0       -1.869328   -2.233328   -0.965489
      7          7           0        0.276966   -0.722624    1.285931
      8          1           0        1.197538   -0.617556    0.838244
      9          1           0        0.148650   -1.679579    1.583903
     10          6           0        0.286027    2.002929    0.415918
     11          1           0        0.511919    2.860723   -0.224352
     12          1           0       -0.413236    2.319723    1.193979
     13          1           0        1.218220    1.675647    0.872840
     14          6           0       -1.482710    1.406310   -1.281053
     15          1           0       -1.129384    2.208756   -1.934120
     16          1           0       -2.277324    1.805715   -0.645952
     17          1           0       -1.909500    0.624100   -1.914546
     18         17           0        3.061698   -0.394688   -0.311771
 ---------------------------------------------------------------------

 SCF Done:  E(RHF) =  -863.035687906     A.U. after    2 cycles

 The electronic state is 1-A.
 Alpha  occ. eigenvalues -- -105.28529 -26.34203 -15.41873 -15.37450 -11.27766
 Alpha  occ. eigenvalues --  -11.18340 -11.13354 -11.12536 -11.10767 -10.33128
 Alpha  occ. eigenvalues --   -7.49904  -7.49862  -7.49853  -1.46536  -1.12602
 Alpha  occ. eigenvalues --   -1.09522  -0.97493  -0.84598  -0.82700  -0.74070
 Alpha  occ. eigenvalues --   -0.71135  -0.65689  -0.60244  -0.59388  -0.54254
 Alpha  occ. eigenvalues --   -0.51676  -0.50501  -0.47811  -0.47643  -0.45046
 Alpha  occ. eigenvalues --   -0.43590  -0.41027  -0.40137  -0.38609  -0.37941
 Alpha  occ. eigenvalues --   -0.37285  -0.34198  -0.21468  -0.20880  -0.20787
 Alpha virt. eigenvalues --    0.11736   0.12684   0.13158   0.13884   0.15489
 Alpha virt. eigenvalues --    0.15742   0.17225   0.18420   0.18631   0.19808
 Alpha virt. eigenvalues --    0.20892   0.22695   0.23038   0.23482   0.23931

 Mulliken charges:
               1
     1  C    1.061997
     2  C   -1.147443
     3  F   -1.012385
     4  H    0.198592
     5  C   -2.195450
     6  N    1.024019
     7  N    0.537600
     8  H    0.149874
     9  H    0.247301
    10  C    0.017304
    11  H    0.149926
    12  H    0.213291
    13  H    0.210977
    14  C   -0.065016
    15  H    0.136973
    16  H    0.249768
    17  H    0.194205
    18  Cl  -0.971533
 Sum of Mulliken charges =  -1.00000

 Dipole moment (field-independent basis, Debye):
    X=             -7.8164    Y=              3.9169    Z=              1.3428  Tot=              8.8454

 Test job not archived.
 1\1\GINC-SE029\SP\RHF\Aug-CC-pVDZ\C5H9Cl1F1N2(1-)\OHZDE\09-Apr-2025\0\
 \#t hf aug-cc-pvdz iop(5/13=1,5/36=2,99/5=2) pseudo=read geom=check gu
 ess=(read,tcheck) scf=(maxcycle=1)\\title\\-1,1\C,0,0.042618,0.095094,
 -0.005703\C,0,-0.492714,-0.248032,-1.39637\F,0,1.449351,-0.100795,-0.0
 06711\H,0,-1.566984,-0.034695,-1.365486\C,0,-0.089778,1.556021,0.26532
 4\N,0,-0.209657,2.697369,0.518044\N,0,-0.537349,-0.712519,0.990252\H,0
 ,-1.50287,-0.982283,0.758062\H,0,-0.513014,-0.280421,1.903331\C,0,-0.3
 18784,-1.740799,-1.670672\H,0,-0.616851,-1.954359,-2.701367\H,0,0.7250

 Normal termination of Gaussian 16 at Wed Apr  9 02:53:59 2025.
