 Gaussian 16, Revision C.01,

 ----------------------------------------------------------------------
 #t hf aug-cc-pvdz symm=none int=(grid=ultrafine) guess=(read,tcheck) s
 table=(opt,rrhf)
 ----------------------------------------------------------------------
 -----
 title
 -----
 Symbolic Z-matrix:
 Charge = -1 Multiplicity = 1

 SCF Done:  E(RHF) =  -515.237281743     A.U. after   17 cycles
 Normal termination of Gaussian 16 at Wed Apr  9 02:58:44 2025.
 Gaussian 16:  ES64L-G16RevC.01  3-Jul-2019

 ----------------------------------------------------------------------
 #t hf aug-cc-pvdz iop(5/13=1,5/36=2,99/5=2) pseudo=read geom=check gue
 ss=(read,tcheck) scf=(maxcycle=1)
 ----------------------------------------------------------------------
 -----
 title
 -----
 Structure from the checkpoint file:  "E2SN2_38_mol2.chk"
 Charge = -1 Multiplicity = 1

                         Standard orientation:
 ---------------------------------------------------------------------
 Center     Atomic      Atomic             Coordinates (Angstroms)
 Number     Number       Type             X           Y           Z
 ---------------------------------------------------------------------
      1          6           0       -0.113182    0.503030   -0.165819
      2          6           0        1.090976   -0.290413    0.335636
      3          9           0       -0.112871    0.537497   -1.540237
      4          1           0        1.046008   -0.302526    1.435648
      5          7           0       -1.380997   -0.240781    0.223592
      6          8           0       -2.060610   -0.761320   -0.656107
      7          8           0       -1.618583   -0.293647    1.429016
      8          6           0       -0.196425    1.911103    0.359992
      9          1           0       -1.036801    2.434597   -0.103787
     10          1           0        0.748015    2.389840    0.107118
     11          1           0       -0.316189    1.898511    1.442395
     12          7           0        2.291462    0.440714   -0.015206
     13          1           0        2.653042    0.070924   -0.889657
     14          1           0        2.976451    0.170822    0.750781
     15          6           0        1.072578   -1.736236   -0.154839
     16          1           0        1.961989   -2.215571    0.257633
     17          1           0        1.114640   -1.771604   -1.247986
     18          1           0        0.189458   -2.293222    0.175966
     19          1           0        3.615827   -0.503947    2.042230
 ---------------------------------------------------------------------

 SCF Done:  E(RHF) =  -515.756974646     A.U. after    2 cycles

 The electronic state is 1-A.
 Alpha  occ. eigenvalues --  -26.36609 -20.49277 -20.48882 -15.68006 -15.33037
 Alpha  occ. eigenvalues --  -11.27622 -11.14638 -11.13889 -11.10749  -1.56333
 Alpha  occ. eigenvalues --   -1.49622  -1.39990  -1.06803  -1.00578  -0.88929
 Alpha  occ. eigenvalues --   -0.86776  -0.76825  -0.71827  -0.67532  -0.64347
 Alpha  occ. eigenvalues --   -0.63844  -0.59123  -0.56309  -0.52636  -0.50961
 Alpha  occ. eigenvalues --   -0.49594  -0.47490  -0.46658  -0.44943  -0.43957
 Alpha  occ. eigenvalues --   -0.39316  -0.39158  -0.38179  -0.36475  -0.34774
 Alpha  occ. eigenvalues --   -0.29817  -0.09323
 Alpha virt. eigenvalues --    0.11770   0.13383   0.13982   0.14344   0.14670
 Alpha virt. eigenvalues --    0.16456   0.16655   0.16928   0.18153   0.20028
 Alpha virt. eigenvalues --    0.20818   0.21958   0.22558   0.23300   0.24564

 Mulliken charges:
               1
     1  C    0.295426
     2  C   -1.934947
     3  F   -1.030275
     4  H    0.169103
     5  N    2.943564
     6  O   -1.388822
     7  O   -1.604977
     8  C   -0.237627
     9  H    0.158273
    10  H    0.354558
    11  H    0.325828
    12  N    0.561681
    13  H    0.311216
    14  H    0.169205
    15  C    0.125347
    16  H    0.199343
    17  H    0.187731
    18  H    0.194186
    19  H   -0.798812
 Sum of Mulliken charges =  -1.00000

 Dipole moment (field-independent basis, Debye):
    X=            -10.6709    Y=              2.2827    Z=             -7.0352  Tot=             12.9836

 Test job not archived.
 1\1\GINC-SE105\SP\RHF\Aug-CC-pVDZ\C4H10F1N2O2(1-)\OHZDE\09-Apr-2025\0\
 \#t hf aug-cc-pvdz iop(5/13=1,5/36=2,99/5=2) pseudo=read geom=check gu
 ess=(read,tcheck) scf=(maxcycle=1)\\title\\-1,1\C,0,-0.549224,0.104508
 ,-1.491068\C,0,0.130874,0.061128,-0.124836\F,0,-1.900347,-0.106703,-1.
 349401\H,0,1.204863,0.24523,-0.282468\N,0,-0.412763,1.509304,-2.056911
 \O,0,-1.41438,2.211966,-2.155572\O,0,0.729755,1.856463,-2.350889\C,0,-
 0.001879,-0.87682,-2.492809\H,0,-0.589456,-0.838108,-3.414016\H,0,-0.0
 6931,-1.859328,-2.028878\H,0,1.04161,-0.649254,-2.705986\N,0,0.020111,

 Normal termination of Gaussian 16 at Wed Apr  9 02:58:53 2025.
