 Gaussian 16, Revision C.01,

 ----------------------------------------------------------------------
 #t hf aug-cc-pvdz symm=none int=(grid=ultrafine) guess=(read,tcheck) s
 table=(opt,rrhf)
 ----------------------------------------------------------------------
 -----
 title
 -----
 Symbolic Z-matrix:
 Charge = -1 Multiplicity = 1

 SCF Done:  E(RHF) =  -380.390173137     A.U. after   16 cycles
 Normal termination of Gaussian 16 at Wed Apr  9 02:58:54 2025.
 Gaussian 16:  ES64L-G16RevC.01  3-Jul-2019

 ----------------------------------------------------------------------
 #t hf aug-cc-pvdz iop(5/13=1,5/36=2,99/5=2) pseudo=read geom=check gue
 ss=(read,tcheck) scf=(maxcycle=1)
 ----------------------------------------------------------------------
 -----
 title
 -----
 Structure from the checkpoint file:  "E2SN2_412_mol1.chk"
 Charge = -1 Multiplicity = 1

                         Standard orientation:
 ---------------------------------------------------------------------
 Center     Atomic      Atomic             Coordinates (Angstroms)
 Number     Number       Type             X           Y           Z
 ---------------------------------------------------------------------
      1          6           0        0.743836   -0.054066   -0.250575
      2          1           0       -0.548703   -1.309181   -1.460104
      3          9           0        0.312479    0.314489    1.324293
      4          1           0        1.286265   -0.461064   -1.992904
      5          6           0       -0.492034   -0.943089   -0.439518
      6          1           0       -0.373989   -1.789876    0.240785
      7          7           0        1.964197   -0.721333    0.177644
      8          1           0        2.273552   -0.239762    1.015724
      9          1           0        2.632647   -0.640667   -0.569764
     10          7           0        0.652793    1.323042   -0.686906
     11          1           0        1.303671    1.463450   -1.439840
     12          1           0        0.856087    1.906556    0.116412
     13          6           0       -1.746106   -0.257485   -0.115941
     14          7           0       -2.799278    0.222287    0.081729
 ---------------------------------------------------------------------

 SCF Done:  E(RHF) =  -380.773790457     A.U. after    2 cycles

 The electronic state is 1-A.
 Alpha  occ. eigenvalues --  -26.20960 -15.36185 -15.34614 -15.34315 -11.24979
 Alpha  occ. eigenvalues --  -11.14229 -11.12624  -1.30917  -1.07343  -1.06520
 Alpha  occ. eigenvalues --   -1.00188  -0.89937  -0.68965  -0.58609  -0.57446
 Alpha  occ. eigenvalues --   -0.54172  -0.52014  -0.50407  -0.46580  -0.44759
 Alpha  occ. eigenvalues --   -0.37805  -0.37020  -0.35900  -0.35202  -0.33673
 Alpha  occ. eigenvalues --   -0.32114  -0.29651  -0.12006
 Alpha virt. eigenvalues --    0.13584   0.14553   0.15178   0.15910   0.16342
 Alpha virt. eigenvalues --    0.17454   0.19010   0.19157   0.24036   0.24282
 Alpha virt. eigenvalues --    0.25107   0.25947   0.26662   0.27342   0.28247

 Mulliken charges:
               1
     1  C   -3.293095
     2  H    0.227474
     3  F   -0.907722
     4  H   -0.524874
     5  C    0.621319
     6  H    0.332738
     7  N    0.993309
     8  H    0.245567
     9  H    0.276850
    10  N    1.023455
    11  H    0.254079
    12  H    0.290311
    13  C   -1.301925
    14  N    0.762514
 Sum of Mulliken charges =  -1.00000

 Dipole moment (field-independent basis, Debye):
    X=              2.4591    Y=              0.0622    Z=              2.5566  Tot=              3.5479

 Test job not archived.
 1\1\GINC-SE455\SP\RHF\Aug-CC-pVDZ\C3H7F1N3(1-)\OHZDE\09-Apr-2025\0\\#t
  hf aug-cc-pvdz iop(5/13=1,5/36=2,99/5=2) pseudo=read geom=check guess
 =(read,tcheck) scf=(maxcycle=1)\\title\\-1,1\C,0,0.60392654,-0.0910308
 2,0.02161866\H,0,1.73198874,1.76128607,0.09459221\F,0,-1.06842418,-0.0
 5209981,0.08357507\H,0,2.46822434,-0.18733144,-0.08184573\C,0,0.695760
 16,1.44001495,0.05163784\H,0,0.24607387,1.797666,-0.87769729\N,0,0.599
 259,-0.71544855,-1.2929068\H,0,-0.2312017,-1.2976953,-1.32914021\H,0,1
 .44208899,-1.25859323,-1.37404347\N,0,0.71813115,-0.79487787,1.2812441

 Normal termination of Gaussian 16 at Wed Apr  9 02:58:58 2025.
