 Gaussian 16, Revision C.01,

 ----------------------------------------------------------------------
 #t hf aug-cc-pvdz symm=none int=(grid=ultrafine) guess=(read,tcheck) s
 table=(opt,rrhf)
 ----------------------------------------------------------------------
 -----
 title
 -----
 Symbolic Z-matrix:
 Charge = -1 Multiplicity = 1

 SCF Done:  E(RHF) =  -515.187531604     A.U. after   17 cycles
 Normal termination of Gaussian 16 at Wed Apr  9 02:54:45 2025.
 Gaussian 16:  ES64L-G16RevC.01  3-Jul-2019

 ----------------------------------------------------------------------
 #t hf aug-cc-pvdz iop(5/13=1,5/36=2,99/5=2) pseudo=read geom=check gue
 ss=(read,tcheck) scf=(maxcycle=1)
 ----------------------------------------------------------------------
 -----
 title
 -----
 Structure from the checkpoint file:  "E2SN2_343_mol1.chk"
 Charge = -1 Multiplicity = 1

                         Standard orientation:
 ---------------------------------------------------------------------
 Center     Atomic      Atomic             Coordinates (Angstroms)
 Number     Number       Type             X           Y           Z
 ---------------------------------------------------------------------
      1          6           0        1.074589    0.175546   -0.146729
      2          1           0       -0.304088   -0.190214   -1.786077
      3          9           0        0.492838   -0.034421    1.414766
      4          1           0        1.672444    0.261175   -2.069487
      5          6           0       -0.198726   -0.445153   -0.737973
      6          6           0        2.326665   -0.670430    0.048339
      7          1           0        2.560555   -0.707735    1.119557
      8          1           0        2.161121   -1.680140   -0.323173
      9          1           0        3.152879   -0.241539   -0.508477
     10          6           0        1.244283    1.684748   -0.149037
     11          1           0        2.294997    1.927093   -0.306626
     12          1           0        0.669466    2.157987   -0.937445
     13          1           0        0.918242    2.076013    0.820663
     14          7           0       -1.454795    0.235799   -0.087222
     15          8           0       -2.249460   -0.462319    0.541191
     16          8           0       -1.634867    1.426983   -0.329245
     17          7           0       -0.240943   -1.847400   -0.513532
     18          1           0       -1.135172   -2.216352   -0.807795
     19          1           0       -0.162071   -1.980882    0.488068
 ---------------------------------------------------------------------

 SCF Done:  E(RHF) =  -515.705160126     A.U. after    2 cycles

 The electronic state is 1-A.
 Alpha  occ. eigenvalues --  -26.21869 -20.44852 -20.44693 -15.63306 -15.37290
 Alpha  occ. eigenvalues --  -11.20326 -11.19510 -11.08359 -11.08304  -1.51671
 Alpha  occ. eigenvalues --   -1.35550  -1.31130  -1.09725  -0.93650  -0.89152
 Alpha  occ. eigenvalues --   -0.80515  -0.74651  -0.66804  -0.63484  -0.60864
 Alpha  occ. eigenvalues --   -0.58523  -0.56883  -0.51627  -0.47579  -0.45824
 Alpha  occ. eigenvalues --   -0.45164  -0.42314  -0.41150  -0.37453  -0.37295
 Alpha  occ. eigenvalues --   -0.35801  -0.35297  -0.34588  -0.34159  -0.31711
 Alpha  occ. eigenvalues --   -0.30868  -0.09656
 Alpha virt. eigenvalues --    0.13235   0.13560   0.13986   0.15136   0.15279
 Alpha virt. eigenvalues --    0.16213   0.16279   0.18110   0.18520   0.20310
 Alpha virt. eigenvalues --    0.21178   0.23189   0.23760   0.24450   0.24781

 Mulliken charges:
               1
     1  C   -0.231357
     2  H   -0.001324
     3  F   -0.971636
     4  H   -0.531796
     5  C   -1.807636
     6  C   -0.346145
     7  H    0.320184
     8  H    0.275801
     9  H    0.089029
    10  C   -0.060257
    11  H    0.184861
    12  H    0.246007
    13  H    0.312070
    14  N    3.067946
    15  O   -1.476338
    16  O   -1.538729
    17  N    0.794712
    18  H    0.245582
    19  H    0.429024
 Sum of Mulliken charges =  -1.00000

 Dipole moment (field-independent basis, Debye):
    X=             -2.4374    Y=             -1.6684    Z=              3.3708  Tot=              4.4818

 Test job not archived.
 1\1\GINC-SE455\SP\RHF\Aug-CC-pVDZ\C4H10F1N2O2(1-)\OHZDE\09-Apr-2025\0\
 \#t hf aug-cc-pvdz iop(5/13=1,5/36=2,99/5=2) pseudo=read geom=check gu
 ess=(read,tcheck) scf=(maxcycle=1)\\title\\-1,1\C,0,0.51433098,-0.0504
 9643,0.00938364\H,0,1.679663,1.74059645,0.40432793\F,0,-1.15795241,0.1
 0375587,-0.01214887\H,0,2.52830808,-0.06228522,-0.06489336\C,0,0.68540
 327,1.47389724,0.06530431\C,0,0.61047496,-0.78958258,-1.31949837\H,0,-
 0.35472369,-1.2694237,-1.52382249\H,0,0.84757096,-0.09325371,-2.121901
 84\H,0,1.40289714,-1.52895911,-1.27463717\C,0,0.67306358,-0.87020919,1

 Normal termination of Gaussian 16 at Wed Apr  9 02:54:55 2025.
