 Gaussian 16, Revision C.01,

 ----------------------------------------------------------------------
 #t hf aug-cc-pvdz symm=none int=(grid=ultrafine) guess=(read,tcheck) s
 table=(opt,rrhf)
 ----------------------------------------------------------------------
 -----
 title
 -----
 Symbolic Z-matrix:
 Charge = -1 Multiplicity = 1

 SCF Done:  E(RHF) =  -891.254801807     A.U. after   18 cycles
 Normal termination of Gaussian 16 at Wed Apr  9 02:36:43 2025.
 Gaussian 16:  ES64L-G16RevC.01  3-Jul-2019

 ----------------------------------------------------------------------
 #t hf aug-cc-pvdz iop(5/13=1,5/36=2,99/5=2) pseudo=read geom=check gue
 ss=(read,tcheck) scf=(maxcycle=1)
 ----------------------------------------------------------------------
 -----
 title
 -----
 Structure from the checkpoint file:  "E2SN2_131_mol1.chk"
 Charge = -1 Multiplicity = 1

                         Standard orientation:
 ---------------------------------------------------------------------
 Center     Atomic      Atomic             Coordinates (Angstroms)
 Number     Number       Type             X           Y           Z
 ---------------------------------------------------------------------
      1          6           0        0.010671    0.080074    0.406601
      2          6           0       -0.992596   -0.801230   -0.200264
      3         17           0       -0.110424    1.953162   -0.207583
      4          1           0       -0.656432   -2.584528    1.501047
      5          1           0       -0.749454   -1.835986    0.493496
      6          7           0        0.018312    0.113404    1.817998
      7          1           0       -0.099278   -0.879897    2.105663
      8          1           0       -0.806142    0.619205    2.116758
      9          7           0        1.400741   -0.358575   -0.053862
     10          8           0        1.722461   -0.159522   -1.224554
     11          8           0        2.075108   -0.978998    0.764445
     12          7           0       -0.946099   -1.050609   -1.628380
     13          1           0       -0.127881   -1.606987   -1.845597
     14          1           0       -0.818262   -0.165647   -2.113366
     15          6           0       -2.399304   -0.489824    0.270368
     16          1           0       -2.515525   -0.749889    1.327532
     17          1           0       -2.670980    0.561939    0.118220
     18          1           0       -3.082707   -1.117463   -0.304489
 ---------------------------------------------------------------------

 SCF Done:  E(RHF) =  -891.776338535     A.U. after    2 cycles

 The electronic state is 1-A.
 Alpha  occ. eigenvalues -- -105.42329 -20.47004 -20.46274 -15.65854 -15.37773
 Alpha  occ. eigenvalues --  -15.35843 -11.27216 -11.11615 -11.09864 -10.47081
 Alpha  occ. eigenvalues --   -7.63975  -7.63673  -7.63669  -1.53643  -1.37550
 Alpha  occ. eigenvalues --   -1.13215  -1.05498  -0.95142  -0.88572  -0.87842
 Alpha  occ. eigenvalues --   -0.75390  -0.69421  -0.63211  -0.62596  -0.60844
 Alpha  occ. eigenvalues --   -0.57911  -0.56398  -0.54749  -0.48287  -0.43262
 Alpha  occ. eigenvalues --   -0.41611  -0.40696  -0.38007  -0.37437  -0.36555
 Alpha  occ. eigenvalues --   -0.34448  -0.33249  -0.32827  -0.31220  -0.29909
 Alpha  occ. eigenvalues --   -0.11106
 Alpha virt. eigenvalues --    0.13174   0.13718   0.14273   0.14800   0.16255
 Alpha virt. eigenvalues --    0.16861   0.17735   0.18394   0.18911   0.20085
 Alpha virt. eigenvalues --    0.21880   0.22786   0.24253   0.24718   0.25989

 Mulliken charges:
               1
     1  C   -2.387163
     2  C   -1.856567
     3  Cl  -0.195501
     4  H   -0.405471
     5  H    0.216043
     6  N    0.961750
     7  H    0.334990
     8  H    0.299914
     9  N    3.328040
    10  O   -1.592255
    11  O   -1.475205
    12  N    0.816426
    13  H    0.278901
    14  H    0.173166
    15  C   -0.027254
    16  H    0.162965
    17  H    0.251495
    18  H    0.115726
 Sum of Mulliken charges =  -1.00000

 Dipole moment (field-independent basis, Debye):
    X=             -0.7895    Y=              5.6715    Z=             -2.5768  Tot=              6.2793

 Test job not archived.
 1\1\GINC-SE364\SP\RHF\Aug-CC-pVDZ\C3H9Cl1N3O2(1-)\OHZDE\09-Apr-2025\0\
 \#t hf aug-cc-pvdz iop(5/13=1,5/36=2,99/5=2) pseudo=read geom=check gu
 ess=(read,tcheck) scf=(maxcycle=1)\\title\\-1,1\C,0,-0.18658216,0.0003
 6335,-0.220258\C,0,-0.15805133,0.00588795,1.2462628\Cl,0,1.60217709,0.
 14778243,-1.04424394\H,0,-2.47323869,-0.8845629,1.43233087\H,0,-1.3861
 1121,-0.25034723,1.43953219\N,0,-0.81801004,-1.11456492,-0.81308513\H,
 0,-1.67093464,-1.27118799,-0.23757195\H,0,-0.21044319,-1.9141851,-0.68
 546341\N,0,-0.90992218,1.25570601,-0.70772966\O,0,-0.35122515,2.344128

 Normal termination of Gaussian 16 at Wed Apr  9 02:36:52 2025.
