 Gaussian 16, Revision C.01,

 ----------------------------------------------------------------------
 #t hf aug-cc-pvdz symm=none int=(grid=ultrafine) guess=(read,tcheck) s
 table=(opt,rrhf)
 ----------------------------------------------------------------------
 -----
 title
 -----
 Symbolic Z-matrix:
 Charge = -1 Multiplicity = 1

 SCF Done:  E(RHF) =  -1331.96601751     A.U. after   17 cycles
 Normal termination of Gaussian 16 at Wed Apr  9 02:49:51 2025.
 Gaussian 16:  ES64L-G16RevC.01  3-Jul-2019

 ----------------------------------------------------------------------
 #t hf aug-cc-pvdz iop(5/13=1,5/36=2,99/5=2) pseudo=read geom=check gue
 ss=(read,tcheck) scf=(maxcycle=1)
 ----------------------------------------------------------------------
 -----
 title
 -----
 Structure from the checkpoint file:  "E2SN2_277_mol1.chk"
 Charge = -1 Multiplicity = 1

                         Standard orientation:
 ---------------------------------------------------------------------
 Center     Atomic      Atomic             Coordinates (Angstroms)
 Number     Number       Type             X           Y           Z
 ---------------------------------------------------------------------
      1          6           0       -0.480290    0.438140   -0.302665
      2          1           0        0.982343   -0.246343   -1.707513
      3         17           0       -2.402755   -0.951259   -0.198778
      4         17           0        1.494258    1.774697   -0.111545
      5          6           0        0.379999   -0.656617   -0.902955
      6          1           0       -0.242345   -1.472826   -1.267228
      7          6           0       -0.670811    0.674624    1.101702
      8          7           0       -0.896315    0.967075    2.220670
      9          6           0       -1.169362    1.348588   -1.305008
     10          1           0       -0.476479    2.091001   -1.694131
     11          1           0       -1.566447    0.746567   -2.122194
     12          1           0       -2.011022    1.842982   -0.823024
     13          7           0        1.348151   -1.303394    0.024209
     14          8           0        2.375724   -1.735996   -0.494361
     15          8           0        1.029069   -1.443252    1.197982
 ---------------------------------------------------------------------

 SCF Done:  E(RHF) =  -1332.52275578     A.U. after    2 cycles

 The electronic state is 1-A.
 Alpha  occ. eigenvalues -- -105.35849-105.35410 -20.48365 -20.47924 -15.67981
 Alpha  occ. eigenvalues --  -15.39392 -11.29815 -11.21872 -11.17918 -11.15171
 Alpha  occ. eigenvalues --  -10.40638 -10.40218  -7.57459  -7.57300  -7.57289
 Alpha  occ. eigenvalues --   -7.57037  -7.56880  -7.56873  -1.55463  -1.39398
 Alpha  occ. eigenvalues --   -1.10194  -1.05838  -0.96660  -0.83121  -0.83013
 Alpha  occ. eigenvalues --   -0.79621  -0.77972  -0.68774  -0.64788  -0.64378
 Alpha  occ. eigenvalues --   -0.55877  -0.53866  -0.51912  -0.49109  -0.48253
 Alpha  occ. eigenvalues --   -0.45883  -0.41607  -0.39350  -0.37851  -0.35949
 Alpha  occ. eigenvalues --   -0.33708  -0.29651  -0.28339  -0.28161  -0.27429
 Alpha  occ. eigenvalues --   -0.26813  -0.25688
 Alpha virt. eigenvalues --    0.12299   0.13386   0.14122   0.15234   0.15459
 Alpha virt. eigenvalues --    0.15878   0.17698   0.19258   0.19962   0.21097
 Alpha virt. eigenvalues --    0.22209   0.23419   0.24457   0.24951   0.25131

 Mulliken charges:
               1
     1  C   -0.381279
     2  H    0.232067
     3  Cl  -0.589810
     4  Cl  -0.635123
     5  C    0.130490
     6  H    0.251923
     7  C   -1.844530
     8  N    1.032635
     9  C    0.124192
    10  H    0.239713
    11  H    0.244030
    12  H    0.212455
    13  N    2.803852
    14  O   -1.475341
    15  O   -1.345275
 Sum of Mulliken charges =  -1.00000

 Dipole moment (field-independent basis, Debye):
    X=             -0.0821    Y=             -0.6417    Z=             -5.8271  Tot=              5.8629

 Test job not archived.
 1\1\GINC-SE042\SP\RHF\Aug-CC-pVDZ\C4H5Cl2N2O2(1-)\OHZDE\09-Apr-2025\0\
 \#t hf aug-cc-pvdz iop(5/13=1,5/36=2,99/5=2) pseudo=read geom=check gu
 ess=(read,tcheck) scf=(maxcycle=1)\\title\\-1,1\C,0,0.49591288,-0.0858
 6159,-0.00689475\H,0,1.26075518,1.8132116,0.61756365\Cl,0,-1.8350807,-
 0.32879975,0.37329432\Cl,0,2.78112078,0.11432575,-0.68475936\C,0,0.428
 8414,1.42827165,0.03601566\H,0,-0.51962878,1.75520266,0.45995408\C,0,0
 .31060228,-0.89687499,-1.17838422\N,0,0.183757,-1.6605148,-2.06677198\
 C,0,0.80167294,-0.76228873,1.31876881\H,0,1.86432477,-0.71043756,1.544

 Normal termination of Gaussian 16 at Wed Apr  9 02:49:59 2025.
