 Gaussian 16, Revision C.01,

 ----------------------------------------------------------------------
 #t hf aug-cc-pvdz symm=none int=(grid=ultrafine) guess=(read,tcheck) s
 table=(opt,rrhf)
 ----------------------------------------------------------------------
 -----
 title
 -----
 Symbolic Z-matrix:
 Charge = -1 Multiplicity = 1

 SCF Done:  E(RHF) =  -839.438311298     A.U. after   15 cycles
 Normal termination of Gaussian 16 at Wed Apr  9 03:02:11 2025.
 Gaussian 16:  ES64L-G16RevC.01  3-Jul-2019

 ----------------------------------------------------------------------
 #t hf aug-cc-pvdz iop(5/13=1,5/36=2,99/5=2) pseudo=read geom=check gue
 ss=(read,tcheck) scf=(maxcycle=1)
 ----------------------------------------------------------------------
 -----
 title
 -----
 Structure from the checkpoint file:  "E2SN2_81_mol2.chk"
 Charge = -1 Multiplicity = 1

                         Standard orientation:
 ---------------------------------------------------------------------
 Center     Atomic      Atomic             Coordinates (Angstroms)
 Number     Number       Type             X           Y           Z
 ---------------------------------------------------------------------
      1          6           0       -0.674898   -0.217547    0.207129
      2          6           0        0.581476   -0.882552   -0.406079
      3         17           0       -0.383967    1.611485    0.286248
      4          1           0        0.934715   -0.284973   -1.246988
      5          1           0        0.233761   -1.861178   -0.765353
      6          6           0       -1.852100   -0.370190   -0.653260
      7          7           0       -2.781880   -0.531703   -1.353299
      8          7           0       -0.901962   -0.785910    1.481509
      9          1           0       -1.525444   -0.219182    2.040973
     10          1           0        0.037199   -0.837994    1.890950
     11          7           0        1.613739   -0.962442    0.603767
     12          1           0        1.937091   -1.920818    0.653251
     13          1           0        2.417103   -0.368874    0.146547
     14          9           0        3.184097    0.319989   -0.844020
 ---------------------------------------------------------------------

 SCF Done:  E(RHF) =  -839.894271666     A.U. after    2 cycles

 The electronic state is 1-A.
 Alpha  occ. eigenvalues -- -105.43599 -26.09203 -15.41666 -15.39506 -15.31422
 Alpha  occ. eigenvalues --  -11.25185 -11.18684 -11.13631 -10.48459  -7.65377
 Alpha  occ. eigenvalues --   -7.65022  -7.65015  -1.16140  -1.14463  -1.10905
 Alpha  occ. eigenvalues --   -1.01730  -0.95044  -0.84811  -0.74301  -0.64044
 Alpha  occ. eigenvalues --   -0.57733  -0.56389  -0.51936  -0.50184  -0.47132
 Alpha  occ. eigenvalues --   -0.46342  -0.40685  -0.40038  -0.38723  -0.35391
 Alpha  occ. eigenvalues --   -0.33187  -0.32584  -0.29897  -0.25615  -0.25497
 Alpha  occ. eigenvalues --   -0.23889
 Alpha virt. eigenvalues --    0.12416   0.13953   0.14866   0.16486   0.17003
 Alpha virt. eigenvalues --    0.18454   0.18658   0.19670   0.22468   0.22761
 Alpha virt. eigenvalues --    0.23346   0.24339   0.24825   0.25195   0.26711

 Mulliken charges:
               1
     1  C   -1.589216
     2  C   -0.275399
     3  Cl   0.031710
     4  H    0.151356
     5  H    0.109507
     6  C   -1.144484
     7  N    0.813721
     8  N    0.680809
     9  H    0.181337
    10  H    0.316644
    11  N    0.059158
    12  H    0.235744
    13  H    0.448675
    14  F   -1.019560
 Sum of Mulliken charges =  -1.00000

 Dipole moment (field-independent basis, Debye):
    X=             -6.2536    Y=             -1.5068    Z=              4.2434  Tot=              7.7061

 Test job not archived.
 1\1\GINC-SE362\SP\RHF\Aug-CC-pVDZ\C3H6Cl1F1N3(1-)\OHZDE\09-Apr-2025\0\
 \#t hf aug-cc-pvdz iop(5/13=1,5/36=2,99/5=2) pseudo=read geom=check gu
 ess=(read,tcheck) scf=(maxcycle=1)\\title\\-1,1\C,0,-0.639735,-0.04329
 4,-1.505727\C,0,0.014903,-0.158687,-0.107563\Cl,0,0.445649,1.018084,-2
 .56953\H,0,1.089244,-0.306915,-0.220818\H,0,-0.438638,-1.053284,0.3415
 37\C,0,-0.689374,-1.335222,-2.19698\N,0,-0.736897,-2.38959,-2.713394\N
 ,0,-1.936825,0.496014,-1.34653\H,0,-2.307833,0.848469,-2.218905\H,0,-1
 .801628,1.245174,-0.658883\N,0,-0.234592,1.058663,0.632403\H,0,-0.6401

 Normal termination of Gaussian 16 at Wed Apr  9 03:02:16 2025.
