 Gaussian 16, Revision C.01,

 ----------------------------------------------------------------------
 #t hf aug-cc-pvdz symm=none int=(grid=ultrafine) guess=(read,tcheck) s
 table=(opt,rrhf)
 ----------------------------------------------------------------------
 -----
 title
 -----
 Symbolic Z-matrix:
 Charge = -1 Multiplicity = 1

 SCF Done:  E(RHF) =  -571.087411709     A.U. after   16 cycles
 Normal termination of Gaussian 16 at Wed Apr  9 02:52:25 2025.
 Gaussian 16:  ES64L-G16RevC.01  3-Jul-2019

 ----------------------------------------------------------------------
 #t hf aug-cc-pvdz iop(5/13=1,5/36=2,99/5=2) pseudo=read geom=check gue
 ss=(read,tcheck) scf=(maxcycle=1)
 ----------------------------------------------------------------------
 -----
 title
 -----
 Structure from the checkpoint file:  "E2SN2_312_mol1.chk"
 Charge = -1 Multiplicity = 1

                         Standard orientation:
 ---------------------------------------------------------------------
 Center     Atomic      Atomic             Coordinates (Angstroms)
 Number     Number       Type             X           Y           Z
 ---------------------------------------------------------------------
      1          6           0       -0.435317   -0.343066    0.082333
      2          1           0        0.645479   -0.068143   -1.725324
      3          9           0        0.099357    0.469303    1.555423
      4          9           0       -1.121365   -1.101448   -1.432519
      5          6           0        0.705687    0.304251   -0.704197
      6          6           0       -1.716997    0.354778    0.175695
      7          7           0       -2.767094    0.859907    0.326985
      8          7           0       -0.235208   -1.640360    0.646664
      9          1           0       -0.913162   -2.255002    0.221844
     10          1           0       -0.349791   -1.564688    1.646889
     11          6           0        2.002881   -0.128158   -0.137661
     12          7           0        3.103003   -0.367244    0.198685
     13          7           0        0.551305    1.752650   -0.713312
     14          1           0        1.324268    2.171320   -1.216485
     15          1           0        0.589713    2.044315    0.256784
 ---------------------------------------------------------------------

 SCF Done:  E(RHF) =  -571.637761922     A.U. after    2 cycles

 The electronic state is 1-A.
 Alpha  occ. eigenvalues --  -26.21262 -26.18404 -15.38667 -15.38193 -15.37519
 Alpha  occ. eigenvalues --  -15.37337 -11.28965 -11.18935 -11.16083 -11.15643
 Alpha  occ. eigenvalues --   -1.30760  -1.27123  -1.10789  -1.08412  -1.07374
 Alpha  occ. eigenvalues --   -1.06731  -0.89087  -0.80049  -0.63252  -0.61510
 Alpha  occ. eigenvalues --   -0.60533  -0.59392  -0.52051  -0.49279  -0.48236
 Alpha  occ. eigenvalues --   -0.47118  -0.44574  -0.39262  -0.38145  -0.37644
 Alpha  occ. eigenvalues --   -0.37091  -0.36020  -0.35172  -0.34866  -0.33590
 Alpha  occ. eigenvalues --   -0.33283  -0.32157  -0.30715
 Alpha virt. eigenvalues --    0.12904   0.13824   0.14605   0.16274   0.16677
 Alpha virt. eigenvalues --    0.17666   0.19142   0.21999   0.22559   0.22933
 Alpha virt. eigenvalues --    0.23820   0.25041   0.25776   0.26333   0.26507

 Mulliken charges:
               1
     1  C    0.856509
     2  H    0.191580
     3  F   -0.875926
     4  F   -0.907514
     5  C   -0.752886
     6  C   -2.630155
     7  N    1.166382
     8  N    0.705944
     9  H    0.351011
    10  H    0.372704
    11  C   -1.565163
    12  N    0.982498
    13  N    0.688216
    14  H    0.125622
    15  H    0.291177
 Sum of Mulliken charges =  -1.00000

 Dipole moment (field-independent basis, Debye):
    X=              1.8392    Y=              0.2364    Z=             -0.6060  Tot=              1.9508

 Test job not archived.
 1\1\GINC-SE403\SP\RHF\Aug-CC-pVDZ\C4H5F2N4(1-)\OHZDE\09-Apr-2025\0\\#t
  hf aug-cc-pvdz iop(5/13=1,5/36=2,99/5=2) pseudo=read geom=check guess
 =(read,tcheck) scf=(maxcycle=1)\\title\\-1,1\C,0,0.66843631,-0.0396051
 4,0.0141352\H,0,1.73456312,1.79641262,0.07527794\F,0,-1.09658215,-0.02
 799759,-0.00558992\F,0,2.49043444,-0.11953676,-0.1063467\C,0,0.6912193
 1,1.48973046,0.02648131\C,0,0.6673468,-0.73809267,-1.27059102\N,0,0.63
 350448,-1.37708954,-2.25612827\N,0,0.71540536,-0.74038653,1.2583954\H,
 0,1.55463398,-1.30030661,1.25049348\H,0,-0.12399728,-1.29635594,1.3332

 Normal termination of Gaussian 16 at Wed Apr  9 02:52:33 2025.
