 Gaussian 16, Revision C.01,

 ----------------------------------------------------------------------
 #t hf aug-cc-pvdz symm=none int=(grid=ultrafine) guess=(read,tcheck) s
 table=(opt,rrhf)
 ----------------------------------------------------------------------
 -----
 title
 -----
 Symbolic Z-matrix:
 Charge = -1 Multiplicity = 1

 SCF Done:  E(RHF) =  -461.011409290     A.U. after   15 cycles
 Normal termination of Gaussian 16 at Wed Apr  9 02:39:30 2025.
 Gaussian 16:  ES64L-G16RevC.01  3-Jul-2019

 ----------------------------------------------------------------------
 #t hf aug-cc-pvdz iop(5/13=1,5/36=2,99/5=2) pseudo=read geom=check gue
 ss=(read,tcheck) scf=(maxcycle=1)
 ----------------------------------------------------------------------
 -----
 title
 -----
 Structure from the checkpoint file:  "E2SN2_177_mol1.chk"
 Charge = -1 Multiplicity = 1

                         Standard orientation:
 ---------------------------------------------------------------------
 Center     Atomic      Atomic             Coordinates (Angstroms)
 Number     Number       Type             X           Y           Z
 ---------------------------------------------------------------------
      1          6           0        0.634391   -0.357969    0.488405
      2          1           0       -0.386633   -1.803054   -0.729182
      3          9           0       -0.312840    0.618125    1.634984
      4          9           0        1.684931   -1.335435   -0.525607
      5          6           0       -0.625204   -1.095259    0.063060
      6          1           0        1.202644   -0.697830    1.334398
      7          1           0       -0.996005   -1.635183    0.936082
      8          6           0        1.054006    0.841938   -0.209633
      9          7           0        1.400574    1.808010   -0.779762
     10          6           0       -1.698536   -0.210438   -0.389697
     11          7           0       -2.594397    0.409451   -0.825739
 ---------------------------------------------------------------------

 SCF Done:  E(RHF) =  -461.448004394     A.U. after    2 cycles

 The electronic state is 1-A.
 Alpha  occ. eigenvalues --  -26.19502 -26.18518 -15.38463 -15.37442 -11.25190
 Alpha  occ. eigenvalues --  -11.16477 -11.16283 -11.15486  -1.28395  -1.26674
 Alpha  occ. eigenvalues --   -1.09157  -1.07730  -0.95525  -0.82064  -0.63756
 Alpha  occ. eigenvalues --   -0.56142  -0.53255  -0.51061  -0.47318  -0.46184
 Alpha  occ. eigenvalues --   -0.44309  -0.38724  -0.37071  -0.36345  -0.35083
 Alpha  occ. eigenvalues --   -0.34533  -0.34133  -0.33447  -0.32386  -0.29009
 Alpha virt. eigenvalues --    0.13368   0.14461   0.15137   0.17605   0.19628
 Alpha virt. eigenvalues --    0.22004   0.22510   0.23956   0.24795   0.25083
 Alpha virt. eigenvalues --    0.25833   0.26432   0.26668   0.26933   0.28964

 Mulliken charges:
               1
     1  C    1.891912
     2  H    0.292200
     3  F   -0.861879
     4  F   -0.882593
     5  C    0.054880
     6  H   -0.120543
     7  H    0.348510
     8  C   -2.050279
     9  N    0.900669
    10  C   -1.420804
    11  N    0.847926
 Sum of Mulliken charges =  -1.00000

 Dipole moment (field-independent basis, Debye):
    X=             -0.4351    Y=             -5.0081    Z=              1.8062  Tot=              5.3416

 Test job not archived.
 1\1\GINC-SE024\SP\RHF\Aug-CC-pVDZ\C4H3F2N2(1-)\OHZDE\09-Apr-2025\0\\#t
  hf aug-cc-pvdz iop(5/13=1,5/36=2,99/5=2) pseudo=read geom=check guess
 =(read,tcheck) scf=(maxcycle=1)\\title\\-1,1\C,0,0.66740169,-0.0579786
 7,0.01984362\H,0,1.74054867,1.80152679,0.08209774\F,0,-1.11085349,-0.0
 2208363,0.05402163\F,0,2.41137901,-0.21274465,-0.12810301\C,0,0.706672
 7,1.46142293,0.05099302\H,0,0.58266315,-0.57961049,-0.91548563\H,0,0.2
 3219806,1.8174669,-0.86513175\C,0,0.6907378,-0.81859927,1.25435616\N,0
 ,0.71938348,-1.43629173,2.25239775\C,0,-0.02544062,2.04448215,1.175266

 Normal termination of Gaussian 16 at Wed Apr  9 02:39:34 2025.
