 Gaussian 16, Revision C.01,

 ----------------------------------------------------------------------
 #t hf aug-cc-pvdz symm=none int=(grid=ultrafine) guess=(read,tcheck) s
 table=(opt,rrhf)
 ----------------------------------------------------------------------
 -----
 title
 -----
 Symbolic Z-matrix:
 Charge = -1 Multiplicity = 1

 SCF Done:  E(RHF) =  -479.357217335     A.U. after   15 cycles
 Normal termination of Gaussian 16 at Wed Apr  9 02:42:00 2025.
 Gaussian 16:  ES64L-G16RevC.01  3-Jul-2019

 ----------------------------------------------------------------------
 #t hf aug-cc-pvdz iop(5/13=1,5/36=2,99/5=2) pseudo=read geom=check gue
 ss=(read,tcheck) scf=(maxcycle=1)
 ----------------------------------------------------------------------
 -----
 title
 -----
 Structure from the checkpoint file:  "E2SN2_206_mol1.chk"
 Charge = -1 Multiplicity = 1

                         Standard orientation:
 ---------------------------------------------------------------------
 Center     Atomic      Atomic             Coordinates (Angstroms)
 Number     Number       Type             X           Y           Z
 ---------------------------------------------------------------------
      1          6           0        0.707587    0.164603   -0.397948
      2          1           0       -0.240733    0.925512    1.330240
      3          9           0        0.229295   -1.387200   -1.133356
      4          9           0        1.174500    1.864100    0.103346
      5          6           0       -0.428358    0.113112    0.629053
      6          1           0        0.559441    0.602109   -1.370757
      7          7           0        1.967514   -0.349684    0.059008
      8          1           0        2.604355    0.433326    0.028593
      9          1           0        2.235569   -1.075566   -0.589624
     10          7           0       -0.523389   -1.143524    1.370826
     11          1           0        0.382156   -1.230609    1.823640
     12          1           0       -0.507359   -1.846787    0.636198
     13          6           0       -1.709913    0.388222   -0.032847
     14          7           0       -2.741766    0.622393   -0.540942
 ---------------------------------------------------------------------

 SCF Done:  E(RHF) =  -479.829416180     A.U. after    2 cycles

 The electronic state is 1-A.
 Alpha  occ. eigenvalues --  -26.17837 -26.15572 -15.37285 -15.35304 -15.35221
 Alpha  occ. eigenvalues --  -11.22241 -11.15875 -11.14636  -1.26835  -1.23799
 Alpha  occ. eigenvalues --   -1.08725  -1.06178  -1.03623  -0.86053  -0.71446
 Alpha  occ. eigenvalues --   -0.60731  -0.56885  -0.55486  -0.52123  -0.50387
 Alpha  occ. eigenvalues --   -0.47019  -0.44727  -0.37929  -0.36268  -0.35907
 Alpha  occ. eigenvalues --   -0.34596  -0.34026  -0.32848  -0.32161  -0.31142
 Alpha  occ. eigenvalues --   -0.30222  -0.27584
 Alpha virt. eigenvalues --    0.13464   0.14881   0.15726   0.16060   0.16452
 Alpha virt. eigenvalues --    0.17334   0.19533   0.23203   0.23536   0.24541
 Alpha virt. eigenvalues --    0.25083   0.26228   0.26927   0.28130   0.29022

 Mulliken charges:
               1
     1  C   -0.026895
     2  H    0.230076
     3  F   -0.931773
     4  F   -0.936001
     5  C   -0.592734
     6  H   -0.037183
     7  N    0.314456
     8  H    0.339792
     9  H    0.304366
    10  N    0.413650
    11  H    0.283152
    12  H    0.294735
    13  C   -1.549296
    14  N    0.893655
 Sum of Mulliken charges =  -1.00000

 Dipole moment (field-independent basis, Debye):
    X=              3.4315    Y=             -1.8276    Z=              1.3883  Tot=              4.1282

 Test job not archived.
 1\1\GINC-SE273\SP\RHF\Aug-CC-pVDZ\C3H6F2N3(1-)\OHZDE\09-Apr-2025\0\\#t
  hf aug-cc-pvdz iop(5/13=1,5/36=2,99/5=2) pseudo=read geom=check guess
 =(read,tcheck) scf=(maxcycle=1)\\title\\-1,1\C,0,0.6859667,0.02502293,
 0.07026225\H,0,1.73793621,1.85501702,-0.02675414\F,0,-1.07266338,-0.04
 086181,0.35409108\F,0,2.44424843,-0.07445751,-0.43584293\C,0,0.6907206
 2,1.55513241,-0.01033542\H,0,0.50648418,-0.57813555,-0.80363868\N,0,0.
 99480956,-0.51923402,1.36220441\H,0,1.84544314,-1.04814718,1.23464947\
 H,0,0.21953523,-1.11327357,1.61823165\N,0,0.02068273,2.22654974,1.1026

 Normal termination of Gaussian 16 at Wed Apr  9 02:42:06 2025.
