 Gaussian 16, Revision C.01,

 ----------------------------------------------------------------------
 #t hf aug-cc-pvdz symm=none int=(grid=ultrafine) guess=(read,tcheck) s
 table=(opt,rrhf)
 ----------------------------------------------------------------------
 -----
 title
 -----
 Symbolic Z-matrix:
 Charge = -1 Multiplicity = 1

 SCF Done:  E(RHF) =  -473.856482985     A.U. after   17 cycles
 Normal termination of Gaussian 16 at Wed Apr  9 03:00:17 2025.
 Gaussian 16:  ES64L-G16RevC.01  3-Jul-2019

 ----------------------------------------------------------------------
 #t hf aug-cc-pvdz iop(5/13=1,5/36=2,99/5=2) pseudo=read geom=check gue
 ss=(read,tcheck) scf=(maxcycle=1)
 ----------------------------------------------------------------------
 -----
 title
 -----
 Structure from the checkpoint file:  "E2SN2_4_mol2.chk"
 Charge = -1 Multiplicity = 1

                         Standard orientation:
 ---------------------------------------------------------------------
 Center     Atomic      Atomic             Coordinates (Angstroms)
 Number     Number       Type             X           Y           Z
 ---------------------------------------------------------------------
      1          6           0        0.105519    0.305370    0.314376
      2          6           0       -0.885068   -0.788570    0.033612
      3          9           0       -0.071424    1.419099   -0.482278
      4          1           0       -0.721201   -1.445903    0.891207
      5          1           0        0.108240    0.571718    1.370073
      6          1           0       -0.660118   -1.294843   -0.905229
      7          7           0        1.516046   -0.149057    0.016665
      8          8           0        2.403305    0.529241    0.525230
      9          8           0        1.690493   -1.077833   -0.768137
     10          6           0       -2.243340   -0.269929    0.020387
     11          7           0       -3.350492    0.122013    0.017195
     12          1           0        0.143968   -1.506053    2.480424
 ---------------------------------------------------------------------

 SCF Done:  E(RHF) =  -474.310886600     A.U. after    2 cycles

 The electronic state is 1-A.
 Alpha  occ. eigenvalues --  -26.38176 -20.48917 -20.48741 -15.67944 -15.40950
 Alpha  occ. eigenvalues --  -11.28686 -11.18525 -11.16158  -1.56033  -1.50559
 Alpha  occ. eigenvalues --   -1.39774  -1.11542  -1.02884  -0.92138  -0.76234
 Alpha  occ. eigenvalues --   -0.69142  -0.66397  -0.65433  -0.60892  -0.59156
 Alpha  occ. eigenvalues --   -0.56527  -0.53820  -0.49534  -0.48546  -0.45503
 Alpha  occ. eigenvalues --   -0.39333  -0.38551  -0.37611  -0.37215  -0.34104
 Alpha  occ. eigenvalues --   -0.10185
 Alpha virt. eigenvalues --    0.13444   0.15639   0.16260   0.17002   0.19104
 Alpha virt. eigenvalues --    0.20616   0.22081   0.22761   0.22780   0.23844
 Alpha virt. eigenvalues --    0.24189   0.25863   0.26146   0.26473   0.27196

 Mulliken charges:
               1
     1  C    0.631831
     2  C   -0.293874
     3  F   -0.856516
     4  H    0.339572
     5  H    0.140815
     6  H    0.280726
     7  N    2.791109
     8  O   -1.424397
     9  O   -1.412721
    10  C   -1.222612
    11  N    0.778620
    12  H   -0.752552
 Sum of Mulliken charges =  -1.00000

 Dipole moment (field-independent basis, Debye):
    X=              1.1942    Y=              3.8740    Z=             -8.1102  Tot=              9.0669

 Test job not archived.
 1\1\GINC-SE016\SP\RHF\Aug-CC-pVDZ\C3H4F1N2O2(1-)\OHZDE\09-Apr-2025\0\\
 #t hf aug-cc-pvdz iop(5/13=1,5/36=2,99/5=2) pseudo=read geom=check gue
 ss=(read,tcheck) scf=(maxcycle=1)\\title\\-1,1\C,0,-0.209902,0.117204,
 -1.383307\C,0,-0.097508,-0.046811,0.10574\F,0,-1.483457,0.448872,-1.80
 0933\H,0,0.987594,-0.074604,0.232976\H,0,0.525543,0.827729,-1.757095\H
 ,0,-0.561569,-0.97565,0.43777\N,0,0.093616,-1.17994,-2.097463\O,0,0.36
 1279,-1.071135,-3.290137\O,0,-0.036019,-2.239823,-1.490163\C,0,-0.6795
 4,1.090429,0.799995\N,0,-1.131768,2.003638,1.383908\H,0,2.525151,0.193

 Normal termination of Gaussian 16 at Wed Apr  9 03:00:23 2025.
