 Gaussian 16, Revision C.01,

 ----------------------------------------------------------------------
 #t hf aug-cc-pvdz symm=none int=(grid=ultrafine) guess=(read,tcheck) s
 table=(opt,rrhf)
 ----------------------------------------------------------------------
 -----
 title
 -----
 Symbolic Z-matrix:
 Charge = -1 Multiplicity = 1

 SCF Done:  E(RHF) =  -816.191684242     A.U. after   17 cycles
 Normal termination of Gaussian 16 at Wed Apr  9 03:02:15 2025.
 Gaussian 16:  ES64L-G16RevC.01  3-Jul-2019

 ----------------------------------------------------------------------
 #t hf aug-cc-pvdz iop(5/13=1,5/36=2,99/5=2) pseudo=read geom=check gue
 ss=(read,tcheck) scf=(maxcycle=1)
 ----------------------------------------------------------------------
 -----
 title
 -----
 Structure from the checkpoint file:  "E2SN2_70_mol1.chk"
 Charge = -1 Multiplicity = 1

                         Standard orientation:
 ---------------------------------------------------------------------
 Center     Atomic      Atomic             Coordinates (Angstroms)
 Number     Number       Type             X           Y           Z
 ---------------------------------------------------------------------
      1          6           0        0.295178    0.010690   -0.118218
      2          6           0       -1.169342    0.056404   -0.436303
      3         17           0        0.641191   -0.187850    1.721919
      4          1           0       -2.367187    0.689666   -2.544567
      5          1           0       -1.352942    0.193728   -1.593678
      6          6           0        0.966202   -1.128745   -0.748767
      7          7           0        1.486436   -2.047010   -1.266784
      8          6           0        0.968145    1.252227   -0.501520
      9          7           0        1.534818    2.228273   -0.828882
     10          7           0       -1.736983    1.283868    0.070675
     11          1           0       -2.296499    1.107167    0.897261
     12          1           0       -2.354808    1.596514   -0.690580
     13          6           0       -1.917639   -1.207474   -0.063743
     14          1           0       -2.075799   -1.281813    1.018597
     15          1           0       -2.886762   -1.149858   -0.569592
     16          1           0       -1.411424   -2.116484   -0.403820
 ---------------------------------------------------------------------

 SCF Done:  E(RHF) =  -816.626384069     A.U. after    2 cycles

 The electronic state is 1-A.
 Alpha  occ. eigenvalues -- -105.47707 -15.43920 -15.42638 -15.35850 -11.28674
 Alpha  occ. eigenvalues --  -11.20998 -11.19887 -11.14305 -11.11516 -10.52448
 Alpha  occ. eigenvalues --   -7.69375  -7.69003  -7.68999  -1.14875  -1.12604
 Alpha  occ. eigenvalues --   -1.08912  -1.02336  -0.90968  -0.86993  -0.73010
 Alpha  occ. eigenvalues --   -0.70139  -0.60797  -0.54185  -0.53172  -0.52551
 Alpha  occ. eigenvalues --   -0.51237  -0.49081  -0.45187  -0.43425  -0.42118
 Alpha  occ. eigenvalues --   -0.41293  -0.39947  -0.38456  -0.36983  -0.36657
 Alpha  occ. eigenvalues --   -0.36141  -0.31854  -0.10587
 Alpha virt. eigenvalues --    0.12362   0.13468   0.14322   0.15061   0.16443
 Alpha virt. eigenvalues --    0.16902   0.17842   0.18502   0.19295   0.19699
 Alpha virt. eigenvalues --    0.21604   0.22365   0.22726   0.22935   0.23823

 Mulliken charges:
               1
     1  C   -0.719930
     2  C   -1.452272
     3  Cl   0.050986
     4  H   -0.591185
     5  H    0.180237
     6  C   -1.083096
     7  N    0.912584
     8  C   -1.051617
     9  N    0.969998
    10  N    0.762658
    11  H    0.216834
    12  H    0.342247
    13  C   -0.114299
    14  H    0.172398
    15  H    0.142301
    16  H    0.262156
 Sum of Mulliken charges =  -1.00000

 Dipole moment (field-independent basis, Debye):
    X=              2.6730    Y=             -3.4004    Z=              9.7255  Tot=             10.6439

 Test job not archived.
 1\1\GINC-SE102\SP\RHF\Aug-CC-pVDZ\C5H7Cl1N3(1-)\OHZDE\09-Apr-2025\0\\#
 t hf aug-cc-pvdz iop(5/13=1,5/36=2,99/5=2) pseudo=read geom=check gues
 s=(read,tcheck) scf=(maxcycle=1)\\title\\-1,1\C,0,-0.14526511,-0.02435
 653,-0.44071407\C,0,-0.29979051,0.00710977,1.0503319\Cl,0,1.65449797,0
 .00341755,-0.99328105\H,0,-2.32304214,0.39205384,2.4782337\H,0,-1.4371
 7708,0.00138572,1.3640265\C,0,-0.69785798,-1.24564183,-1.03171357\N,0,
 -1.15059735,-2.23074223,-1.48646703\C,0,-0.75599375,1.14712271,-1.0698
 9084\N,0,-1.26600597,2.06415951,-1.59893052\N,0,0.10823671,1.29837441,

 Normal termination of Gaussian 16 at Wed Apr  9 03:02:23 2025.
