 Gaussian 16, Revision C.01,

 ----------------------------------------------------------------------
 #t hf aug-cc-pvdz symm=none int=(grid=ultrafine) guess=(read,tcheck) s
 table=(opt,rrhf)
 ----------------------------------------------------------------------
 -----
 title
 -----
 Symbolic Z-matrix:
 Charge = -1 Multiplicity = 1

 SCF Done:  E(RHF) =  -875.298772150     A.U. after   17 cycles
 Normal termination of Gaussian 16 at Wed Apr  9 02:55:29 2025.
 Gaussian 16:  ES64L-G16RevC.01  3-Jul-2019

 ----------------------------------------------------------------------
 #t hf aug-cc-pvdz iop(5/13=1,5/36=2,99/5=2) pseudo=read geom=check gue
 ss=(read,tcheck) scf=(maxcycle=1)
 ----------------------------------------------------------------------
 -----
 title
 -----
 Structure from the checkpoint file:  "E2SN2_344_mol2.chk"
 Charge = -1 Multiplicity = 1

                         Standard orientation:
 ---------------------------------------------------------------------
 Center     Atomic      Atomic             Coordinates (Angstroms)
 Number     Number       Type             X           Y           Z
 ---------------------------------------------------------------------
      1          6           0       -0.925210    0.046844    0.033799
      2          6           0        0.362412    0.637609   -0.554455
      3         17           0       -0.793710   -1.771747   -0.126163
      4          1           0        0.431535    0.320708   -1.602045
      5          6           0       -1.175989    0.392799    1.488712
      6          1           0       -1.325655    1.476271    1.555033
      7          1           0       -0.346570    0.088246    2.122810
      8          1           0       -2.091241   -0.108009    1.817011
      9          6           0       -2.092927    0.501528   -0.825972
     10          1           0       -2.216912    1.583123   -0.684664
     11          1           0       -1.918961    0.268976   -1.880290
     12          1           0       -3.004737   -0.007941   -0.503384
     13          7           0        1.610006   -0.075723    0.021309
     14          8           0        2.365741   -0.602037   -0.800439
     15          8           0        1.819848   -0.031966    1.228645
     16          7           0        0.480753    2.022444   -0.320125
     17          1           0       -0.400300    2.553907   -0.023777
     18          1           0        0.859263    2.495443   -1.130138
     19          1           0       -1.623085    3.421264    0.287785
 ---------------------------------------------------------------------

 SCF Done:  E(RHF) =  -875.803078034     A.U. after    2 cycles

 The electronic state is 1-A.
 Alpha  occ. eigenvalues -- -105.43969 -20.46486 -20.46400 -15.64879 -15.35376
 Alpha  occ. eigenvalues --  -11.21713 -11.20565 -11.11498 -11.10540 -10.48870
 Alpha  occ. eigenvalues --   -7.65793  -7.65470  -7.65454  -1.53149  -1.37117
 Alpha  occ. eigenvalues --   -1.10489  -1.01270  -0.92155  -0.88503  -0.83314
 Alpha  occ. eigenvalues --   -0.76022  -0.68332  -0.63219  -0.62124  -0.59601
 Alpha  occ. eigenvalues --   -0.58052  -0.53996  -0.50466  -0.48544  -0.46059
 Alpha  occ. eigenvalues --   -0.43482  -0.41542  -0.40118  -0.38612  -0.36509
 Alpha  occ. eigenvalues --   -0.35704  -0.33893  -0.33187  -0.32317  -0.30877
 Alpha  occ. eigenvalues --   -0.11244
 Alpha virt. eigenvalues --    0.12573   0.12717   0.13584   0.15069   0.15902
 Alpha virt. eigenvalues --    0.16568   0.17107   0.18190   0.19071   0.19556
 Alpha virt. eigenvalues --    0.21469   0.22120   0.22523   0.23739   0.24680

 Mulliken charges:
               1
     1  C   -1.160975
     2  C   -1.197654
     3  Cl  -0.235641
     4  H    0.033731
     5  C   -0.093167
     6  H    0.280522
     7  H    0.263491
     8  H    0.184715
     9  C    0.171727
    10  H    0.131135
    11  H    0.219535
    12  H    0.169950
    13  N    2.982086
    14  O   -1.487095
    15  O   -1.473402
    16  N    0.803974
    17  H   -0.167313
    18  H    0.260410
    19  H   -0.686029
 Sum of Mulliken charges =  -1.00000

 Dipole moment (field-independent basis, Debye):
    X=              1.2059    Y=             -8.3493    Z=             -2.3635  Tot=              8.7608

 Test job not archived.
 1\1\GINC-SE094\SP\RHF\Aug-CC-pVDZ\C4H10Cl1N2O2(1-)\OHZDE\09-Apr-2025\0
 \\#t hf aug-cc-pvdz iop(5/13=1,5/36=2,99/5=2) pseudo=read geom=check g
 uess=(read,tcheck) scf=(maxcycle=1)\\title\\-1,1\C,0,-0.020404,0.00784
 ,-0.020788\C,0,-0.38311,-0.025895,-1.510862\Cl,0,1.807186,-0.004064,0.
 078847\H,0,0.046484,-0.937945,-1.942443\C,0,-0.543277,1.21517,0.733073
 \H,0,-1.63795,1.16661,0.726585\H,0,-0.205504,2.146362,0.284119\H,0,-0.
 196349,1.160864,1.768914\C,0,-0.524925,-1.274274,0.620421\H,0,-1.62231
 5,-1.243908,0.620963\H,0,-0.164891,-2.153159,0.078325\H,0,-0.168432,-1

 Normal termination of Gaussian 16 at Wed Apr  9 02:55:40 2025.
