 Gaussian 16, Revision C.01,

 ----------------------------------------------------------------------
 #t hf aug-cc-pvdz symm=none int=(grid=ultrafine) guess=(read,tcheck) s
 table=(opt,rrhf)
 ----------------------------------------------------------------------
 -----
 title
 -----
 Symbolic Z-matrix:
 Charge = -1 Multiplicity = 1

 SCF Done:  E(RHF) =  -403.470391631     A.U. after   16 cycles
 Normal termination of Gaussian 16 at Wed Apr  9 02:52:19 2025.
 Gaussian 16:  ES64L-G16RevC.01  3-Jul-2019

 ----------------------------------------------------------------------
 #t hf aug-cc-pvdz iop(5/13=1,5/36=2,99/5=2) pseudo=read geom=check gue
 ss=(read,tcheck) scf=(maxcycle=1)
 ----------------------------------------------------------------------
 -----
 title
 -----
 Structure from the checkpoint file:  "E2SN2_314_mol2.chk"
 Charge = -1 Multiplicity = 1

                         Standard orientation:
 ---------------------------------------------------------------------
 Center     Atomic      Atomic             Coordinates (Angstroms)
 Number     Number       Type             X           Y           Z
 ---------------------------------------------------------------------
      1          6           0       -0.299311   -0.411511    0.163433
      2          6           0        0.855914    0.348053   -0.489659
      3          9           0       -0.235669   -0.160756    1.582791
      4          1           0        0.729995    0.189881   -1.568749
      5          6           0       -1.607919    0.208890   -0.201721
      6          7           0       -2.649314    0.656157   -0.515115
      7          7           0       -0.222774   -1.774662   -0.106560
      8          1           0        0.198383   -1.987472   -1.102694
      9          1           0       -1.122242   -2.231967   -0.014297
     10          6           0        2.184573   -0.286454   -0.087175
     11          1           0        2.260226   -0.360718    1.000727
     12          1           0        2.268451   -1.279536   -0.527584
     13          1           0        3.012102    0.329631   -0.456366
     14          6           0        0.816078    1.835809   -0.154021
     15          1           0       -0.126474    2.299873   -0.457920
     16          1           0        0.941539    1.990004    0.920513
     17          1           0        1.627645    2.355554   -0.672419
     18          1           0        0.740006   -2.197641   -2.399758
 ---------------------------------------------------------------------

 SCF Done:  E(RHF) =  -403.883396651     A.U. after    2 cycles

 The electronic state is 1-A.
 Alpha  occ. eigenvalues --  -26.31815 -15.40351 -15.34008 -11.25701 -11.16973
 Alpha  occ. eigenvalues --  -11.12049 -11.11552 -11.09648  -1.43577  -1.10936
 Alpha  occ. eigenvalues --   -1.06977  -0.95799  -0.82650  -0.81210  -0.69482
 Alpha  occ. eigenvalues --   -0.63206  -0.57568  -0.56717  -0.51513  -0.50061
 Alpha  occ. eigenvalues --   -0.48875  -0.46103  -0.45354  -0.43848  -0.42504
 Alpha  occ. eigenvalues --   -0.39546  -0.38555  -0.37230  -0.36643  -0.35734
 Alpha  occ. eigenvalues --   -0.31174  -0.10907
 Alpha virt. eigenvalues --    0.11974   0.13018   0.13386   0.14610   0.15909
 Alpha virt. eigenvalues --    0.16041   0.17223   0.18445   0.19229   0.20499
 Alpha virt. eigenvalues --    0.21653   0.22680   0.23445   0.23960   0.24492

 Mulliken charges:
               1
     1  C    0.726384
     2  C   -1.174013
     3  F   -0.999581
     4  H    0.227799
     5  C   -1.961789
     6  N    0.985028
     7  N    0.640788
     8  H   -0.026061
     9  H    0.276367
    10  C    0.014317
    11  H    0.209136
    12  H    0.236369
    13  H    0.155531
    14  C   -0.203875
    15  H    0.193094
    16  H    0.254336
    17  H    0.123765
    18  H   -0.677596
 Sum of Mulliken charges =  -1.00000

 Dipole moment (field-independent basis, Debye):
    X=              1.1535    Y=              6.4173    Z=              6.6665  Tot=              9.3249

 Test job not archived.
 1\1\GINC-SE455\SP\RHF\Aug-CC-pVDZ\C5H10F1N2(1-)\OHZDE\09-Apr-2025\0\\#
 t hf aug-cc-pvdz iop(5/13=1,5/36=2,99/5=2) pseudo=read geom=check gues
 s=(read,tcheck) scf=(maxcycle=1)\\title\\-1,1\C,0,0.014826,0.121228,0.
 014887\C,0,-0.489784,0.195481,-1.426594\F,0,1.450267,-0.014998,-0.0346
 93\H,0,-1.570648,0.369282,-1.343914\C,0,-0.147149,1.440556,0.695937\N,
 0,-0.308914,2.458524,1.261923\N,0,-0.564432,-0.944404,0.697398\H,0,-1.
 598231,-1.145572,0.372228\H,0,-0.545417,-0.808738,1.701348\C,0,-0.2955
 28,-1.154364,-2.11224\H,0,0.742332,-1.485008,-2.02119\H,0,-0.955594,-1

 Normal termination of Gaussian 16 at Wed Apr  9 02:52:26 2025.
