 Gaussian 16, Revision C.01,

 ----------------------------------------------------------------------
 #t hf aug-cc-pvdz symm=none int=(grid=ultrafine) guess=(read,tcheck) s
 table=(opt,rrhf)
 ----------------------------------------------------------------------
 -----
 title
 -----
 Symbolic Z-matrix:
 Charge = -1 Multiplicity = 1

 SCF Done:  E(RHF) =  -528.897703063     A.U. after   16 cycles
 Normal termination of Gaussian 16 at Wed Apr  9 02:51:42 2025.
 Gaussian 16:  ES64L-G16RevC.01  3-Jul-2019

 ----------------------------------------------------------------------
 #t hf aug-cc-pvdz iop(5/13=1,5/36=2,99/5=2) pseudo=read geom=check gue
 ss=(read,tcheck) scf=(maxcycle=1)
 ----------------------------------------------------------------------
 -----
 title
 -----
 Structure from the checkpoint file:  "E2SN2_303_mol2.chk"
 Charge = -1 Multiplicity = 1

                         Standard orientation:
 ---------------------------------------------------------------------
 Center     Atomic      Atomic             Coordinates (Angstroms)
 Number     Number       Type             X           Y           Z
 ---------------------------------------------------------------------
      1          6           0        0.737672    0.251491    0.135346
      2          6           0       -0.345358   -0.386938   -0.732451
      3          9           0        0.455492   -0.036266    1.500257
      4          1           0       -0.327081    0.168452   -1.707098
      5          1           0       -0.197317   -1.457641   -0.844542
      6          6           0        2.012408   -0.486818   -0.106023
      7          7           0        3.036008   -1.025146   -0.316036
      8          7           0        0.822120    1.623198   -0.096383
      9          1           0        1.742301    1.989025    0.109606
     10          1           0        0.550454    1.826170   -1.108592
     11          7           0       -1.692108   -0.224895   -0.150696
     12          8           0       -2.391993   -1.241879   -0.077165
     13          8           0       -2.057315    0.899290    0.177978
     14          1           0        0.136202    1.662585   -2.597626
 ---------------------------------------------------------------------

 SCF Done:  E(RHF) =  -529.410059722     A.U. after    2 cycles

 The electronic state is 1-A.
 Alpha  occ. eigenvalues --  -26.35020 -20.47261 -20.46933 -15.66782 -15.42957
 Alpha  occ. eigenvalues --  -15.36976 -11.29831 -11.19331 -11.18583  -1.54103
 Alpha  occ. eigenvalues --   -1.47184  -1.37895  -1.13544  -1.10321  -1.01087
 Alpha  occ. eigenvalues --   -0.86572  -0.75549  -0.67954  -0.66357  -0.63967
 Alpha  occ. eigenvalues --   -0.62706  -0.59357  -0.57342  -0.52961  -0.52236
 Alpha  occ. eigenvalues --   -0.48069  -0.47895  -0.44607  -0.40996  -0.40514
 Alpha  occ. eigenvalues --   -0.37446  -0.36759  -0.33818  -0.32838  -0.12643
 Alpha virt. eigenvalues --    0.13621   0.14455   0.16978   0.17391   0.18207
 Alpha virt. eigenvalues --    0.18979   0.20573   0.20788   0.21618   0.22768
 Alpha virt. eigenvalues --    0.23329   0.23767   0.24500   0.25194   0.25495

 Mulliken charges:
               1
     1  C    0.835821
     2  C   -0.660288
     3  F   -0.997885
     4  H    0.249780
     5  H   -0.008177
     6  C   -1.608944
     7  N    0.892492
     8  N    0.448920
     9  H    0.269171
    10  H    0.132333
    11  N    2.993095
    12  O   -1.481910
    13  O   -1.423846
    14  H   -0.640562
 Sum of Mulliken charges =  -1.00000

 Dipole moment (field-independent basis, Debye):
    X=              0.0621    Y=             -3.5903    Z=              5.8532  Tot=              6.8669

 Test job not archived.
 1\1\GINC-SE092\SP\RHF\Aug-CC-pVDZ\C3H5F1N3O2(1-)\OHZDE\09-Apr-2025\0\\
 #t hf aug-cc-pvdz iop(5/13=1,5/36=2,99/5=2) pseudo=read geom=check gue
 ss=(read,tcheck) scf=(maxcycle=1)\\title\\-1,1\C,0,-0.004223,-0.030658
 ,0.071408\C,0,-0.515632,-0.032578,-1.368062\F,0,1.366499,-0.413439,0.0
 6785\H,0,-1.631729,-0.123551,-1.298917\H,0,-0.188794,0.846835,-1.91641
 9\C,0,0.044933,1.386388,0.538178\N,0,0.047561,2.490813,0.940543\N,0,-0
 .772287,-0.868824,0.877613\H,0,-0.752284,-0.587373,1.84889\H,0,-1.7738
 57,-0.890345,0.508881\N,0,-0.019059,-1.19265,-2.13362\O,0,0.474744,-0.

 Normal termination of Gaussian 16 at Wed Apr  9 02:51:48 2025.
