 Gaussian 16, Revision C.01,

 ----------------------------------------------------------------------
 #t hf aug-cc-pvdz symm=none int=(grid=ultrafine) guess=(read,tcheck) s
 table=(opt,rrhf)
 ----------------------------------------------------------------------
 -----
 title
 -----
 Symbolic Z-matrix:
 Charge = -1 Multiplicity = 1

 SCF Done:  E(RHF) =  -763.526917510     A.U. after   16 cycles
 Normal termination of Gaussian 16 at Wed Apr  9 02:42:23 2025.
 Gaussian 16:  ES64L-G16RevC.01  3-Jul-2019

 ----------------------------------------------------------------------
 #t hf aug-cc-pvdz iop(5/13=1,5/36=2,99/5=2) pseudo=read geom=check gue
 ss=(read,tcheck) scf=(maxcycle=1)
 ----------------------------------------------------------------------
 -----
 title
 -----
 Structure from the checkpoint file:  "E2SN2_20_mol1.chk"
 Charge = -1 Multiplicity = 1

                         Standard orientation:
 ---------------------------------------------------------------------
 Center     Atomic      Atomic             Coordinates (Angstroms)
 Number     Number       Type             X           Y           Z
 ---------------------------------------------------------------------
      1          6           0        0.614963    0.101120    0.367542
      2          6           0       -0.740892    0.690783    0.049973
      3         17           0        1.093749   -1.190913   -0.893839
      4          1           0       -0.693855    2.152619    2.120925
      5          1           0       -0.848916    1.424929    1.060563
      6          7           0        0.640528   -0.554620    1.658679
      7          1           0       -0.092460   -1.259283    1.669061
      8          1           0        0.341411    0.181440    2.309617
      9          6           0       -1.787064   -0.294049    0.119998
     10          7           0       -2.667343   -1.072666    0.224733
     11          6           0       -0.837325    1.578925   -1.179585
     12          1           0       -0.413650    1.104289   -2.071843
     13          1           0       -1.882670    1.824402   -1.385266
     14          1           0       -0.313096    2.521038   -0.992630
     15          6           0        1.693477    1.162442    0.346730
     16          1           0        1.829041    1.579685   -0.651487
     17          1           0        1.378320    1.952522    1.038793
     18          1           0        2.630895    0.719562    0.685706
 ---------------------------------------------------------------------

 SCF Done:  E(RHF) =  -763.927198537     A.U. after    2 cycles

 The electronic state is 1-A.
 Alpha  occ. eigenvalues -- -105.41518 -15.37278 -15.36540 -11.21400 -11.14901
 Alpha  occ. eigenvalues --  -11.11627 -11.11381 -11.10759 -10.46410  -7.63319
 Alpha  occ. eigenvalues --   -7.63006  -7.63004  -1.10446  -1.07396  -0.95777
 Alpha  occ. eigenvalues --   -0.90742  -0.85608  -0.78306  -0.66756  -0.58825
 Alpha  occ. eigenvalues --   -0.57623  -0.51682  -0.49509  -0.47567  -0.45213
 Alpha  occ. eigenvalues --   -0.43946  -0.42565  -0.41470  -0.40688  -0.37681
 Alpha  occ. eigenvalues --   -0.35208  -0.33430  -0.32513  -0.31855  -0.30699
 Alpha  occ. eigenvalues --   -0.11377
 Alpha virt. eigenvalues --    0.12621   0.12832   0.14147   0.14450   0.15796
 Alpha virt. eigenvalues --    0.16498   0.17521   0.18179   0.18783   0.19682
 Alpha virt. eigenvalues --    0.20527   0.22058   0.23283   0.23642   0.25431

 Mulliken charges:
               1
     1  C   -2.731917
     2  C    0.725945
     3  Cl  -0.188228
     4  H   -0.432524
     5  H    0.182037
     6  N    0.875860
     7  H    0.234925
     8  H    0.260264
     9  C   -2.340660
    10  N    1.056082
    11  C   -0.133815
    12  H    0.267058
    13  H    0.091807
    14  H    0.221348
    15  C    0.251096
    16  H    0.212680
    17  H    0.260701
    18  H    0.187344
 Sum of Mulliken charges =  -1.00000

 Dipole moment (field-independent basis, Debye):
    X=              4.4289    Y=             -1.1034    Z=             -5.4776  Tot=              7.1300

 Test job not archived.
 1\1\GINC-SE435\SP\RHF\Aug-CC-pVDZ\C5H10Cl1N2(1-)\OHZDE\09-Apr-2025\0\\
 #t hf aug-cc-pvdz iop(5/13=1,5/36=2,99/5=2) pseudo=read geom=check gue
 ss=(read,tcheck) scf=(maxcycle=1)\\title\\-1,1\C,0,-0.12970637,0.05242
 837,-0.39859433\C,0,-0.08977438,0.00717918,1.1124489\Cl,0,1.59550692,0
 .13325155,-1.11047735\H,0,-2.62004382,0.01706315,1.2726237\H,0,-1.3259
 0209,0.05070737,1.31744849\N,0,-0.83499078,1.21584477,-0.89530216\H,0,
 -0.39459607,2.04348738,-0.50161445\H,0,-1.75980816,1.14449749,-0.45417
 017\C,0,0.48148067,1.20254625,1.67284192\N,0,0.89640362,2.19594889,2.1

 Normal termination of Gaussian 16 at Wed Apr  9 02:42:31 2025.
