 Gaussian 16, Revision C.01,

 ----------------------------------------------------------------------
 #t hf aug-cc-pvdz symm=none int=(grid=ultrafine) guess=(read,tcheck) s
 table=(opt,rrhf)
 ----------------------------------------------------------------------
 -----
 title
 -----
 Symbolic Z-matrix:
 Charge = -1 Multiplicity = 1

 SCF Done:  E(RHF) =  -878.490752730     A.U. after   15 cycles
 Normal termination of Gaussian 16 at Wed Apr  9 03:02:37 2025.
 Gaussian 16:  ES64L-G16RevC.01  3-Jul-2019

 ----------------------------------------------------------------------
 #t hf aug-cc-pvdz iop(5/13=1,5/36=2,99/5=2) pseudo=read geom=check gue
 ss=(read,tcheck) scf=(maxcycle=1)
 ----------------------------------------------------------------------
 -----
 title
 -----
 Structure from the checkpoint file:  "E2SN2_76_mol2.chk"
 Charge = -1 Multiplicity = 1

                         Standard orientation:
 ---------------------------------------------------------------------
 Center     Atomic      Atomic             Coordinates (Angstroms)
 Number     Number       Type             X           Y           Z
 ---------------------------------------------------------------------
      1          6           0        0.769542    0.046992    0.217475
      2          6           0       -0.724116    0.028584   -0.167255
      3         17           0        1.593573   -1.377767   -0.557779
      4          1           0       -0.781990    0.103816   -1.263386
      5          6           0        1.420220    1.239766   -0.327749
      6          7           0        1.997453    2.175410   -0.742035
      7          6           0        0.985132   -0.043904    1.719435
      8          1           0        0.609116    0.870127    2.183361
      9          1           0        0.419146   -0.898891    2.087080
     10          1           0        2.045881   -0.149759    1.953835
     11          7           0       -1.343565    1.228095    0.360184
     12          1           0       -2.306242    1.126787   -0.037963
     13          1           0       -1.484158    1.047586    1.352737
     14          7           0       -1.382573   -1.164714    0.344781
     15          1           0       -2.374507   -0.933483    0.104946
     16          1           0       -1.115355   -1.960380   -0.228076
     17          9           0       -3.522944    0.101785   -0.562471
 ---------------------------------------------------------------------

 SCF Done:  E(RHF) =  -878.988890202     A.U. after    2 cycles

 The electronic state is 1-A.
 Alpha  occ. eigenvalues -- -105.46052 -26.10247 -15.40960 -15.32881 -15.32710
 Alpha  occ. eigenvalues --  -11.23143 -11.18166 -11.16401 -11.14098 -10.50904
 Alpha  occ. eigenvalues --   -7.67838  -7.67479  -7.67473  -1.17105  -1.12074
 Alpha  occ. eigenvalues --   -1.09331  -1.01839  -0.97693  -0.89733  -0.81282
 Alpha  occ. eigenvalues --   -0.71480  -0.60554  -0.55771  -0.55442  -0.51325
 Alpha  occ. eigenvalues --   -0.49764  -0.48796  -0.47730  -0.45407  -0.42667
 Alpha  occ. eigenvalues --   -0.42028  -0.38287  -0.37405  -0.35392  -0.34845
 Alpha  occ. eigenvalues --   -0.32163  -0.30354  -0.26667  -0.26129  -0.25524
 Alpha virt. eigenvalues --    0.11942   0.13825   0.13875   0.14969   0.16028
 Alpha virt. eigenvalues --    0.16684   0.17476   0.17940   0.19257   0.20590
 Alpha virt. eigenvalues --    0.22176   0.22983   0.24237   0.24691   0.24937

 Mulliken charges:
               1
     1  C   -0.808415
     2  C   -2.124079
     3  Cl  -0.017349
     4  H   -0.065945
     5  C   -1.641320
     6  N    1.039159
     7  C    0.332272
     8  H    0.289957
     9  H    0.359630
    10  H    0.155025
    11  N    0.746975
    12  H    0.271984
    13  H    0.316120
    14  N    0.643018
    15  H    0.259810
    16  H    0.246231
    17  F   -1.003073
 Sum of Mulliken charges =  -1.00000

 Dipole moment (field-independent basis, Debye):
    X=              7.7496    Y=             -3.7202    Z=              3.3126  Tot=              9.2124

 Test job not archived.
 1\1\GINC-SE115\SP\RHF\Aug-CC-pVDZ\C4H8Cl1F1N3(1-)\OHZDE\09-Apr-2025\0\
 \#t hf aug-cc-pvdz iop(5/13=1,5/36=2,99/5=2) pseudo=read geom=check gu
 ess=(read,tcheck) scf=(maxcycle=1)\\title\\-1,1\C,0,-0.715177,-0.00376
 8,-1.570003\C,0,0.158216,0.029639,-0.299004\Cl,0,-0.42482,1.518788,-2.
 522631\H,0,1.208239,0.08294,-0.62323\C,0,-0.308109,-1.110581,-2.43754\
 N,0,-0.0244,-1.979023,-3.176173\C,0,-2.199825,-0.08615,-1.254314\H,0,-
 2.407707,-1.055895,-0.797756\H,0,-2.435568,0.707937,-0.546955\H,0,-2.7
 96202,0.012776,-2.163097\N,0,0.004872,-1.235946,0.390572\H,0,0.69857,-

 Normal termination of Gaussian 16 at Wed Apr  9 03:02:46 2025.
