 Gaussian 16, Revision C.01,

 ----------------------------------------------------------------------
 #t hf aug-cc-pvdz symm=none int=(grid=ultrafine) guess=(read,tcheck) s
 table=(opt,rrhf)
 ----------------------------------------------------------------------
 -----
 title
 -----
 Symbolic Z-matrix:
 Charge = -1 Multiplicity = 1

 SCF Done:  E(RHF) =  -516.086052485     A.U. after   15 cycles
 Normal termination of Gaussian 16 at Wed Apr  9 02:41:34 2025.
 Gaussian 16:  ES64L-G16RevC.01  3-Jul-2019

 ----------------------------------------------------------------------
 #t hf aug-cc-pvdz iop(5/13=1,5/36=2,99/5=2) pseudo=read geom=check gue
 ss=(read,tcheck) scf=(maxcycle=1)
 ----------------------------------------------------------------------
 -----
 title
 -----
 Structure from the checkpoint file:  "E2SN2_200_mol2.chk"
 Charge = -1 Multiplicity = 1

                         Standard orientation:
 ---------------------------------------------------------------------
 Center     Atomic      Atomic             Coordinates (Angstroms)
 Number     Number       Type             X           Y           Z
 ---------------------------------------------------------------------
      1          6           0       -0.940623   -0.936192   -0.089646
      2          6           0        0.060728    0.033331   -0.759313
      3          9           0       -2.214384   -0.506572   -0.583637
      4          1           0       -0.201616    0.019533   -1.825308
      5          1           0       -0.813957   -1.922446   -0.557250
      6          7           0       -0.875161   -0.923823    1.294256
      7          1           0       -0.916448   -1.849464    1.689351
      8          1           0       -0.027201   -0.357931    1.613083
      9          6           0        1.431852   -0.478842   -0.655893
     10          7           0        2.445712   -1.035612   -0.864216
     11          6           0       -0.105650    1.422943   -0.320878
     12          7           0       -0.368738    2.562187   -0.212704
     13          9           0        1.199794    0.466972    1.529543
 ---------------------------------------------------------------------

 SCF Done:  E(RHF) =  -516.578090731     A.U. after    2 cycles

 The electronic state is 1-A.
 Alpha  occ. eigenvalues --  -26.31587 -26.11942 -15.38526 -15.37891 -15.33910
 Alpha  occ. eigenvalues --  -11.24397 -11.20284 -11.17243 -11.16362  -1.43472
 Alpha  occ. eigenvalues --   -1.19517  -1.09969  -1.08352  -1.06714  -0.95947
 Alpha  occ. eigenvalues --   -0.76288  -0.66747  -0.61548  -0.60194  -0.55238
 Alpha  occ. eigenvalues --   -0.52790  -0.50567  -0.48043  -0.46981  -0.44904
 Alpha  occ. eigenvalues --   -0.41680  -0.38153  -0.37070  -0.36010  -0.34586
 Alpha  occ. eigenvalues --   -0.32010  -0.28097  -0.27785  -0.27281
 Alpha virt. eigenvalues --    0.12362   0.13226   0.14635   0.17703   0.18724
 Alpha virt. eigenvalues --    0.19780   0.21040   0.22750   0.23135   0.23680
 Alpha virt. eigenvalues --    0.24441   0.24641   0.26060   0.26553   0.26854

 Mulliken charges:
               1
     1  C    0.423620
     2  C    0.061102
     3  F   -0.857417
     4  H    0.374943
     5  H    0.026057
     6  N    0.512061
     7  H    0.133643
     8  H    0.319152
     9  C   -1.497106
    10  N    1.017701
    11  C   -1.605443
    12  N    1.054667
    13  F   -0.962981
 Sum of Mulliken charges =  -1.00000

 Dipole moment (field-independent basis, Debye):
    X=             -3.9406    Y=             -4.7337    Z=             -3.9313  Tot=              7.3069

 Test job not archived.
 1\1\GINC-SE129\SP\RHF\Aug-CC-pVDZ\C4H4F2N3(1-)\OHZDE\09-Apr-2025\0\\#t
  hf aug-cc-pvdz iop(5/13=1,5/36=2,99/5=2) pseudo=read geom=check guess
 =(read,tcheck) scf=(maxcycle=1)\\title\\-1,1\C,0,0.238336,-0.36707,-0.
 138609\C,0,-0.268826,0.144964,-1.506725\F,0,1.019666,-1.51963,-0.47357
 \H,0,0.626549,0.194356,-2.140148\H,0,0.991725,0.344921,0.225902\N,0,-0
 .78259,-0.657119,0.752011\H,0,-0.586393,-0.325884,1.682821\H,0,-1.7149
 93,-0.312709,0.360952\C,0,-0.78152,1.515146,-1.393837\N,0,-0.870923,2.
 68682,-1.371658\C,0,-1.180061,-0.794287,-2.168831\N,0,-1.684966,-1.608

 Normal termination of Gaussian 16 at Wed Apr  9 02:41:39 2025.
