 Gaussian 16, Revision C.01,

 ----------------------------------------------------------------------
 #t hf aug-cc-pvdz symm=none int=(grid=ultrafine) guess=(read,tcheck) s
 table=(opt,rrhf)
 ----------------------------------------------------------------------
 -----
 title
 -----
 Symbolic Z-matrix:
 Charge = -1 Multiplicity = 1

 SCF Done:  E(RHF) =  -366.773007994     A.U. after   15 cycles
 Normal termination of Gaussian 16 at Wed Apr  9 02:55:18 2025.
 Gaussian 16:  ES64L-G16RevC.01  3-Jul-2019

 ----------------------------------------------------------------------
 #t hf aug-cc-pvdz iop(5/13=1,5/36=2,99/5=2) pseudo=read geom=check gue
 ss=(read,tcheck) scf=(maxcycle=1)
 ----------------------------------------------------------------------
 -----
 title
 -----
 Structure from the checkpoint file:  "E2SN2_352_mol2.chk"
 Charge = -1 Multiplicity = 1

                         Standard orientation:
 ---------------------------------------------------------------------
 Center     Atomic      Atomic             Coordinates (Angstroms)
 Number     Number       Type             X           Y           Z
 ---------------------------------------------------------------------
      1          6           0        0.656053   -0.016365    0.018369
      2          6           0       -0.755165    0.101178   -0.579277
      3          9           0        1.305588   -1.033305   -0.750292
      4          1           0       -0.581865    0.232969   -1.659220
      5          6           0        1.453442    1.251011   -0.199341
      6          1           0        1.055612    2.048083    0.426383
      7          1           0        1.380630    1.567671   -1.243653
      8          1           0        2.505149    1.069566    0.043365
      9          6           0        0.671679   -0.477909    1.458157
     10          1           0        1.675589   -0.367575    1.881422
     11          1           0       -0.067680    0.062891    2.056745
     12          1           0        0.390156   -1.530850    1.506188
     13          7           0       -1.403273    1.289959   -0.058595
     14          1           0       -1.740211    1.051644    0.894444
     15          1           0       -2.254567    1.413163   -0.598813
     16          7           0       -1.588714   -1.088368   -0.396443
     17          1           0       -1.017481   -1.921527   -0.497839
     18          1           0       -1.947103   -1.045698    0.561378
     19          1           0       -2.360664    0.160782    2.380040
 ---------------------------------------------------------------------

 SCF Done:  E(RHF) =  -367.162885899     A.U. after    2 cycles

 The electronic state is 1-A.
 Alpha  occ. eigenvalues --  -26.30749 -15.33430 -15.32702 -11.18292 -11.14674
 Alpha  occ. eigenvalues --  -11.10670 -11.08756  -1.42485  -1.08141  -0.97614
 Alpha  occ. eigenvalues --   -0.93291  -0.82309  -0.76294  -0.64312  -0.57826
 Alpha  occ. eigenvalues --   -0.56165  -0.53380  -0.52188  -0.50242  -0.48225
 Alpha  occ. eigenvalues --   -0.45000  -0.43655  -0.41876  -0.40419  -0.39997
 Alpha  occ. eigenvalues --   -0.37561  -0.35630  -0.30992  -0.28147  -0.08735
 Alpha virt. eigenvalues --    0.12085   0.12661   0.13783   0.14536   0.15215
 Alpha virt. eigenvalues --    0.15693   0.16007   0.17951   0.18304   0.20467
 Alpha virt. eigenvalues --    0.21518   0.22405   0.23138   0.23840   0.24659

 Mulliken charges:
               1
     1  C    0.778850
     2  C   -3.269558
     3  F   -1.060236
     4  H   -0.099779
     5  C   -0.253061
     6  H    0.338561
     7  H    0.199128
     8  H    0.148011
     9  C   -0.165126
    10  H    0.125744
    11  H    0.297655
    12  H    0.191293
    13  N    0.970385
    14  H    0.109919
    15  H    0.239734
    16  N    0.819294
    17  H    0.193945
    18  H    0.329793
    19  H   -0.894550
 Sum of Mulliken charges =  -1.00000

 Dipole moment (field-independent basis, Debye):
    X=              8.6149    Y=             -0.3596    Z=             -7.0895  Tot=             11.1627

 Test job not archived.
 1\1\GINC-SE042\SP\RHF\Aug-CC-pVDZ\C4H12F1N2(1-)\OHZDE\09-Apr-2025\0\\#
 t hf aug-cc-pvdz iop(5/13=1,5/36=2,99/5=2) pseudo=read geom=check gues
 s=(read,tcheck) scf=(maxcycle=1)\\title\\-1,1\C,0,0.016182,0.058749,0.
 035304\C,0,-0.424791,0.128696,-1.435473\F,0,1.418214,-0.223167,-0.0063
 03\H,0,0.280933,0.838039,-1.896412\C,0,-0.123894,1.402529,0.716555\H,0
 ,-1.178016,1.637964,0.852642\H,0,0.324582,2.186566,0.099855\H,0,0.3857
 69,1.378393,1.684841\C,0,-0.633605,-1.062906,0.813714\H,0,-0.426633,-0
 .9524,1.883346\H,0,-1.710685,-1.105282,0.625227\H,0,-0.228901,-2.01965

 Normal termination of Gaussian 16 at Wed Apr  9 02:55:25 2025.
