 Gaussian 16, Revision C.01,

 ----------------------------------------------------------------------
 #t hf aug-cc-pvdz symm=none int=(grid=ultrafine) guess=(read,tcheck) s
 table=(opt,rrhf)
 ----------------------------------------------------------------------
 -----
 title
 -----
 Symbolic Z-matrix:
 Charge = -1 Multiplicity = 1

 SCF Done:  E(RHF) =  -572.805811426     A.U. after   16 cycles
 Normal termination of Gaussian 16 at Wed Apr  9 02:38:40 2025.
 Gaussian 16:  ES64L-G16RevC.01  3-Jul-2019

 ----------------------------------------------------------------------
 #t hf aug-cc-pvdz iop(5/13=1,5/36=2,99/5=2) pseudo=read geom=check gue
 ss=(read,tcheck) scf=(maxcycle=1)
 ----------------------------------------------------------------------
 -----
 title
 -----
 Structure from the checkpoint file:  "E2SN2_165_mol2.chk"
 Charge = -1 Multiplicity = 1

                         Standard orientation:
 ---------------------------------------------------------------------
 Center     Atomic      Atomic             Coordinates (Angstroms)
 Number     Number       Type             X           Y           Z
 ---------------------------------------------------------------------
      1          6           0        0.258698    1.247614   -0.620262
      2          6           0        0.179709    0.023629    0.271988
      3          9           0       -0.792367    2.109046   -0.279474
      4          1           0        0.390839    0.295786    1.299079
      5          1           0        0.133184    0.973876   -1.669007
      6          1           0        1.225800    1.686048   -0.386844
      7          6           0        1.092083   -1.030071   -0.161668
      8          7           0        1.560019   -2.016674   -0.600630
      9          7           0       -1.235666   -0.523490    0.209602
     10          8           0       -1.695480   -0.796586   -0.896371
     11          8           0       -1.836851   -0.648176    1.275443
     12          9           0        2.465190    0.661678    0.670701
 ---------------------------------------------------------------------

 SCF Done:  E(RHF) =  -573.347275763     A.U. after    2 cycles

 The electronic state is 1-A.
 Alpha  occ. eigenvalues --  -26.33925 -26.09989 -20.48535 -20.48241 -15.67488
 Alpha  occ. eigenvalues --  -15.38356 -11.21712 -11.20462 -11.17080  -1.55246
 Alpha  occ. eigenvalues --   -1.45810  -1.39227  -1.16530  -1.09267  -1.02805
 Alpha  occ. eigenvalues --   -0.85696  -0.76831  -0.69046  -0.65321  -0.63754
 Alpha  occ. eigenvalues --   -0.60011  -0.55863  -0.54961  -0.52694  -0.47352
 Alpha  occ. eigenvalues --   -0.43436  -0.41697  -0.39807  -0.37948  -0.36636
 Alpha  occ. eigenvalues --   -0.35168  -0.33906  -0.26413  -0.26035  -0.25521
 Alpha virt. eigenvalues --    0.14249   0.15761   0.16355   0.16630   0.19133
 Alpha virt. eigenvalues --    0.21156   0.22380   0.23110   0.23791   0.24933
 Alpha virt. eigenvalues --    0.25602   0.26671   0.27520   0.27952   0.29358

 Mulliken charges:
               1
     1  C    1.165875
     2  C   -0.609182
     3  F   -0.816978
     4  H    0.233869
     5  H    0.158409
     6  H    0.291601
     7  C   -1.370167
     8  N    0.936485
     9  N    2.699846
    10  O   -1.421364
    11  O   -1.358095
    12  F   -0.910299
 Sum of Mulliken charges =  -1.00000

 Dipole moment (field-independent basis, Debye):
    X=             -6.0415    Y=              1.8249    Z=             -1.1591  Tot=              6.4166

 Test job not archived.
 1\1\GINC-SE113\SP\RHF\Aug-CC-pVDZ\C3H3F2N2O2(1-)\OHZDE\09-Apr-2025\0\\
 #t hf aug-cc-pvdz iop(5/13=1,5/36=2,99/5=2) pseudo=read geom=check gue
 ss=(read,tcheck) scf=(maxcycle=1)\\title\\-1,1\C,0,-0.103744,-0.222487
 ,0.030773\C,0,-0.496419,-0.200394,-1.434084\F,0,1.277018,-0.002115,0.1
 19496\H,0,-0.366632,0.795298,-1.840674\H,0,-0.310759,-1.197413,0.47486
 3\H,0,-0.667728,0.596325,0.470619\C,0,-1.870878,-0.646986,-1.639474\N,
 0,-2.834956,-1.259964,-1.922051\N,0,0.423311,-1.143111,-2.190324\O,0,0
 .491131,-2.307766,-1.805401\O,0,1.052225,-0.674033,-3.137647\F,0,-2.05

 Normal termination of Gaussian 16 at Wed Apr  9 02:38:46 2025.
