 Gaussian 16, Revision C.01,

 ----------------------------------------------------------------------
 #t hf aug-cc-pvdz symm=none int=(grid=ultrafine) guess=(read,tcheck) s
 table=(opt,rrhf)
 ----------------------------------------------------------------------
 -----
 title
 -----
 Symbolic Z-matrix:
 Charge = -1 Multiplicity = 1

 SCF Done:  E(RHF) =  -836.251219198     A.U. after   16 cycles
 Normal termination of Gaussian 16 at Wed Apr  9 02:33:00 2025.
 Gaussian 16:  ES64L-G16RevC.01  3-Jul-2019

 ----------------------------------------------------------------------
 #t hf aug-cc-pvdz iop(5/13=1,5/36=2,99/5=2) pseudo=read geom=check gue
 ss=(read,tcheck) scf=(maxcycle=1)
 ----------------------------------------------------------------------
 -----
 title
 -----
 Structure from the checkpoint file:  "E2SN2_102_mol2.chk"
 Charge = -1 Multiplicity = 1

                         Standard orientation:
 ---------------------------------------------------------------------
 Center     Atomic      Atomic             Coordinates (Angstroms)
 Number     Number       Type             X           Y           Z
 ---------------------------------------------------------------------
      1          6           0       -0.010142   -0.314820    0.171229
      2          6           0        1.164895   -0.587796   -0.749638
      3         17           0       -1.443628   -1.270529   -0.362022
      4          1           0        1.407291   -1.651784   -0.654153
      5          1           0        0.855154   -0.374427   -1.774817
      6          6           0        0.293205   -0.608690    1.615243
      7          1           0        1.104591    0.045586    1.929180
      8          1           0       -0.582607   -0.457903    2.245339
      9          1           0        0.652243   -1.636716    1.682713
     10          7           0       -0.434525    1.143180   -0.000416
     11          8           0       -0.517579    1.571205   -1.146711
     12          8           0       -0.687721    1.793214    1.010480
     13          7           0        2.274331    0.226973   -0.291944
     14          1           0        2.741015    0.632477   -1.094805
     15          1           0        2.938174   -0.477589    0.138093
     16          1           0        3.501823   -1.919236    0.598182
 ---------------------------------------------------------------------

 SCF Done:  E(RHF) =  -836.712263362     A.U. after    2 cycles

 The electronic state is 1-A.
 Alpha  occ. eigenvalues -- -105.46811 -20.48495 -20.48136 -15.67588 -15.33512
 Alpha  occ. eigenvalues --  -11.25401 -11.14065 -11.12322 -10.51675  -7.68619
 Alpha  occ. eigenvalues --   -7.68245  -7.68233  -1.55476  -1.39372  -1.09164
 Alpha  occ. eigenvalues --   -1.02148  -0.92005  -0.86927  -0.80651  -0.71382
 Alpha  occ. eigenvalues --   -0.63905  -0.63180  -0.60564  -0.56287  -0.52448
 Alpha  occ. eigenvalues --   -0.50002  -0.46397  -0.45771  -0.41838  -0.40058
 Alpha  occ. eigenvalues --   -0.38984  -0.37167  -0.35835  -0.35802  -0.33785
 Alpha  occ. eigenvalues --   -0.30176  -0.09803
 Alpha virt. eigenvalues --    0.13090   0.13784   0.15037   0.15668   0.16033
 Alpha virt. eigenvalues --    0.16718   0.17544   0.17679   0.20614   0.21742
 Alpha virt. eigenvalues --    0.22845   0.24025   0.24529   0.25529   0.25798

 Mulliken charges:
               1
     1  C   -1.262000
     2  C   -0.629369
     3  Cl  -0.138917
     4  H    0.139559
     5  H    0.094616
     6  C   -0.015653
     7  H    0.432310
     8  H    0.185274
     9  H    0.328696
    10  N    2.924972
    11  O   -1.563212
    12  O   -1.396521
    13  N    0.408633
    14  H    0.224672
    15  H    0.078660
    16  H   -0.811720
 Sum of Mulliken charges =  -1.00000

 Dipole moment (field-independent basis, Debye):
    X=            -10.5205    Y=              3.9003    Z=             -2.0342  Tot=             11.4031

 Test job not archived.
 1\1\GINC-SE250\SP\RHF\Aug-CC-pVDZ\C3H8Cl1N2O2(1-)\OHZDE\09-Apr-2025\0\
 \#t hf aug-cc-pvdz iop(5/13=1,5/36=2,99/5=2) pseudo=read geom=check gu
 ess=(read,tcheck) scf=(maxcycle=1)\\title\\-1,1\C,0,-0.488061,0.026968
 ,-1.508184\C,0,-0.075679,0.190256,-0.056805\Cl,0,-0.39459,1.616029,-2.
 355985\H,0,0.969243,0.51901,-0.05491\H,0,-0.702315,0.96269,0.393895\C,
 0,0.336337,-0.994934,-2.242785\H,0,0.189282,-1.958412,-1.75795\H,0,0.0
 56923,-1.051533,-3.294227\H,0,1.38749,-0.725145,-2.130583\N,0,-1.96907
 9,-0.346923,-1.554212\O,0,-2.72951,0.286435,-0.829851\O,0,-2.315241,-1

 Normal termination of Gaussian 16 at Wed Apr  9 02:33:07 2025.
