 Gaussian 16, Revision C.01,

 ----------------------------------------------------------------------
 #t hf aug-cc-pvdz symm=none int=(grid=ultrafine) guess=(read,tcheck) s
 table=(opt,rrhf)
 ----------------------------------------------------------------------
 -----
 title
 -----
 Symbolic Z-matrix:
 Charge = -1 Multiplicity = 1

 SCF Done:  E(RHF) =  -1099.65905257     A.U. after   16 cycles
 Normal termination of Gaussian 16 at Wed Apr  9 02:43:52 2025.
 Gaussian 16:  ES64L-G16RevC.01  3-Jul-2019

 ----------------------------------------------------------------------
 #t hf aug-cc-pvdz iop(5/13=1,5/36=2,99/5=2) pseudo=read geom=check gue
 ss=(read,tcheck) scf=(maxcycle=1)
 ----------------------------------------------------------------------
 -----
 title
 -----
 Structure from the checkpoint file:  "E2SN2_214_mol1.chk"
 Charge = -1 Multiplicity = 1

                         Standard orientation:
 ---------------------------------------------------------------------
 Center     Atomic      Atomic             Coordinates (Angstroms)
 Number     Number       Type             X           Y           Z
 ---------------------------------------------------------------------
      1          6           0       -0.403589    0.112445   -0.292996
      2          1           0        0.756595    1.007536    1.306904
      3          9           0        0.365716   -1.457036   -1.021839
      4         17           0       -1.400716    1.889664    0.384249
      5          6           0        0.756683    0.107827    0.691919
      6          1           0       -0.261989    0.520031   -1.272675
      7          7           0       -1.622915   -0.725713   -0.181328
      8          8           0       -1.859398   -1.311563    0.865655
      9          8           0       -2.326436   -0.743572   -1.184653
     10          7           0        2.019104    0.343057   -0.202226
     11          8           0        3.037882   -0.269389    0.104270
     12          8           0        1.954303    1.200577   -1.075169
     13          7           0        0.870547   -1.046194    1.488639
     14          1           0        1.759096   -1.033444    1.969421
     15          1           0        0.830501   -1.833191    0.850719
 ---------------------------------------------------------------------

 SCF Done:  E(RHF) =  -1100.35331332     A.U. after    2 cycles

 The electronic state is 1-A.
 Alpha  occ. eigenvalues -- -105.38272 -26.19063 -20.47511 -20.47406 -20.46124
 Alpha  occ. eigenvalues --  -20.45913 -15.67155 -15.66236 -15.38490 -11.28776
 Alpha  occ. eigenvalues --  -11.24228 -10.43085  -7.59943  -7.59722  -7.59704
 Alpha  occ. eigenvalues --   -1.54549  -1.53934  -1.38593  -1.37673  -1.27448
 Alpha  occ. eigenvalues --   -1.12356  -1.01047  -0.93934  -0.84968  -0.78803
 Alpha  occ. eigenvalues --   -0.72519  -0.68245  -0.66602  -0.64090  -0.62874
 Alpha  occ. eigenvalues --   -0.61427  -0.60870  -0.59267  -0.53349  -0.48686
 Alpha  occ. eigenvalues --   -0.41839  -0.40275  -0.38116  -0.36965  -0.35981
 Alpha  occ. eigenvalues --   -0.35700  -0.35112  -0.34046  -0.33464  -0.31677
 Alpha  occ. eigenvalues --   -0.29903  -0.29412  -0.28359
 Alpha virt. eigenvalues --    0.13007   0.14659   0.16118   0.16689   0.17564
 Alpha virt. eigenvalues --    0.18472   0.19847   0.21322   0.23267   0.24060
 Alpha virt. eigenvalues --    0.24437   0.25083   0.26358   0.26479   0.28024

 Mulliken charges:
               1
     1  C    0.027462
     2  H    0.018599
     3  F   -0.896681
     4  Cl  -0.516287
     5  C   -1.574523
     6  H    0.130422
     7  N    3.233046
     8  O   -1.503788
     9  O   -1.527715
    10  N    3.253415
    11  O   -1.530790
    12  O   -1.586868
    13  N    0.832027
    14  H    0.286420
    15  H    0.355261
 Sum of Mulliken charges =  -1.00000

 Dipole moment (field-independent basis, Debye):
    X=              2.5159    Y=              0.4888    Z=              2.4283  Tot=              3.5306

 Test job not archived.
 1\1\GINC-SE222\SP\RHF\Aug-CC-pVDZ\C2H4Cl1F1N3O4(1-)\OHZDE\09-Apr-2025\
 0\\#t hf aug-cc-pvdz iop(5/13=1,5/36=2,99/5=2) pseudo=read geom=check
 guess=(read,tcheck) scf=(maxcycle=1)\\title\\-1,1\C,0,0.63867511,0.011
 36603,-0.06935634\H,0,1.77009127,1.84567993,0.17981313\F,0,-1.22306517
 ,0.27526762,-0.29428121\Cl,0,2.7113884,-0.47738938,0.20706177\C,0,0.75
 444278,1.52884398,-0.05631083\H,0,0.35899269,-0.50382758,0.8263555\N,0
 ,0.50822804,-0.82548373,-1.2877169\O,0,0.72451251,-0.3320382,-2.385464
 66\O,0,0.20019846,-1.99286027,-1.07731101\N,0,-0.01396613,1.96054558,1

 Normal termination of Gaussian 16 at Wed Apr  9 02:44:01 2025.
