 Gaussian 16, Revision C.01,

 ----------------------------------------------------------------------
 #t hf aug-cc-pvdz symm=none int=(grid=ultrafine) guess=(read,tcheck) s
 table=(opt,rrhf)
 ----------------------------------------------------------------------
 -----
 title
 -----
 Symbolic Z-matrix:
 Charge = -1 Multiplicity = 1

 SCF Done:  E(RHF) =  -685.447556984     A.U. after   16 cycles
 Normal termination of Gaussian 16 at Wed Apr  9 02:42:28 2025.
 Gaussian 16:  ES64L-G16RevC.01  3-Jul-2019

 ----------------------------------------------------------------------
 #t hf aug-cc-pvdz iop(5/13=1,5/36=2,99/5=2) pseudo=read geom=check gue
 ss=(read,tcheck) scf=(maxcycle=1)
 ----------------------------------------------------------------------
 -----
 title
 -----
 Structure from the checkpoint file:  "E2SN2_21_mol1.chk"
 Charge = -1 Multiplicity = 1

                         Standard orientation:
 ---------------------------------------------------------------------
 Center     Atomic      Atomic             Coordinates (Angstroms)
 Number     Number       Type             X           Y           Z
 ---------------------------------------------------------------------
      1          6           0        0.540360    0.394290   -0.337944
      2          6           0       -0.700989    0.763662    0.417684
      3         17           0        1.141982   -1.309687    0.050750
      4          1           0       -0.547797    3.169205   -0.292338
      5          1           0       -0.790573    1.998165    0.066164
      6          7           0        1.632306    1.314407   -0.121719
      7          1           0        1.828860    1.317170    0.875880
      8          1           0        1.212557    2.233726   -0.320508
      9          6           0       -1.877923    0.009281    0.094918
     10          7           0       -2.873995   -0.543756   -0.210953
     11          1           0        0.326311    0.356361   -1.407859
     12          1           0       -0.519924    0.792097    1.496673
 ---------------------------------------------------------------------

 SCF Done:  E(RHF) =  -685.762014827     A.U. after    2 cycles

 The electronic state is 1-A.
 Alpha  occ. eigenvalues -- -105.42113 -15.36882 -15.36591 -11.20942 -11.14857
 Alpha  occ. eigenvalues --  -11.10696 -10.47001  -7.63913  -7.63585  -7.63578
 Alpha  occ. eigenvalues --   -1.09309  -1.07197  -0.93483  -0.87720  -0.71835
 Alpha  occ. eigenvalues --   -0.58906  -0.56788  -0.52459  -0.47020  -0.46468
 Alpha  occ. eigenvalues --   -0.44259  -0.39124  -0.35816  -0.33752  -0.33328
 Alpha  occ. eigenvalues --   -0.32075  -0.30843  -0.11874
 Alpha virt. eigenvalues --    0.13646   0.14980   0.15373   0.18042   0.18298
 Alpha virt. eigenvalues --    0.18484   0.19990   0.21765   0.23985   0.24243
 Alpha virt. eigenvalues --    0.25074   0.25674   0.26822   0.27374   0.27993

 Mulliken charges:
               1
     1  C   -1.518281
     2  C    0.693520
     3  Cl  -0.147213
     4  H   -0.642495
     5  H    0.396666
     6  N    0.497697
     7  H    0.230790
     8  H    0.183386
     9  C   -1.744062
    10  N    0.789143
    11  H    0.144988
    12  H    0.115863
 Sum of Mulliken charges =  -1.00000

 Dipole moment (field-independent basis, Debye):
    X=              4.4647    Y=             -4.8888    Z=              2.2347  Tot=              6.9877

 Test job not archived.
 1\1\GINC-SE336\SP\RHF\Aug-CC-pVDZ\C3H6Cl1N2(1-)\OHZDE\09-Apr-2025\0\\#
 t hf aug-cc-pvdz iop(5/13=1,5/36=2,99/5=2) pseudo=read geom=check gues
 s=(read,tcheck) scf=(maxcycle=1)\\title\\-1,1\C,0,-0.14954625,0.006324
 74,-0.39732038\C,0,-0.08781467,-0.02602674,1.10051115\Cl,0,1.51877598,
 -0.06095112,-1.190254\H,0,-2.52746592,0.53399891,1.32121936\H,0,-1.332
 73995,0.17328442,1.35746711\N,0,-0.84348304,1.16327736,-0.91271155\H,0
 ,-0.34902553,1.98475783,-0.57429248\H,0,-1.73774176,1.1523145,-0.40179
 641\C,0,0.40967204,-1.24042947,1.68031579\N,0,0.74036445,-2.25678055,2

 Normal termination of Gaussian 16 at Wed Apr  9 02:42:33 2025.
