 Gaussian 16, Revision C.01,

 ----------------------------------------------------------------------
 #t hf aug-cc-pvdz symm=none int=(grid=ultrafine) guess=(read,tcheck) s
 table=(opt,rrhf)
 ----------------------------------------------------------------------
 -----
 title
 -----
 Symbolic Z-matrix:
 Charge = -1 Multiplicity = 1

 SCF Done:  E(RHF) =  -364.389463334     A.U. after   17 cycles
 Normal termination of Gaussian 16 at Wed Apr  9 02:36:45 2025.
 Gaussian 16:  ES64L-G16RevC.01  3-Jul-2019

 ----------------------------------------------------------------------
 #t hf aug-cc-pvdz iop(5/13=1,5/36=2,99/5=2) pseudo=read geom=check gue
 ss=(read,tcheck) scf=(maxcycle=1)
 ----------------------------------------------------------------------
 -----
 title
 -----
 Structure from the checkpoint file:  "E2SN2_146_mol1.chk"
 Charge = -1 Multiplicity = 1

                         Standard orientation:
 ---------------------------------------------------------------------
 Center     Atomic      Atomic             Coordinates (Angstroms)
 Number     Number       Type             X           Y           Z
 ---------------------------------------------------------------------
      1          6           0        0.292018    0.564698    0.311508
      2          6           0       -0.833812   -0.364930    0.222082
      3          9           0        0.353844    1.602948   -0.714487
      4          1           0       -1.259235   -0.824482    2.556706
      5          1           0       -0.902521   -0.804558    1.528570
      6          6           0        1.602993   -0.098374    0.268728
      7          7           0        2.653878   -0.623453    0.241728
      8          6           0       -0.766838   -1.459679   -0.815799
      9          1           0        0.181251   -2.007745   -0.775353
     10          1           0       -1.575375   -2.171707   -0.618723
     11          1           0       -0.904078   -1.092006   -1.844596
     12          7           0       -2.118235    0.316805    0.233672
     13          1           0       -2.032366    1.260855   -0.124180
     14          1           0       -2.414616    0.369524    1.215872
     15          1           0        0.206676    1.139824    1.245173
 ---------------------------------------------------------------------

 SCF Done:  E(RHF) =  -364.759971340     A.U. after    2 cycles

 The electronic state is 1-A.
 Alpha  occ. eigenvalues --  -26.31169 -15.39797 -15.33294 -11.21683 -11.16792
 Alpha  occ. eigenvalues --  -11.08190 -11.07664  -1.41869  -1.10062  -1.03637
 Alpha  occ. eigenvalues --   -0.90529  -0.82286  -0.67398  -0.60051  -0.57498
 Alpha  occ. eigenvalues --   -0.54046  -0.51705  -0.49357  -0.45490  -0.44410
 Alpha  occ. eigenvalues --   -0.42563  -0.39342  -0.38411  -0.37841  -0.36166
 Alpha  occ. eigenvalues --   -0.33463  -0.28376  -0.09926
 Alpha virt. eigenvalues --    0.13594   0.14156   0.14782   0.15163   0.16714
 Alpha virt. eigenvalues --    0.17254   0.18456   0.19386   0.22038   0.22829
 Alpha virt. eigenvalues --    0.23844   0.24765   0.25281   0.25724   0.26443

 Mulliken charges:
               1
     1  C    2.067638
     2  C   -2.563298
     3  F   -0.872096
     4  H   -0.708671
     5  H    0.492180
     6  C   -1.745224
     7  N    0.837733
     8  C   -0.262268
     9  H    0.242524
    10  H    0.129737
    11  H    0.157154
    12  N    0.697030
    13  H    0.203977
    14  H    0.215987
    15  H    0.107599
 Sum of Mulliken charges =  -1.00000

 Dipole moment (field-independent basis, Debye):
    X=              0.7901    Y=              3.2839    Z=             -4.8961  Tot=              5.9481

 Test job not archived.
 1\1\GINC-SE334\SP\RHF\Aug-CC-pVDZ\C4H8F1N2(1-)\OHZDE\09-Apr-2025\0\\#t
  hf aug-cc-pvdz iop(5/13=1,5/36=2,99/5=2) pseudo=read geom=check guess
 =(read,tcheck) scf=(maxcycle=1)\\title\\-1,1\C,0,-0.10402508,0.0456536
 4,-0.32507158\C,0,-0.09217649,0.12714525,1.13537941\F,0,1.17363554,-0.
 26046484,-0.96407524\H,0,-2.29167199,-0.71586402,1.67777971\H,0,-1.421
 88051,-0.11764511,1.41263238\C,0,-0.57569587,1.27618223,-0.9758207\N,0
 ,-0.95827627,2.25497514,-1.50155218\C,0,0.4714733,1.37608772,1.7698851
 8\H,0,0.04178841,2.28701628,1.3380683\H,0,0.22581499,1.36175232,2.8371

 Normal termination of Gaussian 16 at Wed Apr  9 02:36:50 2025.
