 Gaussian 16, Revision C.01,

 ----------------------------------------------------------------------
 #t hf aug-cc-pvdz symm=none int=(grid=ultrafine) guess=(read,tcheck) s
 table=(opt,rrhf)
 ----------------------------------------------------------------------
 -----
 title
 -----
 Symbolic Z-matrix:
 Charge = -1 Multiplicity = 1

 SCF Done:  E(RHF) =  -366.706586033     A.U. after   17 cycles
 Normal termination of Gaussian 16 at Wed Apr  9 03:00:12 2025.
 Gaussian 16:  ES64L-G16RevC.01  3-Jul-2019

 ----------------------------------------------------------------------
 #t hf aug-cc-pvdz iop(5/13=1,5/36=2,99/5=2) pseudo=read geom=check gue
 ss=(read,tcheck) scf=(maxcycle=1)
 ----------------------------------------------------------------------
 -----
 title
 -----
 Structure from the checkpoint file:  "E2SN2_418_mol1.chk"
 Charge = -1 Multiplicity = 1

                         Standard orientation:
 ---------------------------------------------------------------------
 Center     Atomic      Atomic             Coordinates (Angstroms)
 Number     Number       Type             X           Y           Z
 ---------------------------------------------------------------------
      1          6           0        0.619824    0.123786   -0.260460
      2          1           0       -0.998981   -0.033814   -1.597335
      3          9           0        0.593238   -0.586446    1.288752
      4          1           0        0.773803    0.997297   -1.904687
      5          6           0       -0.896593    0.012748   -0.514513
      6          7           0        1.421229   -0.963396   -0.812625
      7          1           0        2.000825   -1.300597   -0.052139
      8          1           0        1.978950   -0.577506   -1.556511
      9          7           0        1.198337    1.340144    0.300931
     10          1           0        1.768919    1.765235   -0.409591
     11          1           0        1.741240    1.057588    1.109167
     12          6           0       -1.615410    1.256107   -0.019095
     13          1           0       -1.463736    1.371377    1.056929
     14          1           0       -1.209385    2.140204   -0.513167
     15          1           0       -2.691367    1.185224   -0.223903
     16          6           0       -1.527750   -1.262552    0.050471
     17          1           0       -0.914096   -2.125976   -0.212911
     18          1           0       -1.615622   -1.224825    1.135751
     19          1           0       -2.527077   -1.393967   -0.386925
 ---------------------------------------------------------------------

 SCF Done:  E(RHF) =  -367.096169980     A.U. after    2 cycles

 The electronic state is 1-A.
 Alpha  occ. eigenvalues --  -26.18113 -15.32666 -15.32212 -11.21819 -11.06978
 Alpha  occ. eigenvalues --  -11.06419 -11.06359  -1.27786  -1.04695  -0.97891
 Alpha  occ. eigenvalues --   -0.91013  -0.77356  -0.71850  -0.59972  -0.55685
 Alpha  occ. eigenvalues --   -0.53195  -0.51451  -0.49101  -0.45479  -0.40300
 Alpha  occ. eigenvalues --   -0.39168  -0.37539  -0.36049  -0.33882  -0.33214
 Alpha  occ. eigenvalues --   -0.32177  -0.31771  -0.29446  -0.27476  -0.10056
 Alpha virt. eigenvalues --    0.13156   0.13790   0.14028   0.14803   0.15239
 Alpha virt. eigenvalues --    0.16368   0.16645   0.16919   0.17641   0.18211
 Alpha virt. eigenvalues --    0.19737   0.20876   0.23968   0.25525   0.25896

 Mulliken charges:
               1
     1  C   -3.569271
     2  H    0.151694
     3  F   -0.979290
     4  H   -0.510226
     5  C   -0.308434
     6  N    0.938756
     7  H    0.275967
     8  H    0.333774
     9  N    0.853627
    10  H    0.359112
    11  H    0.324033
    12  C    0.025123
    13  H    0.282947
    14  H    0.237381
    15  H    0.125429
    16  C   -0.193005
    17  H    0.232278
    18  H    0.297220
    19  H    0.122883
 Sum of Mulliken charges =  -1.00000

 Dipole moment (field-independent basis, Debye):
    X=             -0.7462    Y=             -1.5345    Z=              2.9663  Tot=              3.4221

 Test job not archived.
 1\1\GINC-SE023\SP\RHF\Aug-CC-pVDZ\C4H12F1N2(1-)\OHZDE\09-Apr-2025\0\\#
 t hf aug-cc-pvdz iop(5/13=1,5/36=2,99/5=2) pseudo=read geom=check gues
 s=(read,tcheck) scf=(maxcycle=1)\\title\\-1,1\C,0,0.54967663,-0.077343
 59,-0.02811383\H,0,1.62663413,1.69637367,-0.38405395\F,0,-1.11055226,-
 0.22140406,-0.38599657\H,0,2.3523256,-0.05241722,0.46183192\C,0,0.5993
 4358,1.46117511,-0.11108501\N,0,0.93653477,-0.77594208,-1.24934341\H,0
 ,0.19131541,-1.43495358,-1.44511816\H,0,1.80542781,-1.24863856,-1.0624
 9306\N,0,0.3388648,-0.7523922,1.24829963\H,0,1.1855113,-1.24297331,1.4

 Normal termination of Gaussian 16 at Wed Apr  9 03:00:19 2025.
