 Gaussian 16, Revision C.01,

 ----------------------------------------------------------------------
 #t hf aug-cc-pvdz symm=none int=(grid=ultrafine) guess=(read,tcheck) s
 table=(opt,rrhf)
 ----------------------------------------------------------------------
 -----
 title
 -----
 Symbolic Z-matrix:
 Charge = -1 Multiplicity = 1

 SCF Done:  E(RHF) =  -915.204569902     A.U. after   16 cycles
 Normal termination of Gaussian 16 at Wed Apr  9 02:59:47 2025.
 Gaussian 16:  ES64L-G16RevC.01  3-Jul-2019

 ----------------------------------------------------------------------
 #t hf aug-cc-pvdz iop(5/13=1,5/36=2,99/5=2) pseudo=read geom=check gue
 ss=(read,tcheck) scf=(maxcycle=1)
 ----------------------------------------------------------------------
 -----
 title
 -----
 Structure from the checkpoint file:  "E2SN2_403_mol2.chk"
 Charge = -1 Multiplicity = 1

                         Standard orientation:
 ---------------------------------------------------------------------
 Center     Atomic      Atomic             Coordinates (Angstroms)
 Number     Number       Type             X           Y           Z
 ---------------------------------------------------------------------
      1          6           0       -0.436214   -0.672723    0.030889
      2          6           0        0.639998    0.447140    0.087502
      3         17           0       -2.055321    0.073829   -0.331859
      4          1           0        1.583856   -0.251566    0.233802
      5          7           0       -0.133264   -1.635589   -0.994915
      6          1           0       -0.120010   -1.165261   -1.895484
      7          1           0        0.837321   -1.908811   -0.766161
      8          6           0       -0.498927   -1.375773    1.371459
      9          1           0       -1.222877   -2.188573    1.305452
     10          1           0        0.504353   -1.773334    1.540313
     11          1           0       -0.781518   -0.692000    2.173268
     12          6           0        0.473487    1.383532    1.182745
     13          7           0        0.352810    2.120985    2.091244
     14          6           0        0.768846    1.137335   -1.183650
     15          7           0        0.889774    1.661282   -2.229500
     16          9           0        2.298995   -1.535484    0.227659
 ---------------------------------------------------------------------

 SCF Done:  E(RHF) =  -915.726917886     A.U. after    2 cycles

 The electronic state is 1-A.
 Alpha  occ. eigenvalues -- -105.43833 -26.15119 -15.40831 -15.40693 -15.36720
 Alpha  occ. eigenvalues --  -11.23614 -11.18469 -11.18306 -11.17677 -11.11458
 Alpha  occ. eigenvalues --  -10.48753  -7.65681  -7.65335  -7.65332  -1.22402
 Alpha  occ. eigenvalues --   -1.12831  -1.10761  -1.10128  -0.97528  -0.93015
 Alpha  occ. eigenvalues --   -0.87086  -0.69396  -0.66105  -0.59821  -0.58538
 Alpha  occ. eigenvalues --   -0.54218  -0.50335  -0.49993  -0.48677  -0.44524
 Alpha  occ. eigenvalues --   -0.43687  -0.40954  -0.39764  -0.39499  -0.38572
 Alpha  occ. eigenvalues --   -0.37740  -0.34920  -0.34097  -0.32794  -0.31272
 Alpha  occ. eigenvalues --   -0.30715  -0.27303
 Alpha virt. eigenvalues --    0.13025   0.14494   0.14693   0.16098   0.16437
 Alpha virt. eigenvalues --    0.17882   0.18164   0.18647   0.19049   0.22732
 Alpha virt. eigenvalues --    0.23150   0.23692   0.24256   0.24666   0.25527

 Mulliken charges:
               1
     1  C   -2.902025
     2  C    1.110345
     3  Cl  -0.108229
     4  H    0.749950
     5  N    0.897295
     6  H    0.267112
     7  H    0.287126
     8  C    0.176916
     9  H    0.177516
    10  H    0.261485
    11  H    0.257693
    12  C   -1.469968
    13  N    0.909119
    14  C   -1.544940
    15  N    0.959099
    16  F   -1.028494
 Sum of Mulliken charges =  -1.00000

 Dipole moment (field-independent basis, Debye):
    X=             -4.3087    Y=             -1.0776    Z=              0.4096  Tot=              4.4603

 Test job not archived.
 1\1\GINC-SE131\SP\RHF\Aug-CC-pVDZ\C5H6Cl1F1N3(1-)\OHZDE\09-Apr-2025\0\
 \#t hf aug-cc-pvdz iop(5/13=1,5/36=2,99/5=2) pseudo=read geom=check gu
 ess=(read,tcheck) scf=(maxcycle=1)\\title\\-1,1\C,0,-0.014011,-0.01516
 8,0.022919\C,0,-0.601191,-0.231989,-1.399663\Cl,0,1.798115,0.101485,-0
 .091193\H,0,-1.74613,-0.18407,-1.104231\N,0,-0.516699,1.196218,0.61538
 3\H,0,-0.241702,1.985194,0.037193\H,0,-1.540371,1.080733,0.527222\C,0,
 -0.384842,-1.191447,0.902801\H,0,-0.008171,-1.006494,1.909288\H,0,-1.4
 76723,-1.221875,0.905361\H,0,0.02497,-2.127252,0.519886\C,0,-0.242754,

 Normal termination of Gaussian 16 at Wed Apr  9 02:59:56 2025.
