 Gaussian 16, Revision C.01,

 ----------------------------------------------------------------------
 #t hf aug-cc-pvdz symm=none int=(grid=ultrafine) guess=(read,tcheck) s
 table=(opt,rrhf)
 ----------------------------------------------------------------------
 -----
 title
 -----
 Symbolic Z-matrix:
 Charge = -1 Multiplicity = 1

 SCF Done:  E(RHF) =  -1183.56279455     A.U. after   15 cycles
 Normal termination of Gaussian 16 at Wed Apr  9 02:54:25 2025.
 Gaussian 16:  ES64L-G16RevC.01  3-Jul-2019

 ----------------------------------------------------------------------
 #t hf aug-cc-pvdz iop(5/13=1,5/36=2,99/5=2) pseudo=read geom=check gue
 ss=(read,tcheck) scf=(maxcycle=1)
 ----------------------------------------------------------------------
 -----
 title
 -----
 Structure from the checkpoint file:  "E2SN2_342_mol2.chk"
 Charge = -1 Multiplicity = 1

                         Standard orientation:
 ---------------------------------------------------------------------
 Center     Atomic      Atomic             Coordinates (Angstroms)
 Number     Number       Type             X           Y           Z
 ---------------------------------------------------------------------
      1          6           0        0.891603   -0.113647   -0.070189
      2          6           0        0.301661    0.041293    1.356260
      3         17           0        2.456956   -1.030103    0.083466
      4          1           0        0.053774   -0.967948    1.699444
      5          1           0        1.103562    0.421653    1.998914
      6          6           0       -0.025807   -0.861514   -1.019059
      7          1           0       -0.176710   -1.873550   -0.638458
      8          1           0       -1.008928   -0.384991   -1.059734
      9          1           0        0.410563   -0.914940   -2.018242
     10          6           0        1.238698    1.210126   -0.590218
     11          7           0        1.502183    2.290349   -0.970732
     12          7           0       -0.860657    0.877669    1.470294
     13          1           0       -1.676698    0.493434    0.990060
     14          1           0       -0.684380    1.810298    1.119236
     15         17           0       -3.453944   -0.288581   -0.298108
 ---------------------------------------------------------------------

 SCF Done:  E(RHF) =  -1183.99024588     A.U. after    2 cycles

 The electronic state is 1-A.
 Alpha  occ. eigenvalues -- -105.47438-105.28142 -15.42940 -15.36097 -11.24743
 Alpha  occ. eigenvalues --  -11.19851 -11.17392 -11.13202 -10.52278 -10.32722
 Alpha  occ. eigenvalues --   -7.69212  -7.68850  -7.68845  -7.49488  -7.49458
 Alpha  occ. eigenvalues --   -7.49447  -1.13735  -1.08783  -1.02981  -0.90351
 Alpha  occ. eigenvalues --   -0.83182  -0.77291  -0.73397  -0.60634  -0.58379
 Alpha  occ. eigenvalues --   -0.54543  -0.53216  -0.51654  -0.48278  -0.44756
 Alpha  occ. eigenvalues --   -0.43686  -0.42503  -0.39992  -0.39683  -0.37425
 Alpha  occ. eigenvalues --   -0.36507  -0.31015  -0.20831  -0.20414  -0.20359
 Alpha virt. eigenvalues --    0.12682   0.12992   0.13952   0.15413   0.15758
 Alpha virt. eigenvalues --    0.16031   0.17433   0.19248   0.19710   0.21929
 Alpha virt. eigenvalues --    0.22252   0.23130   0.23305   0.23955   0.24478

 Mulliken charges:
               1
     1  C   -1.226219
     2  C   -0.316422
     3  Cl  -0.016534
     4  H    0.187491
     5  H    0.112602
     6  C    0.388616
     7  H    0.169758
     8  H    0.291775
     9  H    0.203697
    10  C   -1.452871
    11  N    0.981148
    12  N    0.375254
    13  H    0.012001
    14  H    0.271082
    15  Cl  -0.981380
 Sum of Mulliken charges =  -1.00000

 Dipole moment (field-independent basis, Debye):
    X=             10.5442    Y=             -2.2127    Z=              1.2374  Tot=             10.8447

 Test job not archived.
 1\1\GINC-SE072\SP\RHF\Aug-CC-pVDZ\C4H7Cl2N2(1-)\OHZDE\09-Apr-2025\0\\#
 t hf aug-cc-pvdz iop(5/13=1,5/36=2,99/5=2) pseudo=read geom=check gues
 s=(read,tcheck) scf=(maxcycle=1)\\title\\-1,1\C,0,0.019213,-0.029996,-
 0.025589\C,0,-0.397092,-0.65199,-1.384488\Cl,0,1.800078,0.336292,-0.11
 6051\H,0,-0.26549,0.132178,-2.136521\H,0,0.320095,-1.449456,-1.609023\
 C,0,-0.730286,1.247515,0.302313\H,0,-0.501781,1.995267,-0.459592\H,0,-
 1.810082,1.079108,0.271756\H,0,-0.434388,1.629965,1.280994\C,0,-0.1419
 4,-1.033061,1.028532\N,0,-0.286252,-1.866183,1.84473\N,0,-1.738879,-1.

 Normal termination of Gaussian 16 at Wed Apr  9 02:54:32 2025.
