 Gaussian 16, Revision C.01,

 ----------------------------------------------------------------------
 #t hf aug-cc-pvdz symm=none int=(grid=ultrafine) guess=(read,tcheck) s
 table=(opt,rrhf)
 ----------------------------------------------------------------------
 -----
 title
 -----
 Symbolic Z-matrix:
 Charge = -1 Multiplicity = 1

 SCF Done:  E(RHF) =  -502.371603562     A.U. after   16 cycles
 Normal termination of Gaussian 16 at Wed Apr  9 02:50:48 2025.
 Gaussian 16:  ES64L-G16RevC.01  3-Jul-2019

 ----------------------------------------------------------------------
 #t hf aug-cc-pvdz iop(5/13=1,5/36=2,99/5=2) pseudo=read geom=check gue
 ss=(read,tcheck) scf=(maxcycle=1)
 ----------------------------------------------------------------------
 -----
 title
 -----
 Structure from the checkpoint file:  "E2SN2_286_mol1.chk"
 Charge = -1 Multiplicity = 1

                         Standard orientation:
 ---------------------------------------------------------------------
 Center     Atomic      Atomic             Coordinates (Angstroms)
 Number     Number       Type             X           Y           Z
 ---------------------------------------------------------------------
      1          6           0       -0.300182   -0.144939    0.225670
      2          1           0        0.716073   -0.180998   -1.610040
      3          9           0       -0.550657    1.649209    0.751787
      4          9           0       -0.408310   -1.846188   -0.345877
      5          6           0        1.000700    0.055296   -0.574258
      6          6           0       -1.558832    0.096530   -0.456501
      7          7           0       -2.566448    0.248455   -1.042283
      8          6           0       -0.259594   -0.507944    1.693020
      9          1           0       -0.002460   -1.557538    1.815430
     10          1           0        0.476982    0.121562    2.187242
     11          1           0       -1.233438   -0.305166    2.137478
     12          7           0        1.988142   -0.906625   -0.061748
     13          1           0        2.804537   -0.860772   -0.662464
     14          1           0        1.552037   -1.814269   -0.186007
     15          6           0        1.621226    1.441633   -0.549951
     16          1           0        0.924273    2.188102   -0.920636
     17          1           0        1.898665    1.715654    0.466218
     18          1           0        2.522269    1.429968   -1.180068
 ---------------------------------------------------------------------

 SCF Done:  E(RHF) =  -502.869872628     A.U. after    2 cycles

 The electronic state is 1-A.
 Alpha  occ. eigenvalues --  -26.18471 -26.14800 -15.35039 -15.34994 -11.23170
 Alpha  occ. eigenvalues --  -11.13930 -11.13808 -11.09072 -11.08824  -1.27206
 Alpha  occ. eigenvalues --   -1.23028  -1.05956  -1.05371  -0.91429  -0.85667
 Alpha  occ. eigenvalues --   -0.77417  -0.68935  -0.58010  -0.54604  -0.50252
 Alpha  occ. eigenvalues --   -0.47983  -0.46427  -0.44381  -0.43522  -0.41836
 Alpha  occ. eigenvalues --   -0.39936  -0.39031  -0.37819  -0.34230  -0.33447
 Alpha  occ. eigenvalues --   -0.33101  -0.32261  -0.30969  -0.29490  -0.29108
 Alpha  occ. eigenvalues --   -0.27569
 Alpha virt. eigenvalues --    0.12110   0.13411   0.14297   0.14537   0.15705
 Alpha virt. eigenvalues --    0.15897   0.16515   0.17383   0.18475   0.20535
 Alpha virt. eigenvalues --    0.22478   0.24086   0.24447   0.25231   0.25848

 Mulliken charges:
               1
     1  C    1.678703
     2  H    0.147093
     3  F   -0.881159
     4  F   -0.904346
     5  C   -1.235524
     6  C   -2.824808
     7  N    1.076536
     8  C   -0.203023
     9  H    0.279667
    10  H    0.322923
    11  H    0.186300
    12  N    0.453210
    13  H    0.157727
    14  H    0.201445
    15  C   -0.031778
    16  H    0.274698
    17  H    0.255453
    18  H    0.046882
 Sum of Mulliken charges =  -1.00000

 Dipole moment (field-independent basis, Debye):
    X=              5.9118    Y=             -0.9917    Z=              0.3741  Tot=              6.0060

 Test job not archived.
 1\1\GINC-SE094\SP\RHF\Aug-CC-pVDZ\C5H9F2N2(1-)\OHZDE\09-Apr-2025\0\\#t
  hf aug-cc-pvdz iop(5/13=1,5/36=2,99/5=2) pseudo=read geom=check guess
 =(read,tcheck) scf=(maxcycle=1)\\title\\-1,1\C,0,0.71510683,-0.0698665
 7,-0.0160874\H,0,1.58485425,1.64610415,-0.85447247\F,0,-0.91711765,-0.
 42054321,-0.89436415\F,0,2.38872429,-0.01513878,0.63860094\C,0,0.72201
 807,1.45950426,-0.19843529\C,0,1.2346871,-0.88367874,-1.10034384\N,0,1
 .70595917,-1.52015772,-1.96885306\C,0,0.11688889,-0.70010428,1.2214387
 4\H,0,0.7907662,-0.58503026,2.06724969\H,0,-0.83674187,-0.22044874,1.4

 Normal termination of Gaussian 16 at Wed Apr  9 02:50:57 2025.
