 Gaussian 16, Revision C.01,

 ----------------------------------------------------------------------
 #t hf aug-cc-pvdz symm=none int=(grid=ultrafine) guess=(read,tcheck) s
 table=(opt,rrhf)
 ----------------------------------------------------------------------
 -----
 title
 -----
 Symbolic Z-matrix:
 Charge = -1 Multiplicity = 1

 SCF Done:  E(RHF) =  -1292.99051364     A.U. after   15 cycles
 Normal termination of Gaussian 16 at Wed Apr  9 02:41:49 2025.
 Gaussian 16:  ES64L-G16RevC.01  3-Jul-2019

 ----------------------------------------------------------------------
 #t hf aug-cc-pvdz iop(5/13=1,5/36=2,99/5=2) pseudo=read geom=check gue
 ss=(read,tcheck) scf=(maxcycle=1)
 ----------------------------------------------------------------------
 -----
 title
 -----
 Structure from the checkpoint file:  "E2SN2_209_mol2.chk"
 Charge = -1 Multiplicity = 1

                         Standard orientation:
 ---------------------------------------------------------------------
 Center     Atomic      Atomic             Coordinates (Angstroms)
 Number     Number       Type             X           Y           Z
 ---------------------------------------------------------------------
      1          6           0        0.027259   -0.263863    0.213330
      2          6           0       -0.017005    1.212719   -0.106517
      3         17           0       -0.721269   -0.627404    1.773018
      4          1           0        0.520694    1.372768   -1.040853
      5          1           0        1.086936   -0.553840    0.239958
      6          1           0        0.566987    1.716141    0.665898
      7          7           0       -0.634154   -1.091916   -0.864447
      8          8           0       -0.852575   -0.532554   -1.937401
      9          8           0       -0.836639   -2.275875   -0.625094
     10          6           0       -1.369974    1.759571   -0.174074
     11          7           0       -2.447847    2.221524   -0.217552
     12         17           0        3.137235    0.378847   -0.089929
 ---------------------------------------------------------------------

 SCF Done:  E(RHF) =  -1293.50559054     A.U. after    2 cycles

 The electronic state is 1-A.
 Alpha  occ. eigenvalues -- -105.48442-105.29827 -20.50167 -20.49936 -15.69559
 Alpha  occ. eigenvalues --  -15.42247 -11.26857 -11.19561 -11.19313 -10.53318
 Alpha  occ. eigenvalues --  -10.34427  -7.70279  -7.69866  -7.69853  -7.51197
 Alpha  occ. eigenvalues --   -7.51156  -7.51152  -1.57252  -1.41246  -1.13028
 Alpha  occ. eigenvalues --   -1.09036  -0.94872  -0.92951  -0.76621  -0.74883
 Alpha  occ. eigenvalues --   -0.69686  -0.65882  -0.64845  -0.59805  -0.54445
 Alpha  occ. eigenvalues --   -0.53645  -0.50579  -0.47408  -0.42049  -0.40779
 Alpha  occ. eigenvalues --   -0.39300  -0.38796  -0.37212  -0.36871  -0.35259
 Alpha  occ. eigenvalues --   -0.22512  -0.22186  -0.22113
 Alpha virt. eigenvalues --    0.13873   0.14807   0.15272   0.16367   0.17829
 Alpha virt. eigenvalues --    0.18071   0.21533   0.21833   0.22318   0.23918
 Alpha virt. eigenvalues --    0.24630   0.25236   0.25408   0.26057   0.26510

 Mulliken charges:
               1
     1  C   -0.753469
     2  C    0.532673
     3  Cl   0.047294
     4  H    0.358461
     5  H    0.275658
     6  H    0.279158
     7  N    2.804651
     8  O   -1.389958
     9  O   -1.435683
    10  C   -1.663851
    11  N    0.899598
    12  Cl  -0.954532
 Sum of Mulliken charges =  -1.00000

 Dipole moment (field-independent basis, Debye):
    X=             -5.6801    Y=             -1.0858    Z=              1.6340  Tot=              6.0093

 Test job not archived.
 1\1\GINC-SE368\SP\RHF\Aug-CC-pVDZ\C3H3Cl2N2O2(1-)\OHZDE\09-Apr-2025\0\
 \#t hf aug-cc-pvdz iop(5/13=1,5/36=2,99/5=2) pseudo=read geom=check gu
 ess=(read,tcheck) scf=(maxcycle=1)\\title\\-1,1\C,0,-0.252793,0.13106,
 0.013267\C,0,-0.677609,0.086941,-1.436609\Cl,0,1.322956,-0.629296,0.26
 6164\H,0,-1.681168,0.505857,-1.508011\H,0,-1.01688,-0.411601,0.587202\
 H,0,-0.773047,-0.967611,-1.701025\N,0,-0.217212,1.545476,0.545154\O,0,
 -0.781462,2.405328,-0.128715\O,0,0.300385,1.72603,1.64039\C,0,0.245757
 ,0.767819,-2.341008\N,0,0.98266,1.29614,-3.085959\Cl,0,-2.994359,-1.48

 Normal termination of Gaussian 16 at Wed Apr  9 02:41:55 2025.
