 Gaussian 16, Revision C.01,

 ----------------------------------------------------------------------
 #t hf aug-cc-pvdz symm=none int=(grid=ultrafine) guess=(read,tcheck) s
 table=(opt,rrhf)
 ----------------------------------------------------------------------
 -----
 title
 -----
 Symbolic Z-matrix:
 Charge = -1 Multiplicity = 1

 SCF Done:  E(RHF) =  -583.892167192     A.U. after   18 cycles
 Normal termination of Gaussian 16 at Wed Apr  9 02:59:42 2025.
 Gaussian 16:  ES64L-G16RevC.01  3-Jul-2019

 ----------------------------------------------------------------------
 #t hf aug-cc-pvdz iop(5/13=1,5/36=2,99/5=2) pseudo=read geom=check gue
 ss=(read,tcheck) scf=(maxcycle=1)
 ----------------------------------------------------------------------
 -----
 title
 -----
 Structure from the checkpoint file:  "E2SN2_408_mol1.chk"
 Charge = -1 Multiplicity = 1

                         Standard orientation:
 ---------------------------------------------------------------------
 Center     Atomic      Atomic             Coordinates (Angstroms)
 Number     Number       Type             X           Y           Z
 ---------------------------------------------------------------------
      1          6           0       -1.153497    0.181321   -0.093073
      2          1           0        0.261093    0.009646   -1.686686
      3          9           0       -1.013855   -1.063375    0.905417
      4          1           0       -1.180745    1.570785   -1.278997
      5          6           0        0.279819    0.243285   -0.627427
      6          7           0       -1.502393    1.127952    0.942229
      7          1           0       -1.995038    0.625332    1.669635
      8          1           0       -2.056482    1.869207    0.548121
      9          7           0       -2.104003   -0.479207   -0.969239
     10          1           0       -2.690194    0.217436   -1.397462
     11          1           0       -2.642280   -1.120352   -0.398701
     12          7           0        1.193387   -0.878394   -0.034963
     13          8           0        1.764371   -0.678761    1.031147
     14          8           0        1.270774   -1.909787   -0.699985
     15          6           0        0.964522    1.503930   -0.363206
     16          7           0        1.641884    2.449004   -0.188273
 ---------------------------------------------------------------------

 SCF Done:  E(RHF) =  -584.460836979     A.U. after    2 cycles

 The electronic state is 1-A.
 Alpha  occ. eigenvalues --  -26.24965 -20.45360 -20.45329 -15.64340 -15.38032
 Alpha  occ. eigenvalues --  -15.36621 -15.36358 -11.27717 -11.21378 -11.16157
 Alpha  occ. eigenvalues --   -1.52215  -1.36296  -1.35630  -1.09897  -1.08168
 Alpha  occ. eigenvalues --   -1.02393  -0.99041  -0.80662  -0.72540  -0.66134
 Alpha  occ. eigenvalues --   -0.62785  -0.61512  -0.59192  -0.58849  -0.56662
 Alpha  occ. eigenvalues --   -0.53368  -0.50790  -0.46996  -0.43300  -0.40391
 Alpha  occ. eigenvalues --   -0.40285  -0.37893  -0.37079  -0.35254  -0.34878
 Alpha  occ. eigenvalues --   -0.34063  -0.31584  -0.30926  -0.14813
 Alpha virt. eigenvalues --    0.12677   0.13706   0.14809   0.15137   0.16768
 Alpha virt. eigenvalues --    0.17778   0.19421   0.20207   0.22430   0.23326
 Alpha virt. eigenvalues --    0.23396   0.24794   0.25692   0.25846   0.26903

 Mulliken charges:
               1
     1  C   -2.759973
     2  H    0.222790
     3  F   -1.040490
     4  H   -0.354262
     5  C    0.420395
     6  N    0.988152
     7  H    0.265153
     8  H    0.301205
     9  N    0.978065
    10  H    0.245875
    11  H    0.262542
    12  N    3.308898
    13  O   -1.548326
    14  O   -1.542508
    15  C   -1.747786
    16  N    1.000271
 Sum of Mulliken charges =  -1.00000

 Dipole moment (field-independent basis, Debye):
    X=             -3.6749    Y=             -2.7553    Z=              0.5801  Tot=              4.6296

 Test job not archived.
 1\1\GINC-SE284\SP\RHF\Aug-CC-pVDZ\C3H6F1N4O2(1-)\OHZDE\09-Apr-2025\0\\
 #t hf aug-cc-pvdz iop(5/13=1,5/36=2,99/5=2) pseudo=read geom=check gue
 ss=(read,tcheck) scf=(maxcycle=1)\\title\\-1,1\C,0,0.47978405,-0.15006
 554,0.11513584\H,0,1.58271323,1.50989772,0.88857457\F,0,-0.96242041,-0
 .22551968,0.80803152\H,0,2.1313078,0.07303409,-0.63350545\C,0,0.738512
 38,1.3548412,0.22506181\N,0,0.02360774,-0.63895196,-1.16649682\H,0,-0.
 75389441,-1.26554314,-1.00120861\H,0,0.78400692,-1.09205328,-1.6442890
 7\N,0,1.13655278,-0.95823912,1.1265395\H,0,1.91362371,-1.43861318,0.70

 Normal termination of Gaussian 16 at Wed Apr  9 02:59:50 2025.
