 Gaussian 16, Revision C.01,

 ----------------------------------------------------------------------
 #t hf aug-cc-pvdz symm=none int=(grid=ultrafine) guess=(read,tcheck) s
 table=(opt,rrhf)
 ----------------------------------------------------------------------
 -----
 title
 -----
 Symbolic Z-matrix:
 Charge = -1 Multiplicity = 1

 SCF Done:  E(RHF) =  -403.465465561     A.U. after   15 cycles
 Normal termination of Gaussian 16 at Wed Apr  9 02:38:15 2025.
 Gaussian 16:  ES64L-G16RevC.01  3-Jul-2019

 ----------------------------------------------------------------------
 #t hf aug-cc-pvdz iop(5/13=1,5/36=2,99/5=2) pseudo=read geom=check gue
 ss=(read,tcheck) scf=(maxcycle=1)
 ----------------------------------------------------------------------
 -----
 title
 -----
 Structure from the checkpoint file:  "E2SN2_148_mol2.chk"
 Charge = -1 Multiplicity = 1

                         Standard orientation:
 ---------------------------------------------------------------------
 Center     Atomic      Atomic             Coordinates (Angstroms)
 Number     Number       Type             X           Y           Z
 ---------------------------------------------------------------------
      1          6           0       -0.371177    0.388576    0.133000
      2          6           0        0.884337   -0.343029   -0.361752
      3          9           0       -0.404818    0.376527    1.539251
      4          1           0        0.811201   -0.385228   -1.462281
      5          6           0       -0.402471    1.830131   -0.323943
      6          1           0       -1.285104    2.337267    0.073329
      7          1           0       -0.401033    1.873878   -1.415458
      8          1           0        0.515523    2.290685    0.038164
      9          6           0       -1.595942   -0.317960   -0.301901
     10          7           0       -2.575429   -0.861575   -0.655361
     11          6           0        0.951174   -1.763945    0.186747
     12          1           0        1.093761   -1.744406    1.271356
     13          1           0        0.048290   -2.343180   -0.031240
     14          1           0        1.803916   -2.269969   -0.271578
     15          7           0        2.054237    0.455732   -0.057835
     16          1           0        2.524244    0.572551   -0.997957
     17          1           0        2.678868   -0.070063    0.543148
     18          1           0        2.706508    0.427987   -2.601283
 ---------------------------------------------------------------------

 SCF Done:  E(RHF) =  -403.878891130     A.U. after    2 cycles

 The electronic state is 1-A.
 Alpha  occ. eigenvalues --  -26.34727 -15.41956 -15.32738 -11.24538 -11.18498
 Alpha  occ. eigenvalues --  -11.13953 -11.12533 -11.11299  -1.46903  -1.12227
 Alpha  occ. eigenvalues --   -1.05626  -0.95522  -0.87728  -0.79373  -0.71686
 Alpha  occ. eigenvalues --   -0.63561  -0.57884  -0.55170  -0.53784  -0.51853
 Alpha  occ. eigenvalues --   -0.50085  -0.48239  -0.46499  -0.44265  -0.43189
 Alpha  occ. eigenvalues --   -0.42638  -0.40436  -0.39359  -0.37462  -0.37070
 Alpha  occ. eigenvalues --   -0.29075  -0.09481
 Alpha virt. eigenvalues --    0.12309   0.12771   0.13600   0.14753   0.15510
 Alpha virt. eigenvalues --    0.15718   0.16457   0.17959   0.18986   0.20483
 Alpha virt. eigenvalues --    0.21610   0.22093   0.22560   0.23821   0.24437

 Mulliken charges:
               1
     1  C    1.176769
     2  C   -1.779849
     3  F   -0.998249
     4  H    0.089227
     5  C    0.087709
     6  H    0.179776
     7  H    0.339856
     8  H    0.293986
     9  C   -1.869829
    10  N    0.965141
    11  C   -0.310626
    12  H    0.190909
    13  H    0.204154
    14  H    0.142769
    15  N    0.572455
    16  H    0.193182
    17  H    0.305317
    18  H   -0.782696
 Sum of Mulliken charges =  -1.00000

 Dipole moment (field-independent basis, Debye):
    X=             -6.0939    Y=             -0.6859    Z=              8.9323  Tot=             10.8348

 Test job not archived.
 1\1\GINC-SE109\SP\RHF\Aug-CC-pVDZ\C5H10F1N2(1-)\OHZDE\09-Apr-2025\0\\#
 t hf aug-cc-pvdz iop(5/13=1,5/36=2,99/5=2) pseudo=read geom=check gues
 s=(read,tcheck) scf=(maxcycle=1)\\title\\-1,1\C,0,-0.460389,-0.044249,
 -1.512633\C,0,0.054685,-0.121639,-0.068662\F,0,-1.857269,0.121704,-1.5
 10436\H,0,1.133849,-0.344908,-0.130706\C,0,0.147967,1.116123,-2.268474
 \H,0,-0.263905,1.171139,-3.279111\H,0,1.233916,1.004696,-2.308736\H,0,
 -0.082911,2.014072,-1.697224\C,0,-0.210226,-1.314763,-2.227892\N,0,-0.
 002206,-2.313204,-2.81072\C,0,-0.639092,-1.234197,0.709289\H,0,-1.6991

 Normal termination of Gaussian 16 at Wed Apr  9 02:38:23 2025.
