 Gaussian 16, Revision C.01,

 ----------------------------------------------------------------------
 #t hf aug-cc-pvdz symm=none int=(grid=ultrafine) guess=(read,tcheck) s
 table=(opt,rrhf)
 ----------------------------------------------------------------------
 -----
 title
 -----
 Symbolic Z-matrix:
 Charge = -1 Multiplicity = 1

 SCF Done:  E(RHF) =  -611.845220109     A.U. after   16 cycles
 Normal termination of Gaussian 16 at Wed Apr  9 02:41:01 2025.
 Gaussian 16:  ES64L-G16RevC.01  3-Jul-2019

 ----------------------------------------------------------------------
 #t hf aug-cc-pvdz iop(5/13=1,5/36=2,99/5=2) pseudo=read geom=check gue
 ss=(read,tcheck) scf=(maxcycle=1)
 ----------------------------------------------------------------------
 -----
 title
 -----
 Structure from the checkpoint file:  "E2SN2_186_mol2.chk"
 Charge = -1 Multiplicity = 1

                         Standard orientation:
 ---------------------------------------------------------------------
 Center     Atomic      Atomic             Coordinates (Angstroms)
 Number     Number       Type             X           Y           Z
 ---------------------------------------------------------------------
      1          6           0       -1.184141   -0.543803    0.114043
      2          6           0        0.062549    0.005754   -0.573687
      3          9           0       -1.745267   -1.503831   -0.770236
      4          1           0        0.004279   -0.283926   -1.634898
      5          1           0       -0.868607   -1.059935    1.010424
      6          6           0       -2.225501    0.498881    0.425598
      7          1           0       -3.110484    0.008864    0.839950
      8          1           0       -1.767493    1.154174    1.164381
      9          1           0       -2.518782    1.059298   -0.466280
     10          7           0        1.320752   -0.676985   -0.101174
     11          8           0        1.214081   -1.829076    0.300758
     12          8           0        2.377486   -0.092027   -0.299037
     13          6           0        0.228075    1.453539   -0.505880
     14          7           0        0.267201    2.603004   -0.750658
     15          9           0        0.314932    0.672942    1.689683
 ---------------------------------------------------------------------

 SCF Done:  E(RHF) =  -612.429736607     A.U. after    2 cycles

 The electronic state is 1-A.
 Alpha  occ. eigenvalues --  -26.32256 -26.09806 -20.45723 -20.45687 -15.66009
 Alpha  occ. eigenvalues --  -15.37865 -11.21877 -11.20333 -11.16522 -11.10553
 Alpha  occ. eigenvalues --   -1.53380  -1.44035  -1.37241  -1.16855  -1.08794
 Alpha  occ. eigenvalues --   -1.02046  -0.90775  -0.79246  -0.73407  -0.67251
 Alpha  occ. eigenvalues --   -0.64207  -0.61633  -0.57750  -0.56075  -0.52867
 Alpha  occ. eigenvalues --   -0.50271  -0.47198  -0.45478  -0.43152  -0.41221
 Alpha  occ. eigenvalues --   -0.39068  -0.37760  -0.35390  -0.35214  -0.34523
 Alpha  occ. eigenvalues --   -0.31649  -0.26520  -0.26328  -0.25655
 Alpha virt. eigenvalues --    0.12552   0.13099   0.14544   0.16440   0.17495
 Alpha virt. eigenvalues --    0.19364   0.20262   0.20777   0.22394   0.23802
 Alpha virt. eigenvalues --    0.24306   0.24657   0.25403   0.25751   0.26656

 Mulliken charges:
               1
     1  C    1.059083
     2  C   -0.078287
     3  F   -0.947730
     4  H    0.110793
     5  H    0.370321
     6  C   -0.505794
     7  H    0.025913
     8  H    0.438484
     9  H    0.306659
    10  N    3.252085
    11  O   -1.603890
    12  O   -1.554463
    13  C   -2.037744
    14  N    1.103781
    15  F   -0.939210
 Sum of Mulliken charges =  -1.00000

 Dipole moment (field-independent basis, Debye):
    X=             -3.5472    Y=             -3.7589    Z=             -3.8553  Tot=              6.4479

 Test job not archived.
 1\1\GINC-SE159\SP\RHF\Aug-CC-pVDZ\C4H5F2N2O2(1-)\OHZDE\09-Apr-2025\0\\
 #t hf aug-cc-pvdz iop(5/13=1,5/36=2,99/5=2) pseudo=read geom=check gue
 ss=(read,tcheck) scf=(maxcycle=1)\\title\\-1,1\C,0,-0.099768,0.017085,
 0.055789\C,0,-0.589165,-0.094355,-1.385492\F,0,1.283433,0.334931,-0.00
 8987\H,0,0.302362,-0.174724,-2.027519\H,0,-0.612413,0.850087,0.517043\
 C,0,-0.272973,-1.242188,0.863823\H,0,0.174573,-1.099025,1.850842\H,0,-
 1.348587,-1.387623,0.94679\H,0,0.202234,-2.101753,0.38335\N,0,-1.24237
 3,1.176991,-1.864527\O,0,-0.872846,2.22413,-1.347621\O,0,-1.976358,1.0

 Normal termination of Gaussian 16 at Wed Apr  9 02:41:11 2025.
