 Gaussian 16, Revision C.01,

 ----------------------------------------------------------------------
 #t hf aug-cc-pvdz symm=none int=(grid=ultrafine) guess=(read,tcheck) s
 table=(opt,rrhf)
 ----------------------------------------------------------------------
 -----
 title
 -----
 Symbolic Z-matrix:
 Charge = -1 Multiplicity = 1

 SCF Done:  E(RHF) =  -927.978580364     A.U. after   18 cycles
 Normal termination of Gaussian 16 at Wed Apr  9 02:49:53 2025.
 Gaussian 16:  ES64L-G16RevC.01  3-Jul-2019

 ----------------------------------------------------------------------
 #t hf aug-cc-pvdz iop(5/13=1,5/36=2,99/5=2) pseudo=read geom=check gue
 ss=(read,tcheck) scf=(maxcycle=1)
 ----------------------------------------------------------------------
 -----
 title
 -----
 Structure from the checkpoint file:  "E2SN2_26_mol1.chk"
 Charge = -1 Multiplicity = 1

                         Standard orientation:
 ---------------------------------------------------------------------
 Center     Atomic      Atomic             Coordinates (Angstroms)
 Number     Number       Type             X           Y           Z
 ---------------------------------------------------------------------
      1          6           0        0.339597   -0.486964    0.171836
      2          6           0       -1.039203   -0.021176    0.592045
      3         17           0        0.393798   -1.111813   -1.536548
      4          1           0       -0.652968   -0.481345    3.056424
      5          1           0       -0.886235    0.081766    1.785822
      6          7           0        1.257935    0.758365    0.215118
      7          8           0        1.790974    0.970962    1.297118
      8          8           0        1.330936    1.474313   -0.777730
      9          6           0       -2.077772   -1.134051    0.540021
     10          1           0       -3.049888   -0.727154    0.828842
     11          1           0       -2.161224   -1.590716   -0.449151
     12          1           0       -1.808650   -1.882805    1.290368
     13          6           0       -1.502532    1.184857   -0.047796
     14          7           0       -1.948845    2.167120   -0.522395
     15          7           0        0.901475   -1.455342    1.043010
     16          1           0        0.529037   -1.237042    1.992086
     17          1           0        0.565597   -2.371082    0.775059
 ---------------------------------------------------------------------

 SCF Done:  E(RHF) =  -928.521579394     A.U. after    2 cycles

 The electronic state is 1-A.
 Alpha  occ. eigenvalues -- -105.46318 -20.47521 -20.47377 -15.66625 -15.39088
 Alpha  occ. eigenvalues --  -15.38599 -11.29419 -11.16516 -11.15024 -11.12995
 Alpha  occ. eigenvalues --  -10.51199  -7.68135  -7.67758  -7.67753  -1.54648
 Alpha  occ. eigenvalues --   -1.38716  -1.14577  -1.09388  -0.99365  -0.95005
 Alpha  occ. eigenvalues --   -0.91414  -0.79431  -0.72289  -0.66394  -0.63714
 Alpha  occ. eigenvalues --   -0.63423  -0.60649  -0.56721  -0.54438  -0.49074
 Alpha  occ. eigenvalues --   -0.47202  -0.46248  -0.43489  -0.41545  -0.39167
 Alpha  occ. eigenvalues --   -0.39039  -0.37816  -0.36706  -0.35187  -0.34741
 Alpha  occ. eigenvalues --   -0.33128  -0.32265  -0.12899
 Alpha virt. eigenvalues --    0.12451   0.13281   0.14150   0.15532   0.17398
 Alpha virt. eigenvalues --    0.17655   0.18083   0.18678   0.19414   0.20124
 Alpha virt. eigenvalues --    0.22381   0.23343   0.23978   0.24629   0.25131

 Mulliken charges:
               1
     1  C   -2.381522
     2  C    0.226705
     3  Cl   0.014359
     4  H   -0.378677
     5  H    0.287106
     6  N    3.124056
     7  O   -1.447252
     8  O   -1.486315
     9  C    0.239738
    10  H    0.170546
    11  H    0.294321
    12  H    0.160708
    13  C   -2.470043
    14  N    1.091693
    15  N    0.947944
    16  H    0.318009
    17  H    0.288625
 Sum of Mulliken charges =  -1.00000

 Dipole moment (field-independent basis, Debye):
    X=              0.6673    Y=             -4.7446    Z=             -5.8353  Tot=              7.5504

 Test job not archived.
 1\1\GINC-SE029\SP\RHF\Aug-CC-pVDZ\C4H7Cl1N3O2(1-)\OHZDE\09-Apr-2025\0\
 \#t hf aug-cc-pvdz iop(5/13=1,5/36=2,99/5=2) pseudo=read geom=check gu
 ess=(read,tcheck) scf=(maxcycle=1)\\title\\-1,1\C,0,0.08959587,-0.0069
 9475,-0.42469624\C,0,-0.18231476,0.00034706,1.06548266\Cl,0,1.8608074,
 -0.11641386,-0.8281664\H,0,-2.35257123,1.29670377,0.85680926\H,0,-1.34
 110999,0.34107032,1.07963025\N,0,-0.57069276,-1.28909461,-0.98710078\O
 ,0,-1.74176429,-1.1634532,-1.32304201\O,0,0.07176784,-2.333557,-0.9884
 5468\C,0,0.46356022,1.18269004,1.7759305\H,0,0.25112127,1.11420764,2.8

 Normal termination of Gaussian 16 at Wed Apr  9 02:50:03 2025.
