 Gaussian 16, Revision C.01,

 ----------------------------------------------------------------------
 #t hf aug-cc-pvdz symm=none int=(grid=ultrafine) guess=(read,tcheck) s
 table=(opt,rrhf)
 ----------------------------------------------------------------------
 -----
 title
 -----
 Symbolic Z-matrix:
 Charge = -1 Multiplicity = 1

 SCF Done:  E(RHF) =  -465.728466175     A.U. after   13 cycles
 Normal termination of Gaussian 16 at Wed Apr  9 02:55:13 2025.
 Gaussian 16:  ES64L-G16RevC.01  3-Jul-2019

 ----------------------------------------------------------------------
 #t hf aug-cc-pvdz iop(5/13=1,5/36=2,99/5=2) pseudo=read geom=check gue
 ss=(read,tcheck) scf=(maxcycle=1)
 ----------------------------------------------------------------------
 -----
 title
 -----
 Structure from the checkpoint file:  "E2SN2_353_mol2.chk"
 Charge = -1 Multiplicity = 1

                         Standard orientation:
 ---------------------------------------------------------------------
 Center     Atomic      Atomic             Coordinates (Angstroms)
 Number     Number       Type             X           Y           Z
 ---------------------------------------------------------------------
      1          6           0       -0.873742    0.046443   -0.002274
      2          6           0        0.281670   -1.000994    0.016189
      3          9           0       -2.089305   -0.708465   -0.044804
      4          1           0       -0.227900   -1.971682    0.036383
      5          6           0       -0.935643    0.896014    1.249399
      6          1           0       -0.028257    1.501156    1.273359
      7          1           0       -1.820067    1.539998    1.200058
      8          1           0       -0.980808    0.271441    2.140300
      9          6           0       -0.870152    0.933658   -1.228769
     10          1           0       -1.743165    1.594081   -1.195144
     11          1           0        0.052171    1.516725   -1.199091
     12          1           0       -0.895230    0.332461   -2.136392
     13          7           0        1.074075   -0.877748    1.245167
     14          1           0        1.746824   -1.639763    1.228857
     15          1           0        1.604199   -0.006018    1.072753
     16          7           0        1.064716   -0.924071   -1.222998
     17          1           0        1.600360   -0.051076   -1.083732
     18          1           0        1.734985   -1.687642   -1.185970
     19          9           0        1.908477    1.370945   -0.012288
 ---------------------------------------------------------------------

 SCF Done:  E(RHF) =  -466.205445389     A.U. after    2 cycles

 The electronic state is 1-A.
 Alpha  occ. eigenvalues --  -26.28027 -26.09273 -15.31410 -15.31222 -11.16040
 Alpha  occ. eigenvalues --  -11.12920 -11.06625 -11.06295  -1.39706  -1.15821
 Alpha  occ. eigenvalues --   -1.06017  -0.95799  -0.90602  -0.78815  -0.74251
 Alpha  occ. eigenvalues --   -0.61229  -0.57230  -0.51228  -0.50882  -0.49490
 Alpha  occ. eigenvalues --   -0.48268  -0.47096  -0.43135  -0.39517  -0.39143
 Alpha  occ. eigenvalues --   -0.38639  -0.37596  -0.34066  -0.32781  -0.31168
 Alpha  occ. eigenvalues --   -0.26600  -0.25533  -0.25101  -0.24864
 Alpha virt. eigenvalues --    0.13219   0.13751   0.13939   0.14857   0.15121
 Alpha virt. eigenvalues --    0.16008   0.17509   0.17635   0.18616   0.19384
 Alpha virt. eigenvalues --    0.20878   0.22131   0.25169   0.25836   0.25959

 Mulliken charges:
               1
     1  C    0.498274
     2  C   -2.281724
     3  F   -1.069397
     4  H   -0.012846
     5  C   -0.345741
     6  H    0.370643
     7  H    0.046033
     8  H    0.241935
     9  C   -0.351063
    10  H    0.037279
    11  H    0.407032
    12  H    0.248982
    13  N    0.546970
    14  H    0.166482
    15  H    0.399345
    16  N    0.549083
    17  H    0.371312
    18  H    0.167743
    19  F   -0.990340
 Sum of Mulliken charges =  -1.00000

 Dipole moment (field-independent basis, Debye):
    X=             -2.8337    Y=             -3.0340    Z=              0.0962  Tot=              4.1526

 Test job not archived.
 1\1\GINC-SE365\SP\RHF\Aug-CC-pVDZ\C4H11F2N2(1-)\OHZDE\09-Apr-2025\0\\#
 t hf aug-cc-pvdz iop(5/13=1,5/36=2,99/5=2) pseudo=read geom=check gues
 s=(read,tcheck) scf=(maxcycle=1)\\title\\-1,1\C,0,-0.012554,0.000959,0
 .020742\C,0,-0.538917,0.064137,-1.44602\F,0,1.415616,-0.024757,-0.0739
 \H,0,0.367415,0.113849,-2.061159\C,0,-0.369847,1.22218,0.84126\H,0,-1.
 45546,1.232163,0.948338\H,0,0.107684,1.144058,1.823714\H,0,-0.044463,2
 .133662,0.342099\C,0,-0.421707,-1.255253,0.759646\H,0,0.037227,-1.2509
 39,1.754032\H,0,-1.510159,-1.238684,0.840425\H,0,-0.107893,-2.141832,0

 Normal termination of Gaussian 16 at Wed Apr  9 02:55:21 2025.
