 Gaussian 16, Revision C.01,

 ----------------------------------------------------------------------
 #t hf aug-cc-pvdz symm=none int=(grid=ultrafine) guess=(read,tcheck) s
 table=(opt,rrhf)
 ----------------------------------------------------------------------
 -----
 title
 -----
 Symbolic Z-matrix:
 Charge = -1 Multiplicity = 1

 SCF Done:  E(RHF) =  -1199.56742584     A.U. after   15 cycles
 Normal termination of Gaussian 16 at Wed Apr  9 03:00:59 2025.
 Gaussian 16:  ES64L-G16RevC.01  3-Jul-2019

 ----------------------------------------------------------------------
 #t hf aug-cc-pvdz iop(5/13=1,5/36=2,99/5=2) pseudo=read geom=check gue
 ss=(read,tcheck) scf=(maxcycle=1)
 ----------------------------------------------------------------------
 -----
 title
 -----
 Structure from the checkpoint file:  "E2SN2_52_mol2.chk"
 Charge = -1 Multiplicity = 1

                         Standard orientation:
 ---------------------------------------------------------------------
 Center     Atomic      Atomic             Coordinates (Angstroms)
 Number     Number       Type             X           Y           Z
 ---------------------------------------------------------------------
      1          6           0       -0.727887    0.002021   -0.149764
      2          6           0        0.008717    0.508672    1.088917
      3         17           0       -1.531353   -1.659532    0.436069
      4          1           0        0.745009   -0.258674    1.342654
      5          1           0       -0.715101    0.592436    1.902202
      6          6           0       -1.909263    0.809011   -0.479196
      7          7           0       -2.853283    1.455327   -0.745413
      8          7           0        0.119258   -0.127792   -1.223847
      9          1           0       -0.269150   -0.528570   -2.062212
     10          1           0        1.083816   -0.400406   -1.005487
     11          7           0        0.591533    1.810232    0.795059
     12          1           0        0.840368    2.249803    1.673508
     13          1           0        1.465060    1.634141    0.303258
     14         17           0        3.155944   -0.291722   -0.241614
 ---------------------------------------------------------------------

 SCF Done:  E(RHF) =  -1200.01057974     A.U. after    2 cycles

 The electronic state is 1-A.
 Alpha  occ. eigenvalues -- -105.43497-105.29562 -15.41841 -15.39184 -15.37008
 Alpha  occ. eigenvalues --  -11.27128 -11.18928 -11.16263 -10.48335 -10.34181
 Alpha  occ. eigenvalues --   -7.65229  -7.64917  -7.64914  -7.50952  -7.50917
 Alpha  occ. eigenvalues --   -7.50902  -1.15238  -1.11137  -1.06391  -0.94958
 Alpha  occ. eigenvalues --   -0.85464  -0.78166  -0.75015  -0.66082  -0.60009
 Alpha  occ. eigenvalues --   -0.57270  -0.55513  -0.52402  -0.48886  -0.47725
 Alpha  occ. eigenvalues --   -0.43692  -0.40113  -0.39452  -0.34709  -0.33758
 Alpha  occ. eigenvalues --   -0.32655  -0.31879  -0.22655  -0.22095  -0.21867
 Alpha virt. eigenvalues --    0.12626   0.13709   0.14315   0.16484   0.16872
 Alpha virt. eigenvalues --    0.17970   0.18439   0.19155   0.21463   0.22667
 Alpha virt. eigenvalues --    0.22895   0.23761   0.24594   0.25118   0.25764

 Mulliken charges:
               1
     1  C   -1.423013
     2  C   -0.136139
     3  Cl  -0.069238
     4  H    0.119529
     5  H    0.076510
     6  C   -1.363470
     7  N    0.912034
     8  N    0.929090
     9  H    0.146658
    10  H    0.120501
    11  N    0.284392
    12  H    0.174754
    13  H    0.192441
    14  Cl  -0.964048
 Sum of Mulliken charges =  -1.00000

 Dipole moment (field-independent basis, Debye):
    X=             -5.3642    Y=             -0.5609    Z=              1.9944  Tot=              5.7503

 Test job not archived.
 1\1\GINC-SE115\SP\RHF\Aug-CC-pVDZ\C3H6Cl2N3(1-)\OHZDE\09-Apr-2025\0\\#
 t hf aug-cc-pvdz iop(5/13=1,5/36=2,99/5=2) pseudo=read geom=check gues
 s=(read,tcheck) scf=(maxcycle=1)\\title\\-1,1\C,0,-0.485637,0.087994,-
 1.388354\C,0,-0.179301,-0.209773,0.07831\Cl,0,-0.279543,-1.627536,-2.2
 62424\H,0,0.846874,-0.585926,0.106618\H,0,-0.858036,-0.997176,0.412491
 \C,0,-1.904918,0.379157,-1.625579\N,0,-3.039743,0.614807,-1.816395\N,0
 ,0.329729,1.076535,-1.884464\H,0,0.246264,1.283148,-2.866647\H,0,1.281
 015,1.109036,-1.501882\N,0,-0.384988,1.000577,0.861146\H,0,-0.441042,0

 Normal termination of Gaussian 16 at Wed Apr  9 03:01:05 2025.
