 Gaussian 16, Revision C.01,

 ----------------------------------------------------------------------
 #t hf aug-cc-pvdz symm=none int=(grid=ultrafine) guess=(read,tcheck) s
 table=(opt,rrhf)
 ----------------------------------------------------------------------
 -----
 title
 -----
 Symbolic Z-matrix:
 Charge = -1 Multiplicity = 1

 SCF Done:  E(RHF) =  -364.424582392     A.U. after   16 cycles
 Normal termination of Gaussian 16 at Wed Apr  9 02:34:44 2025.
 Gaussian 16:  ES64L-G16RevC.01  3-Jul-2019

 ----------------------------------------------------------------------
 #t hf aug-cc-pvdz iop(5/13=1,5/36=2,99/5=2) pseudo=read geom=check gue
 ss=(read,tcheck) scf=(maxcycle=1)
 ----------------------------------------------------------------------
 -----
 title
 -----
 Structure from the checkpoint file:  "E2SN2_11_mol1.chk"
 Charge = -1 Multiplicity = 1

                         Standard orientation:
 ---------------------------------------------------------------------
 Center     Atomic      Atomic             Coordinates (Angstroms)
 Number     Number       Type             X           Y           Z
 ---------------------------------------------------------------------
      1          6           0        0.995451    0.101937    0.204462
      2          6           0       -0.449785    0.453046    0.391894
      3          9           0        1.428525    0.334136   -1.133611
      4          1           0       -0.240042    1.274796    2.695780
      5          1           0       -0.475795    0.607071    1.625965
      6          1           0        1.561154    0.812670    0.819461
      7          6           0        1.343782   -1.320020    0.569877
      8          1           0        2.415370   -1.495313    0.443493
      9          1           0        1.075194   -1.493596    1.615150
     10          1           0        0.792541   -2.021485   -0.059669
     11          6           0       -1.364115   -0.550753   -0.097547
     12          7           0       -2.095732   -1.407560   -0.448547
     13          7           0       -0.806295    1.796876   -0.032678
     14          1           0       -0.640452    2.382659    0.791674
     15          1           0       -0.182511    2.095496   -0.772896
 ---------------------------------------------------------------------

 SCF Done:  E(RHF) =  -364.795208476     A.U. after    2 cycles

 The electronic state is 1-A.
 Alpha  occ. eigenvalues --  -26.31239 -15.36274 -15.35073 -11.18910 -11.13987
 Alpha  occ. eigenvalues --  -11.12137 -11.11301  -1.42801  -1.07704  -1.04684
 Alpha  occ. eigenvalues --   -0.92755  -0.81281  -0.71871  -0.59667  -0.56828
 Alpha  occ. eigenvalues --   -0.54860  -0.53170  -0.49992  -0.46088  -0.45024
 Alpha  occ. eigenvalues --   -0.43742  -0.41918  -0.39576  -0.37299  -0.34339
 Alpha  occ. eigenvalues --   -0.32767  -0.30830  -0.11222
 Alpha virt. eigenvalues --    0.12353   0.13866   0.14523   0.15179   0.16888
 Alpha virt. eigenvalues --    0.17399   0.18635   0.20164   0.21170   0.22609
 Alpha virt. eigenvalues --    0.24535   0.24873   0.25295   0.25503   0.26275

 Mulliken charges:
               1
     1  C    1.328751
     2  C   -1.871199
     3  F   -0.919670
     4  H   -0.461220
     5  H    0.223543
     6  H    0.111084
     7  C   -0.386161
     8  H    0.121404
     9  H    0.268882
    10  H    0.301102
    11  C   -1.768723
    12  N    0.862528
    13  N    0.726391
    14  H    0.279542
    15  H    0.183747
 Sum of Mulliken charges =  -1.00000

 Dipole moment (field-independent basis, Debye):
    X=              5.2873    Y=             -1.3685    Z=             -4.8476  Tot=              7.3026

 Test job not archived.
 1\1\GINC-SE252\SP\RHF\Aug-CC-pVDZ\C4H8F1N2(1-)\OHZDE\09-Apr-2025\0\\#t
  hf aug-cc-pvdz iop(5/13=1,5/36=2,99/5=2) pseudo=read geom=check guess
 =(read,tcheck) scf=(maxcycle=1)\\title\\-1,1\C,0,-0.14663403,0.0904333
 9,-0.39887936\C,0,-0.08945004,0.06229184,1.09880303\F,0,1.13024235,-0.
 15471623,-0.9831697\H,0,-2.31353753,-0.9182758,1.44387493\H,0,-1.28716
 72,-0.15355105,1.35612853\H,0,-0.7687855,-0.76368857,-0.69347991\C,0,-
 0.68845092,1.37420761,-0.97782789\H,0,-0.73539765,1.31161693,-2.068185
 55\H,0,-1.69529853,1.54246803,-0.58691857\H,0,-0.05320892,2.21691652,-

 Normal termination of Gaussian 16 at Wed Apr  9 02:34:49 2025.
