 Gaussian 16, Revision C.01,

 ----------------------------------------------------------------------
 #t hf aug-cc-pvdz symm=none int=(grid=ultrafine) guess=(read,tcheck) s
 table=(opt,rrhf)
 ----------------------------------------------------------------------
 -----
 title
 -----
 Symbolic Z-matrix:
 Charge = -1 Multiplicity = 1

 SCF Done:  E(RHF) =  -974.230569556     A.U. after   16 cycles
 Normal termination of Gaussian 16 at Wed Apr  9 02:56:22 2025.
 Gaussian 16:  ES64L-G16RevC.01  3-Jul-2019

 ----------------------------------------------------------------------
 #t hf aug-cc-pvdz iop(5/13=1,5/36=2,99/5=2) pseudo=read geom=check gue
 ss=(read,tcheck) scf=(maxcycle=1)
 ----------------------------------------------------------------------
 -----
 title
 -----
 Structure from the checkpoint file:  "E2SN2_345_mol1.chk"
 Charge = -1 Multiplicity = 1

                         Standard orientation:
 ---------------------------------------------------------------------
 Center     Atomic      Atomic             Coordinates (Angstroms)
 Number     Number       Type             X           Y           Z
 ---------------------------------------------------------------------
      1          6           0        0.935600   -0.051168   -0.102425
      2          1           0       -0.063363   -1.643588    0.811456
      3         17           0       -0.028029    2.020639   -0.404648
      4          9           0        1.710553   -1.930781    0.280586
      5          6           0       -0.275223   -0.584320    0.673975
      6          6           0        2.109188    0.502145    0.676956
      7          1           0        2.494826    1.393937    0.183995
      8          1           0        1.810017    0.753936    1.691640
      9          1           0        2.857925   -0.284631    0.702819
     10          6           0        1.134302   -0.293565   -1.579495
     11          1           0        1.392918   -1.341112   -1.701806
     12          1           0        0.253254   -0.049488   -2.163782
     13          1           0        1.957336    0.339445   -1.917707
     14          7           0       -1.559737   -0.598052   -0.180999
     15          8           0       -2.570954   -0.073808    0.281635
     16          8           0       -1.530636   -1.239887   -1.228584
     17          7           0       -0.478870    0.065235    1.917768
     18          1           0       -1.243220   -0.376162    2.409668
     19          1           0       -0.718425    1.034552    1.741592
 ---------------------------------------------------------------------

 SCF Done:  E(RHF) =  -974.821651440     A.U. after    2 cycles

 The electronic state is 1-A.
 Alpha  occ. eigenvalues -- -105.33784 -26.13213 -20.45936 -20.45671 -15.64694
 Alpha  occ. eigenvalues --  -15.37824 -11.23154 -11.20482 -11.09515 -11.09480
 Alpha  occ. eigenvalues --  -10.38642  -7.55460  -7.55327  -7.55312  -1.52813
 Alpha  occ. eigenvalues --   -1.36713  -1.20939  -1.10852  -0.96511  -0.91405
 Alpha  occ. eigenvalues --   -0.82246  -0.80204  -0.76026  -0.67702  -0.64224
 Alpha  occ. eigenvalues --   -0.62007  -0.59262  -0.57778  -0.52360  -0.47784
 Alpha  occ. eigenvalues --   -0.46629  -0.45006  -0.43624  -0.40716  -0.39207
 Alpha  occ. eigenvalues --   -0.38170  -0.35931  -0.33087  -0.31867  -0.29458
 Alpha  occ. eigenvalues --   -0.29319  -0.28915  -0.26374  -0.25961  -0.25766
 Alpha virt. eigenvalues --    0.12988   0.13529   0.13915   0.15266   0.15706
 Alpha virt. eigenvalues --    0.16101   0.16749   0.17888   0.18018   0.19708
 Alpha virt. eigenvalues --    0.21625   0.22560   0.23304   0.24239   0.24611

 Mulliken charges:
               1
     1  C   -0.471614
     2  H    0.266295
     3  Cl  -0.745668
     4  F   -0.924713
     5  C   -1.515040
     6  C   -0.400149
     7  H    0.203854
     8  H    0.198993
     9  H    0.394597
    10  C   -0.208204
    11  H    0.379805
    12  H    0.257210
    13  H    0.204023
    14  N    2.971033
    15  O   -1.436492
    16  O   -1.532500
    17  N    0.745684
    18  H    0.276556
    19  H    0.336330
 Sum of Mulliken charges =  -1.00000

 Dipole moment (field-independent basis, Debye):
    X=             -0.7931    Y=              0.4719    Z=              1.3267  Tot=              1.6161

 Test job not archived.
 1\1\GINC-SE054\SP\RHF\Aug-CC-pVDZ\C4H9Cl1F1N2O2(1-)\OHZDE\09-Apr-2025\
 0\\#t hf aug-cc-pvdz iop(5/13=1,5/36=2,99/5=2) pseudo=read geom=check
 guess=(read,tcheck) scf=(maxcycle=1)\\title\\-1,1\C,0,0.5218134,-0.069
 59182,0.0076964\H,0,1.77066188,1.60091709,0.14438508\Cl,0,-1.77742311,
 0.087859,-0.02433175\F,0,2.5905214,-0.07626766,-0.01673596\C,0,0.70123
 331,1.45385976,0.00109612\C,0,0.58505405,-0.81194442,-1.30980537\H,0,-
 0.17482033,-1.59237665,-1.33296611\H,0,0.42445109,-0.12985719,-2.14133
 906\H,0,1.58304903,-1.23632647,-1.37460769\C,0,0.5552925,-0.8939141,1.

 Normal termination of Gaussian 16 at Wed Apr  9 02:56:34 2025.
