 Gaussian 16, Revision C.01,

 ----------------------------------------------------------------------
 #t hf aug-cc-pvdz symm=none int=(grid=ultrafine) guess=(read,tcheck) s
 table=(opt,rrhf)
 ----------------------------------------------------------------------
 -----
 title
 -----
 Symbolic Z-matrix:
 Charge = -1 Multiplicity = 1

 SCF Done:  E(RHF) =  -971.977273168     A.U. after   16 cycles
 Normal termination of Gaussian 16 at Wed Apr  9 02:45:44 2025.
 Gaussian 16:  ES64L-G16RevC.01  3-Jul-2019

 ----------------------------------------------------------------------
 #t hf aug-cc-pvdz iop(5/13=1,5/36=2,99/5=2) pseudo=read geom=check gue
 ss=(read,tcheck) scf=(maxcycle=1)
 ----------------------------------------------------------------------
 -----
 title
 -----
 Structure from the checkpoint file:  "E2SN2_232_mol2.chk"
 Charge = -1 Multiplicity = 1

                         Standard orientation:
 ---------------------------------------------------------------------
 Center     Atomic      Atomic             Coordinates (Angstroms)
 Number     Number       Type             X           Y           Z
 ---------------------------------------------------------------------
      1          6           0       -0.623373   -0.504442    0.256600
      2          6           0       -0.651825    0.642646   -0.733312
      3          9           0       -1.848582   -1.158756    0.247461
      4          1           0       -0.834536    0.251692   -1.734794
      5          1           0        0.340527    1.129018   -0.704927
      6          7           0        0.332037   -1.576912   -0.279695
      7          8           0        0.319221   -1.770005   -1.492188
      8          8           0        0.963837   -2.235330    0.538889
      9          6           0       -0.252084   -0.110490    1.652356
     10          1           0        0.737059    0.352446    1.630291
     11          1           0       -0.252681   -0.984077    2.301663
     12          1           0       -0.986556    0.614054    2.009318
     13          6           0       -1.701496    1.589195   -0.379282
     14          7           0       -2.553491    2.347610   -0.101772
     15         17           0        2.487753    1.530119   -0.012366
 ---------------------------------------------------------------------

 SCF Done:  E(RHF) =  -972.549876020     A.U. after    2 cycles

 The electronic state is 1-A.
 Alpha  occ. eigenvalues -- -105.28985 -26.39010 -20.49951 -20.49680 -15.68910
 Alpha  occ. eigenvalues --  -15.42010 -11.31003 -11.19501 -11.17868 -11.13880
 Alpha  occ. eigenvalues --  -10.33577  -7.50347  -7.50314  -7.50302  -1.57071
 Alpha  occ. eigenvalues --   -1.51482  -1.40869  -1.12667  -1.05223  -0.93190
 Alpha  occ. eigenvalues --   -0.89129  -0.74962  -0.74322  -0.69378  -0.66717
 Alpha  occ. eigenvalues --   -0.65268  -0.61002  -0.59065  -0.58271  -0.55045
 Alpha  occ. eigenvalues --   -0.50493  -0.49804  -0.48904  -0.46025  -0.44562
 Alpha  occ. eigenvalues --   -0.39898  -0.39412  -0.38561  -0.38220  -0.35075
 Alpha  occ. eigenvalues --   -0.21596  -0.21328  -0.21230
 Alpha virt. eigenvalues --    0.12472   0.13262   0.14551   0.15476   0.16214
 Alpha virt. eigenvalues --    0.17285   0.17794   0.19568   0.21905   0.22846
 Alpha virt. eigenvalues --    0.23423   0.23851   0.24021   0.25005   0.25392

 Mulliken charges:
               1
     1  C   -0.002080
     2  C    0.322161
     3  F   -1.062050
     4  H    0.319676
     5  H    0.301026
     6  N    3.030476
     7  O   -1.540039
     8  O   -1.471947
     9  C   -0.145214
    10  H    0.294627
    11  H    0.222413
    12  H    0.285857
    13  C   -1.470211
    14  N    0.875903
    15  Cl  -0.960597
 Sum of Mulliken charges =  -1.00000

 Dipole moment (field-independent basis, Debye):
    X=             -6.3117    Y=             -5.7225    Z=              0.6224  Tot=              8.5423

 Test job not archived.
 1\1\GINC-SE131\SP\RHF\Aug-CC-pVDZ\C4H5Cl1F1N2O2(1-)\OHZDE\09-Apr-2025\
 0\\#t hf aug-cc-pvdz iop(5/13=1,5/36=2,99/5=2) pseudo=read geom=check
 guess=(read,tcheck) scf=(maxcycle=1)\\title\\-1,1\C,0,0.000373,0.00431
 8,0.009174\C,0,-0.585029,-0.176729,-1.376853\F,0,1.387312,0.003173,-0.
 066625\H,0,-0.266756,0.648642,-2.014552\H,0,-1.685787,-0.158948,-1.276
 142\N,0,-0.307395,1.431597,0.476899\O,0,-0.242674,2.315969,-0.372386\O
 ,0,-0.494647,1.608552,1.675393\C,0,-0.468438,-0.998862,1.016664\H,0,-1
 .556471,-0.934699,1.08924\H,0,-0.007081,-0.804027,1.983071\H,0,-0.1837

 Normal termination of Gaussian 16 at Wed Apr  9 02:45:52 2025.
