 Gaussian 16, Revision C.01,

 ----------------------------------------------------------------------
 #t hf aug-cc-pvdz symm=none int=(grid=ultrafine) guess=(read,tcheck) s
 table=(opt,rrhf)
 ----------------------------------------------------------------------
 -----
 title
 -----
 Symbolic Z-matrix:
 Charge = -1 Multiplicity = 1

 SCF Done:  E(RHF) =  -476.196872112     A.U. after   16 cycles
 Normal termination of Gaussian 16 at Wed Apr  9 02:44:09 2025.
 Gaussian 16:  ES64L-G16RevC.01  3-Jul-2019

 ----------------------------------------------------------------------
 #t hf aug-cc-pvdz iop(5/13=1,5/36=2,99/5=2) pseudo=read geom=check gue
 ss=(read,tcheck) scf=(maxcycle=1)
 ----------------------------------------------------------------------
 -----
 title
 -----
 Structure from the checkpoint file:  "E2SN2_230_mol2.chk"
 Charge = -1 Multiplicity = 1

                         Standard orientation:
 ---------------------------------------------------------------------
 Center     Atomic      Atomic             Coordinates (Angstroms)
 Number     Number       Type             X           Y           Z
 ---------------------------------------------------------------------
      1          6           0        0.025966    0.589677    0.028312
      2          6           0        1.074085    0.115988   -0.994223
      3          9           0       -0.665889    1.648356   -0.531659
      4          1           0        0.523769   -0.002340   -1.938506
      5          1           0        1.757782    0.963766   -1.109965
      6          7           0       -0.996823   -0.523512    0.151297
      7          8           0       -0.770249   -1.392727    0.992261
      8          8           0       -1.936794   -0.532370   -0.640508
      9          6           0        0.555684    0.975390    1.379157
     10          1           0        1.032845    1.950964    1.268546
     11          1           0       -0.252651    1.046242    2.111302
     12          1           0        1.342739    0.289478    1.703298
     13          7           0        1.853545   -1.045993   -0.669435
     14          1           0        2.540314   -0.800357    0.082281
     15          1           0        1.266771   -1.797444   -0.326904
     16          1           0        3.506313   -0.184539    1.328339
 ---------------------------------------------------------------------

 SCF Done:  E(RHF) =  -476.672508875     A.U. after    2 cycles

 The electronic state is 1-A.
 Alpha  occ. eigenvalues --  -26.36639 -20.48822 -20.48812 -15.67617 -15.33625
 Alpha  occ. eigenvalues --  -11.27519 -11.15462 -11.11865  -1.55969  -1.49341
 Alpha  occ. eigenvalues --   -1.39642  -1.06533  -0.99756  -0.87442  -0.81997
 Alpha  occ. eigenvalues --   -0.72683  -0.66528  -0.64412  -0.64206  -0.57267
 Alpha  occ. eigenvalues --   -0.57180  -0.55062  -0.51791  -0.47601  -0.46310
 Alpha  occ. eigenvalues --   -0.43603  -0.42866  -0.41819  -0.38011  -0.37493
 Alpha  occ. eigenvalues --   -0.34471  -0.29529  -0.09235
 Alpha virt. eigenvalues --    0.13092   0.13740   0.14403   0.15691   0.16334
 Alpha virt. eigenvalues --    0.17176   0.17475   0.19394   0.20794   0.22723
 Alpha virt. eigenvalues --    0.23066   0.23834   0.24756   0.25109   0.25903

 Mulliken charges:
               1
     1  C    0.349159
     2  C   -0.958894
     3  F   -0.993869
     4  H    0.106824
     5  H    0.178596
     6  N    2.731750
     7  O   -1.428516
     8  O   -1.432902
     9  C   -0.173760
    10  H    0.246928
    11  H    0.182349
    12  H    0.329809
    13  N    0.450013
    14  H    0.017190
    15  H    0.253697
    16  H   -0.858373
 Sum of Mulliken charges =  -1.00000

 Dipole moment (field-independent basis, Debye):
    X=            -11.0115    Y=              2.5636    Z=             -3.2996  Tot=             11.7777

 Test job not archived.
 1\1\GINC-SE460\SP\RHF\Aug-CC-pVDZ\C3H8F1N2O2(1-)\OHZDE\09-Apr-2025\0\\
 #t hf aug-cc-pvdz iop(5/13=1,5/36=2,99/5=2) pseudo=read geom=check gue
 ss=(read,tcheck) scf=(maxcycle=1)\\title\\-1,1\C,0,0.034076,0.025432,-
 0.046733\C,0,-0.566198,-0.142528,-1.453848\F,0,1.344669,-0.414609,-0.0
 88496\H,0,0.164143,0.315242,-2.136173\H,0,-0.561283,-1.22268,-1.634993
 \N,0,0.131246,1.517053,0.210243\O,0,-0.852498,2.05681,0.71522\O,0,1.14
 3047,2.102414,-0.169483\C,0,-0.70513,-0.658006,1.067109\H,0,-0.481998,
 -1.723931,0.991767\H,0,-0.377846,-0.285353,2.041007\H,0,-1.78647,-0.56

 Normal termination of Gaussian 16 at Wed Apr  9 02:44:15 2025.
