 Gaussian 16, Revision C.01,

 ----------------------------------------------------------------------
 #t hf aug-cc-pvdz symm=none int=(grid=ultrafine) guess=(read,tcheck) s
 table=(opt,rrhf)
 ----------------------------------------------------------------------
 -----
 title
 -----
 Symbolic Z-matrix:
 Charge = -1 Multiplicity = 1

 SCF Done:  E(RHF) =  -516.112892186     A.U. after   15 cycles
 Normal termination of Gaussian 16 at Wed Apr  9 03:02:09 2025.
 Gaussian 16:  ES64L-G16RevC.01  3-Jul-2019

 ----------------------------------------------------------------------
 #t hf aug-cc-pvdz iop(5/13=1,5/36=2,99/5=2) pseudo=read geom=check gue
 ss=(read,tcheck) scf=(maxcycle=1)
 ----------------------------------------------------------------------
 -----
 title
 -----
 Structure from the checkpoint file:  "E2SN2_84_mol2.chk"
 Charge = -1 Multiplicity = 1

                         Standard orientation:
 ---------------------------------------------------------------------
 Center     Atomic      Atomic             Coordinates (Angstroms)
 Number     Number       Type             X           Y           Z
 ---------------------------------------------------------------------
      1          6           0        0.075301   -0.574565    0.094181
      2          6           0        0.173002    0.785673   -0.598476
      3          9           0       -0.030875   -0.304595    1.494785
      4          1           0        1.184470    1.127512   -0.356948
      5          1           0        0.138052    0.630314   -1.679541
      6          6           0       -1.198090   -1.279444   -0.213880
      7          7           0       -2.192086   -1.846199   -0.479117
      8          7           0        1.182818   -1.339318   -0.257548
      9          1           0        1.239019   -2.174180    0.311363
     10          1           0        2.043726   -0.694776   -0.200547
     11          6           0       -0.876197    1.708355   -0.192400
     12          7           0       -1.714891    2.472859    0.109563
     13          9           0        2.855291    0.555664   -0.186025
 ---------------------------------------------------------------------

 SCF Done:  E(RHF) =  -516.605477282     A.U. after    2 cycles

 The electronic state is 1-A.
 Alpha  occ. eigenvalues --  -26.33348 -26.12705 -15.41810 -15.40053 -15.35866
 Alpha  occ. eigenvalues --  -11.28277 -11.18328 -11.17539 -11.15350  -1.45448
 Alpha  occ. eigenvalues --   -1.19878  -1.12407  -1.10655  -1.08763  -0.94251
 Alpha  occ. eigenvalues --   -0.81221  -0.66954  -0.61535  -0.58631  -0.54992
 Alpha  occ. eigenvalues --   -0.53245  -0.51874  -0.49965  -0.48327  -0.46181
 Alpha  occ. eigenvalues --   -0.44247  -0.39802  -0.39609  -0.37457  -0.36903
 Alpha  occ. eigenvalues --   -0.34466  -0.29147  -0.28555  -0.28062
 Alpha virt. eigenvalues --    0.13432   0.14412   0.16472   0.17437   0.18408
 Alpha virt. eigenvalues --    0.19184   0.20001   0.22422   0.23257   0.23662
 Alpha virt. eigenvalues --    0.24138   0.25159   0.25456   0.26135   0.26661

 Mulliken charges:
               1
     1  C    0.361327
     2  C    0.640160
     3  F   -0.954722
     4  H    0.230091
     5  H    0.268409
     6  C   -1.797885
     7  N    0.894022
     8  N    0.590450
     9  H    0.249726
    10  H    0.345149
    11  C   -1.641857
    12  N    0.876796
    13  F   -1.061667
 Sum of Mulliken charges =  -1.00000

 Dipole moment (field-independent basis, Debye):
    X=             -1.5529    Y=             -2.4740    Z=             -0.2288  Tot=              2.9299

 Test job not archived.
 1\1\GINC-SE435\SP\RHF\Aug-CC-pVDZ\C4H4F2N3(1-)\OHZDE\09-Apr-2025\0\\#t
  hf aug-cc-pvdz iop(5/13=1,5/36=2,99/5=2) pseudo=read geom=check guess
 =(read,tcheck) scf=(maxcycle=1)\\title\\-1,1\C,0,-0.052531,0.011569,-1
 .504347\C,0,0.048521,-0.061442,0.020129\F,0,0.083251,-1.330534,-1.9799
 19\H,0,1.110045,-0.258728,0.20041\H,0,-0.166964,0.927448,0.432102\C,0,
 -1.412298,0.400189,-1.96618\N,0,-2.478941,0.732806,-2.328434\N,0,0.919
 575,0.88643,-1.978458\H,0,0.994274,0.829659,-2.985935\H,0,1.829255,0.6
 68341,-1.444824\C,0,-0.844644,-1.050895,0.603478\N,0,-1.559901,-1.8360

 Normal termination of Gaussian 16 at Wed Apr  9 03:02:14 2025.
