 Gaussian 16, Revision C.01,

 ----------------------------------------------------------------------
 #t hf aug-cc-pvdz symm=none int=(grid=ultrafine) guess=(read,tcheck) s
 table=(opt,rrhf)
 ----------------------------------------------------------------------
 -----
 title
 -----
 Symbolic Z-matrix:
 Charge = -1 Multiplicity = 1

 SCF Done:  E(RHF) =  -515.245721337     A.U. after   16 cycles
 Normal termination of Gaussian 16 at Wed Apr  9 02:54:38 2025.
 Gaussian 16:  ES64L-G16RevC.01  3-Jul-2019

 ----------------------------------------------------------------------
 #t hf aug-cc-pvdz iop(5/13=1,5/36=2,99/5=2) pseudo=read geom=check gue
 ss=(read,tcheck) scf=(maxcycle=1)
 ----------------------------------------------------------------------
 -----
 title
 -----
 Structure from the checkpoint file:  "E2SN2_343_mol2.chk"
 Charge = -1 Multiplicity = 1

                         Standard orientation:
 ---------------------------------------------------------------------
 Center     Atomic      Atomic             Coordinates (Angstroms)
 Number     Number       Type             X           Y           Z
 ---------------------------------------------------------------------
      1          6           0       -0.934963   -0.374057    0.012812
      2          6           0        0.175765    0.508409   -0.565418
      3          9           0       -0.471606   -1.708688   -0.116150
      4          1           0        0.295453    0.247111   -1.624486
      5          6           0       -1.237828   -0.118808    1.471901
      6          1           0       -0.337058   -0.195054    2.078600
      7          1           0       -1.675187    0.878428    1.574976
      8          1           0       -1.966084   -0.865062    1.804211
      9          6           0       -2.177861   -0.232874   -0.839457
     10          1           0       -1.948149   -0.440171   -1.888806
     11          1           0       -2.926975   -0.953286   -0.498079
     12          1           0       -2.574014    0.782665   -0.725114
     13          7           0        1.531772   -0.012340   -0.018979
     14          8           0        2.272340   -0.573673   -0.830927
     15          8           0        1.810633    0.174620    1.160585
     16          7           0        0.013201    1.872941   -0.269670
     17          1           0        0.319782    2.453931   -1.038368
     18          1           0       -0.969115    2.187554   -0.003339
     19          1           0       -2.403462    2.754273    0.270001
 ---------------------------------------------------------------------

 SCF Done:  E(RHF) =  -515.765773506     A.U. after    2 cycles

 The electronic state is 1-A.
 Alpha  occ. eigenvalues --  -26.32691 -20.46237 -20.46226 -15.64582 -15.35283
 Alpha  occ. eigenvalues --  -11.21350 -11.20936 -11.10857 -11.09906  -1.52914
 Alpha  occ. eigenvalues --   -1.44723  -1.36874  -1.09444  -0.95643  -0.91746
 Alpha  occ. eigenvalues --   -0.83299  -0.76072  -0.68928  -0.63013  -0.62689
 Alpha  occ. eigenvalues --   -0.61880  -0.58125  -0.55452  -0.53425  -0.52153
 Alpha  occ. eigenvalues --   -0.49799  -0.46642  -0.43432  -0.42760  -0.41459
 Alpha  occ. eigenvalues --   -0.39371  -0.37662  -0.35530  -0.35162  -0.32459
 Alpha  occ. eigenvalues --   -0.30990  -0.10896
 Alpha virt. eigenvalues --    0.12498   0.12655   0.13620   0.15092   0.16058
 Alpha virt. eigenvalues --    0.16777   0.17043   0.18262   0.19208   0.20628
 Alpha virt. eigenvalues --    0.22143   0.22323   0.22829   0.24240   0.24866

 Mulliken charges:
               1
     1  C    0.310393
     2  C   -1.390172
     3  F   -1.066347
     4  H    0.012847
     5  C   -0.170272
     6  H    0.225994
     7  H    0.279050
     8  H    0.186159
     9  C   -0.110931
    10  H    0.221234
    11  H    0.166649
    12  H    0.154922
    13  N    3.100754
    14  O   -1.518810
    15  O   -1.494089
    16  N    0.742928
    17  H    0.241731
    18  H   -0.180456
    19  H   -0.711585
 Sum of Mulliken charges =  -1.00000

 Dipole moment (field-independent basis, Debye):
    X=              3.5659    Y=             -7.2307    Z=             -2.3728  Tot=              8.4041

 Test job not archived.
 1\1\GINC-SE456\SP\RHF\Aug-CC-pVDZ\C4H10F1N2O2(1-)\OHZDE\09-Apr-2025\0\
 \#t hf aug-cc-pvdz iop(5/13=1,5/36=2,99/5=2) pseudo=read geom=check gu
 ess=(read,tcheck) scf=(maxcycle=1)\\title\\-1,1\C,0,-0.022463,0.017072
 ,-0.009254\C,0,-0.366918,-0.067508,-1.49956\F,0,1.394195,0.054196,0.05
 6113\H,0,0.057292,-1.001222,-1.890008\C,0,-0.559136,1.247897,0.685636\
 H,0,-0.247972,2.155652,0.171396\H,0,-1.651003,1.190898,0.716691\H,0,-0
 .172012,1.257184,1.709223\C,0,-0.483094,-1.24875,0.681111\H,0,-0.07094
 4,-2.129741,0.180251\H,0,-0.128501,-1.238752,1.715938\H,0,-1.578708,-1

 Normal termination of Gaussian 16 at Wed Apr  9 02:54:47 2025.
