 Gaussian 16, Revision C.01,

 ----------------------------------------------------------------------
 #t hf aug-cc-pvdz symm=none int=(grid=ultrafine) guess=(read,tcheck) s
 table=(opt,rrhf)
 ----------------------------------------------------------------------
 -----
 title
 -----
 Symbolic Z-matrix:
 Charge = -1 Multiplicity = 1

 SCF Done:  E(RHF) =  -1010.94592399     A.U. after   16 cycles
 Normal termination of Gaussian 16 at Wed Apr  9 02:50:26 2025.
 Gaussian 16:  ES64L-G16RevC.01  3-Jul-2019

 ----------------------------------------------------------------------
 #t hf aug-cc-pvdz iop(5/13=1,5/36=2,99/5=2) pseudo=read geom=check gue
 ss=(read,tcheck) scf=(maxcycle=1)
 ----------------------------------------------------------------------
 -----
 title
 -----
 Structure from the checkpoint file:  "E2SN2_281_mol2.chk"
 Charge = -1 Multiplicity = 1

                         Standard orientation:
 ---------------------------------------------------------------------
 Center     Atomic      Atomic             Coordinates (Angstroms)
 Number     Number       Type             X           Y           Z
 ---------------------------------------------------------------------
      1          6           0       -0.591709   -0.305366   -0.322896
      2          6           0        0.389426    0.628201    0.405669
      3         17           0       -0.071373   -2.051100   -0.112295
      4          1           0        0.026487    1.643729    0.013085
      5          6           0       -1.899446   -0.207912    0.334065
      6          7           0       -2.953928   -0.239300    0.851098
      7          6           0       -0.776426   -0.007183   -1.804419
      8          1           0        0.149115   -0.186971   -2.345590
      9          1           0       -1.049488    1.054101   -1.823068
     10          1           0       -1.572452   -0.637436   -2.207629
     11          7           0        1.778557    0.345413   -0.039033
     12          8           0        2.613785   -0.003960    0.800478
     13          8           0        2.044261    0.502339   -1.233128
     14          6           0        0.277704    0.580673    1.912009
     15          1           0        1.060322    1.193420    2.360192
     16          1           0        0.363434   -0.432095    2.313916
     17          1           0       -0.686965    1.010734    2.183072
     18          9           0       -1.167909    2.484770   -0.439421
 ---------------------------------------------------------------------

 SCF Done:  E(RHF) =  -1011.55788087     A.U. after    2 cycles

 The electronic state is 1-A.
 Alpha  occ. eigenvalues -- -105.45680 -26.11396 -20.47101 -20.46710 -15.66371
 Alpha  occ. eigenvalues --  -15.40233 -11.24534 -11.17665 -11.16851 -11.11935
 Alpha  occ. eigenvalues --  -11.11282 -10.50525  -7.67458  -7.67104  -7.67093
 Alpha  occ. eigenvalues --   -1.53843  -1.37489  -1.18215  -1.11239  -1.06162
 Alpha  occ. eigenvalues --   -0.97935  -0.89178  -0.86172  -0.78219  -0.72346
 Alpha  occ. eigenvalues --   -0.64387  -0.63482  -0.62051  -0.55543  -0.51797
 Alpha  occ. eigenvalues --   -0.50300  -0.49401  -0.46847  -0.44709  -0.42331
 Alpha  occ. eigenvalues --   -0.42028  -0.41111  -0.38042  -0.37509  -0.36483
 Alpha  occ. eigenvalues --   -0.35533  -0.34908  -0.34447  -0.32725  -0.27815
 Alpha  occ. eigenvalues --   -0.27447  -0.25359
 Alpha virt. eigenvalues --    0.13146   0.13164   0.14428   0.14942   0.16079
 Alpha virt. eigenvalues --    0.16611   0.17008   0.18058   0.19437   0.19518
 Alpha virt. eigenvalues --    0.22078   0.23195   0.23676   0.24465   0.25264

 Mulliken charges:
               1
     1  C   -1.370682
     2  C   -0.438377
     3  Cl  -0.088681
     4  H    0.511676
     5  C   -1.380241
     6  N    1.081653
     7  C    0.276572
     8  H    0.242330
     9  H    0.396517
    10  H    0.195050
    11  N    2.966366
    12  O   -1.481941
    13  O   -1.532122
    14  C   -0.149815
    15  H    0.174683
    16  H    0.293215
    17  H    0.322222
    18  F   -1.018424
 Sum of Mulliken charges =  -1.00000

 Dipole moment (field-independent basis, Debye):
    X=              3.5930    Y=             -5.2112    Z=              0.2188  Tot=              6.3336

 Test job not archived.
 1\1\GINC-SE069\SP\RHF\Aug-CC-pVDZ\C5H7Cl1F1N2O2(1-)\OHZDE\09-Apr-2025\
 0\\#t hf aug-cc-pvdz iop(5/13=1,5/36=2,99/5=2) pseudo=read geom=check
 guess=(read,tcheck) scf=(maxcycle=1)\\title\\-1,1\C,0,0.000278,-0.0270
 65,0.011252\C,0,-0.58264,-0.108032,-1.409533\Cl,0,1.832463,-0.056199,-
 0.059026\H,0,-1.691462,-0.26861,-1.160794\C,0,-0.34583,1.279429,0.5809
 5\N,0,-0.520252,2.330356,1.076297\C,0,-0.487246,-1.109634,0.964304\H,0
 ,-0.143452,-2.087122,0.63546\H,0,-1.579041,-1.031455,0.908571\H,0,-0.1
 17245,-0.903721,1.971356\N,0,-0.015759,-1.282967,-2.120579\O,0,0.61360

 Normal termination of Gaussian 16 at Wed Apr  9 02:50:38 2025.
