 Gaussian 16, Revision C.01,

 ----------------------------------------------------------------------
 #t hf aug-cc-pvdz symm=none int=(grid=ultrafine) guess=(read,tcheck) s
 table=(opt,rrhf)
 ----------------------------------------------------------------------
 -----
 title
 -----
 Symbolic Z-matrix:
 Charge = -1 Multiplicity = 1

 SCF Done:  E(RHF) =  -1181.22323953     A.U. after   15 cycles
 Normal termination of Gaussian 16 at Wed Apr  9 02:46:46 2025.
 Gaussian 16:  ES64L-G16RevC.01  3-Jul-2019

 ----------------------------------------------------------------------
 #t hf aug-cc-pvdz iop(5/13=1,5/36=2,99/5=2) pseudo=read geom=check gue
 ss=(read,tcheck) scf=(maxcycle=1)
 ----------------------------------------------------------------------
 -----
 title
 -----
 Structure from the checkpoint file:  "E2SN2_252_mol2.chk"
 Charge = -1 Multiplicity = 1

                         Standard orientation:
 ---------------------------------------------------------------------
 Center     Atomic      Atomic             Coordinates (Angstroms)
 Number     Number       Type             X           Y           Z
 ---------------------------------------------------------------------
      1          6           0        0.303988   -0.465787   -0.124425
      2          6           0        0.219268    0.596565    0.972827
      3         17           0        1.981435   -0.625583   -0.759813
      4          1           0       -0.850849    0.715474    1.177785
      5          1           0       -0.360208   -0.182202   -0.942209
      6          1           0        0.753763    0.265137    1.867283
      7          6           0       -0.106476   -1.760854    0.409379
      8          7           0       -0.364706   -2.812228    0.863541
      9          6           0        0.767300    1.881349    0.548512
     10          7           0        1.242266    2.913882    0.256778
     11         17           0       -2.733794    0.448076   -0.462708
 ---------------------------------------------------------------------

 SCF Done:  E(RHF) =  -1181.63172944     A.U. after    2 cycles

 The electronic state is 1-A.
 Alpha  occ. eigenvalues -- -105.47996-105.29038 -15.42518 -15.41752 -11.25241
 Alpha  occ. eigenvalues --  -11.19651 -11.19410 -11.19124 -10.52836 -10.33631
 Alpha  occ. eigenvalues --   -7.69783  -7.69396  -7.69385  -7.50395  -7.50369
 Alpha  occ. eigenvalues --   -7.50354  -1.13270  -1.12213  -1.05706  -0.94140
 Alpha  occ. eigenvalues --   -0.83907  -0.74407  -0.64392  -0.60229  -0.57406
 Alpha  occ. eigenvalues --   -0.52263  -0.51208  -0.49684  -0.47890  -0.40765
 Alpha  occ. eigenvalues --   -0.39814  -0.39273  -0.38580  -0.36935  -0.36224
 Alpha  occ. eigenvalues --   -0.21789  -0.21411  -0.21290
 Alpha virt. eigenvalues --    0.12391   0.14991   0.16130   0.16802   0.17398
 Alpha virt. eigenvalues --    0.18865   0.20851   0.21609   0.22509   0.22869
 Alpha virt. eigenvalues --    0.23349   0.24346   0.25283   0.25729   0.26039

 Mulliken charges:
               1
     1  C   -0.166418
     2  C    0.219920
     3  Cl  -0.026751
     4  H    0.374600
     5  H    0.293899
     6  H    0.257019
     7  C   -1.278034
     8  N    0.875484
     9  C   -1.459765
    10  N    0.854097
    11  Cl  -0.944050
 Sum of Mulliken charges =  -1.00000

 Dipole moment (field-independent basis, Debye):
    X=              8.0324    Y=             -1.6347    Z=              1.8432  Tot=              8.4017

 Test job not archived.
 1\1\GINC-SE149\SP\RHF\Aug-CC-pVDZ\C4H3Cl2N2(1-)\OHZDE\09-Apr-2025\0\\#
 t hf aug-cc-pvdz iop(5/13=1,5/36=2,99/5=2) pseudo=read geom=check gues
 s=(read,tcheck) scf=(maxcycle=1)\\title\\-1,1\C,0,-0.111461,0.045467,0
 .013928\C,0,-0.516402,-0.088571,-1.455013\Cl,0,1.627729,-0.353074,0.25
 7779\H,0,-1.60624,0.02732,-1.465965\H,0,-0.719245,-0.635942,0.611112\H
 ,0,-0.035049,0.687649,-2.056147\C,0,-0.332329,1.41636,0.46392\N,0,-0.4
 4081,2.53666,0.797826\C,0,-0.171828,-1.393404,-2.011549\N,0,0.133186,-
 2.413864,-2.503945\Cl,0,-3.207481,-0.648246,0.347274\\Version=ES64L-G1

 Normal termination of Gaussian 16 at Wed Apr  9 02:46:51 2025.
