 Gaussian 16, Revision C.01,

 ----------------------------------------------------------------------
 #t hf aug-cc-pvdz symm=none int=(grid=ultrafine) guess=(read,tcheck) s
 table=(opt,rrhf)
 ----------------------------------------------------------------------
 -----
 title
 -----
 Symbolic Z-matrix:
 Charge = -1 Multiplicity = 1

 SCF Done:  E(RHF) =  -1331.97198740     A.U. after   16 cycles
 Normal termination of Gaussian 16 at Wed Apr  9 02:54:44 2025.
 Gaussian 16:  ES64L-G16RevC.01  3-Jul-2019

 ----------------------------------------------------------------------
 #t hf aug-cc-pvdz iop(5/13=1,5/36=2,99/5=2) pseudo=read geom=check gue
 ss=(read,tcheck) scf=(maxcycle=1)
 ----------------------------------------------------------------------
 -----
 title
 -----
 Structure from the checkpoint file:  "E2SN2_329_mol1.chk"
 Charge = -1 Multiplicity = 1

                         Standard orientation:
 ---------------------------------------------------------------------
 Center     Atomic      Atomic             Coordinates (Angstroms)
 Number     Number       Type             X           Y           Z
 ---------------------------------------------------------------------
      1          6           0        0.078033   -0.061420    0.167256
      2          1           0       -0.194299   -1.485696   -1.434086
      3         17           0       -1.350697    1.824195    0.173256
      4         17           0        1.756869   -1.700287    0.076972
      5          6           0       -0.744060   -0.675893   -0.955970
      6          1           0       -0.965594    0.080445   -1.705313
      7          6           0       -0.133767   -0.345128    1.631776
      8          1           0       -1.041039    0.128254    1.996096
      9          1           0       -0.192000   -1.420760    1.784504
     10          1           0        0.725580    0.035452    2.179454
     11          7           0        1.137118    0.898927   -0.276479
     12          8           0        1.273620    1.041744   -1.485792
     13          8           0        1.793296    1.458373    0.589419
     14          6           0       -1.998315   -1.214259   -0.438643
     15          7           0       -2.992012   -1.708195   -0.056388
 ---------------------------------------------------------------------

 SCF Done:  E(RHF) =  -1332.53040121     A.U. after    2 cycles

 The electronic state is 1-A.
 Alpha  occ. eigenvalues -- -105.36205-105.35635 -20.47379 -20.47247 -15.68557
 Alpha  occ. eigenvalues --  -15.41398 -11.31661 -11.19207 -11.18929 -11.13687
 Alpha  occ. eigenvalues --  -10.41025 -10.40460  -7.57851  -7.57677  -7.57674
 Alpha  occ. eigenvalues --   -7.57286  -7.57116  -7.57112  -1.55274  -1.39137
 Alpha  occ. eigenvalues --   -1.12140  -1.06271  -0.93299  -0.88660  -0.83458
 Alpha  occ. eigenvalues --   -0.81104  -0.72442  -0.64775  -0.63040  -0.62456
 Alpha  occ. eigenvalues --   -0.60011  -0.54614  -0.51057  -0.49833  -0.48839
 Alpha  occ. eigenvalues --   -0.45125  -0.39903  -0.39068  -0.37906  -0.36957
 Alpha  occ. eigenvalues --   -0.33607  -0.31259  -0.28567  -0.28522  -0.27684
 Alpha  occ. eigenvalues --   -0.27094  -0.26141
 Alpha virt. eigenvalues --    0.13568   0.13650   0.13691   0.15169   0.15691
 Alpha virt. eigenvalues --    0.15932   0.17880   0.19484   0.20949   0.22067
 Alpha virt. eigenvalues --    0.22659   0.24211   0.24572   0.24831   0.25324

 Mulliken charges:
               1
     1  C   -1.468000
     2  H    0.310763
     3  Cl  -0.623308
     4  Cl  -0.601368
     5  C    0.403537
     6  H    0.405444
     7  C   -0.043265
     8  H    0.295977
     9  H    0.381086
    10  H    0.208435
    11  N    3.239080
    12  O   -1.465804
    13  O   -1.526552
    14  C   -1.393738
    15  N    0.877715
 Sum of Mulliken charges =  -1.00000

 Dipole moment (field-independent basis, Debye):
    X=              0.6659    Y=             -0.6294    Z=             -0.3895  Tot=              0.9956

 Test job not archived.
 1\1\GINC-SE021\SP\RHF\Aug-CC-pVDZ\C4H5Cl2N2O2(1-)\OHZDE\09-Apr-2025\0\
 \#t hf aug-cc-pvdz iop(5/13=1,5/36=2,99/5=2) pseudo=read geom=check gu
 ess=(read,tcheck) scf=(maxcycle=1)\\title\\-1,1\C,0,0.66798441,-0.0391
 7252,-0.06393148\H,0,1.46237323,1.94930539,0.22229565\Cl,0,-1.66992278
 ,-0.30093887,0.18610519\Cl,0,3.01409416,0.03203146,-0.00711225\C,0,0.5
 0423935,1.47103859,0.02266057\H,0,-0.18090283,1.72067564,0.82944535\C,
 0,0.71311929,-0.81891515,-1.35239333\H,0,-0.26808257,-0.86842549,-1.81
 580803\H,0,1.4191268,-0.34758683,-2.03291167\H,0,1.06621457,-1.8233827

 Normal termination of Gaussian 16 at Wed Apr  9 02:54:53 2025.
