 Gaussian 16, Revision C.01,

 ----------------------------------------------------------------------
 #t hf aug-cc-pvdz symm=none int=(grid=ultrafine) guess=(read,tcheck) s
 table=(opt,rrhf)
 ----------------------------------------------------------------------
 -----
 title
 -----
 Symbolic Z-matrix:
 Charge = -1 Multiplicity = 1

 SCF Done:  E(RHF) =  -935.293060044     A.U. after   15 cycles
 Normal termination of Gaussian 16 at Wed Apr  9 02:55:39 2025.
 Gaussian 16:  ES64L-G16RevC.01  3-Jul-2019

 ----------------------------------------------------------------------
 #t hf aug-cc-pvdz iop(5/13=1,5/36=2,99/5=2) pseudo=read geom=check gue
 ss=(read,tcheck) scf=(maxcycle=1)
 ----------------------------------------------------------------------
 -----
 title
 -----
 Structure from the checkpoint file:  "E2SN2_356_mol2.chk"
 Charge = -1 Multiplicity = 1

                         Standard orientation:
 ---------------------------------------------------------------------
 Center     Atomic      Atomic             Coordinates (Angstroms)
 Number     Number       Type             X           Y           Z
 ---------------------------------------------------------------------
      1          6           0        0.145215    1.025315    0.078574
      2          6           0        0.460160   -0.258703   -0.704728
      3          9           0        1.382436    1.682874    0.234858
      4          1           0        0.738398   -0.038980   -1.733532
      5          1           0       -0.416989   -0.911511   -0.653266
      6          6           0       -0.760280    1.903439   -0.755002
      7          1           0       -1.694240    1.373013   -0.950734
      8          1           0       -0.966305    2.811448   -0.186223
      9          1           0       -0.270284    2.168150   -1.694608
     10          7           0       -0.415073    0.840730    1.379756
     11          1           0        0.127688    0.137603    1.869090
     12          1           0       -1.346797    0.444763    1.243566
     13          7           0        1.628015   -0.970006   -0.127686
     14          8           0        1.556370   -1.343195    1.043926
     15          8           0        2.609489   -1.145710   -0.850329
     16         17           0       -2.911849   -0.960852   -0.119667
 ---------------------------------------------------------------------

 SCF Done:  E(RHF) =  -935.843436814     A.U. after    2 cycles

 The electronic state is 1-A.
 Alpha  occ. eigenvalues -- -105.29136 -26.33384 -20.48473 -20.48147 -15.67690
 Alpha  occ. eigenvalues --  -15.36287 -11.24790 -11.18268 -11.11834 -10.33726
 Alpha  occ. eigenvalues --   -7.50488  -7.50464  -7.50455  -1.55305  -1.45909
 Alpha  occ. eigenvalues --   -1.39090  -1.09062  -1.01105  -0.90182  -0.78593
 Alpha  occ. eigenvalues --   -0.74554  -0.71717  -0.66201  -0.64760  -0.64238
 Alpha  occ. eigenvalues --   -0.59142  -0.57648  -0.55089  -0.51329  -0.48632
 Alpha  occ. eigenvalues --   -0.46372  -0.44375  -0.42460  -0.40980  -0.38733
 Alpha  occ. eigenvalues --   -0.37499  -0.34354  -0.32857  -0.21840  -0.21539
 Alpha  occ. eigenvalues --   -0.21422
 Alpha virt. eigenvalues --    0.12511   0.13318   0.14796   0.15801   0.16378
 Alpha virt. eigenvalues --    0.16773   0.17899   0.19305   0.19619   0.21450
 Alpha virt. eigenvalues --    0.23525   0.24777   0.25049   0.25134   0.26383

 Mulliken charges:
               1
     1  C   -0.604377
     2  C   -0.372619
     3  F   -1.080902
     4  H    0.088431
     5  H    0.175451
     6  C   -0.036561
     7  H    0.266070
     8  H    0.165274
     9  H    0.155923
    10  N    0.702546
    11  H    0.214396
    12  H    0.266151
    13  N    2.971851
    14  O   -1.481716
    15  O   -1.463071
    16  Cl  -0.966846
 Sum of Mulliken charges =  -1.00000

 Dipole moment (field-independent basis, Debye):
    X=              6.2949    Y=              3.4022    Z=             -1.6346  Tot=              7.3398

 Test job not archived.
 1\1\GINC-SE071\SP\RHF\Aug-CC-pVDZ\C3H7Cl1F1N2O2(1-)\OHZDE\09-Apr-2025\
 0\\#t hf aug-cc-pvdz iop(5/13=1,5/36=2,99/5=2) pseudo=read geom=check
 guess=(read,tcheck) scf=(maxcycle=1)\\title\\-1,1\C,0,-0.007183,0.0062
 05,0.011486\C,0,-0.43645,0.131632,-1.458702\F,0,1.40087,-0.05956,-0.01
 2729\H,0,-0.165338,1.101516,-1.870959\H,0,-1.515478,-0.044137,-1.51346
 2\C,0,-0.413981,1.258877,0.753915\H,0,-1.499849,1.364328,0.712496\H,0,
 -0.094877,1.154199,1.792015\H,0,0.069174,2.133667,0.313085\N,0,-0.4833
 24,-1.149112,0.704018\H,0,-0.328541,-1.96339,0.119707\H,0,-1.495568,-1

 Normal termination of Gaussian 16 at Wed Apr  9 02:55:46 2025.
