 Gaussian 16, Revision C.01,

 ----------------------------------------------------------------------
 #t hf aug-cc-pvdz symm=none int=(grid=ultrafine) guess=(read,tcheck) s
 table=(opt,rrhf)
 ----------------------------------------------------------------------
 -----
 title
 -----
 Symbolic Z-matrix:
 Charge = -1 Multiplicity = 1

 SCF Done:  E(RHF) =  -492.218502849     A.U. after   15 cycles
 Normal termination of Gaussian 16 at Wed Apr  9 02:40:53 2025.
 Gaussian 16:  ES64L-G16RevC.01  3-Jul-2019

 ----------------------------------------------------------------------
 #t hf aug-cc-pvdz iop(5/13=1,5/36=2,99/5=2) pseudo=read geom=check gue
 ss=(read,tcheck) scf=(maxcycle=1)
 ----------------------------------------------------------------------
 -----
 title
 -----
 Structure from the checkpoint file:  "E2SN2_198_mol2.chk"
 Charge = -1 Multiplicity = 1

                         Standard orientation:
 ---------------------------------------------------------------------
 Center     Atomic      Atomic             Coordinates (Angstroms)
 Number     Number       Type             X           Y           Z
 ---------------------------------------------------------------------
      1          6           0       -1.015630   -0.493043    0.318853
      2          6           0       -0.049916    0.504163   -0.309293
      3          9           0       -0.605133   -1.782040   -0.129471
      4          1           0       -0.166058    0.465619   -1.393018
      5          1           0       -0.856604   -0.531736    1.402994
      6          7           0       -2.334006   -0.210486   -0.065233
      7          1           0       -2.977740   -0.216095    0.710301
      8          1           0       -2.444840    0.668377   -0.608927
      9          7           0        1.351041    0.018582   -0.035100
     10          8           0        2.078507   -0.260435   -0.985134
     11          8           0        1.685632   -0.046030    1.147967
     12          7           0       -0.164676    1.854067    0.136358
     13          1           0       -0.396039    1.865997    1.123872
     14          1           0       -0.975592    2.250876   -0.390537
     15          1           0       -2.423276    2.285187   -1.291649
 ---------------------------------------------------------------------

 SCF Done:  E(RHF) =  -492.707575187     A.U. after    2 cycles

 The electronic state is 1-A.
 Alpha  occ. eigenvalues --  -26.31803 -20.47360 -20.46851 -15.65843 -15.36356
 Alpha  occ. eigenvalues --  -15.36046 -11.23486 -11.20425  -1.53947  -1.43803
 Alpha  occ. eigenvalues --   -1.37898  -1.11462  -1.05828  -0.94633  -0.80894
 Alpha  occ. eigenvalues --   -0.72691  -0.67189  -0.63551  -0.62769  -0.59686
 Alpha  occ. eigenvalues --   -0.58102  -0.55951  -0.53452  -0.51481  -0.47308
 Alpha  occ. eigenvalues --   -0.45406  -0.40758  -0.38228  -0.36645  -0.33306
 Alpha  occ. eigenvalues --   -0.32765  -0.32309  -0.12029
 Alpha virt. eigenvalues --    0.12916   0.14584   0.15023   0.16247   0.18129
 Alpha virt. eigenvalues --    0.18723   0.19691   0.21479   0.21652   0.22477
 Alpha virt. eigenvalues --    0.23784   0.24446   0.25660   0.26148   0.27249

 Mulliken charges:
               1
     1  C    0.785523
     2  C   -1.906957
     3  F   -0.903477
     4  H    0.088385
     5  H    0.047220
     6  N    0.428925
     7  H    0.207844
     8  H   -0.031415
     9  N    3.086462
    10  O   -1.415349
    11  O   -1.488385
    12  N    0.433518
    13  H    0.313665
    14  H    0.121706
    15  H   -0.767665
 Sum of Mulliken charges =  -1.00000

 Dipole moment (field-independent basis, Debye):
    X=              3.7617    Y=             -5.2148    Z=              5.4877  Tot=              8.4534

 Test job not archived.
 1\1\GINC-SE343\SP\RHF\Aug-CC-pVDZ\C2H7F1N3O2(1-)\OHZDE\09-Apr-2025\0\\
 #t hf aug-cc-pvdz iop(5/13=1,5/36=2,99/5=2) pseudo=read geom=check gue
 ss=(read,tcheck) scf=(maxcycle=1)\\title\\-1,1\C,0,0.129353,0.045675,-
 0.001725\C,0,-0.411862,0.196379,-1.418046\F,0,1.423694,-0.536883,-0.12
 9486\H,0,-0.524946,-0.796545,-1.854794\H,0,0.330279,1.034867,0.426384\
 N,0,-0.722993,-0.758307,0.768075\H,0,-0.922824,-0.362803,1.67335\H,0,-
 1.610162,-1.021332,0.294748\N,0,0.648454,0.882322,-2.241978\O,0,1.1243
 01,0.290269,-3.207723\O,0,0.956678,2.023067,-1.896329\N,0,-1.634853,0.

 Normal termination of Gaussian 16 at Wed Apr  9 02:40:58 2025.
