 Gaussian 16, Revision C.01,

 ----------------------------------------------------------------------
 #t hf aug-cc-pvdz symm=none int=(grid=ultrafine) guess=(read,tcheck) s
 table=(opt,rrhf)
 ----------------------------------------------------------------------
 -----
 title
 -----
 Symbolic Z-matrix:
 Charge = -1 Multiplicity = 1

 SCF Done:  E(RHF) =  -876.155899079     A.U. after   15 cycles
 Normal termination of Gaussian 16 at Wed Apr  9 02:36:58 2025.
 Gaussian 16:  ES64L-G16RevC.01  3-Jul-2019

 ----------------------------------------------------------------------
 #t hf aug-cc-pvdz iop(5/13=1,5/36=2,99/5=2) pseudo=read geom=check gue
 ss=(read,tcheck) scf=(maxcycle=1)
 ----------------------------------------------------------------------
 -----
 title
 -----
 Structure from the checkpoint file:  "E2SN2_144_mol2.chk"
 Charge = -1 Multiplicity = 1

                         Standard orientation:
 ---------------------------------------------------------------------
 Center     Atomic      Atomic             Coordinates (Angstroms)
 Number     Number       Type             X           Y           Z
 ---------------------------------------------------------------------
      1          6           0       -0.297647   -0.221368    0.161133
      2          6           0        0.538910    0.551543   -0.880571
      3         17           0        0.293185   -1.955439    0.208786
      4          1           0        0.101301    1.551574   -0.793418
      5          1           0        0.421729    0.131000   -1.882911
      6          7           0       -0.295116    0.337430    1.472320
      7          1           0        0.670985    0.377992    1.786832
      8          1           0       -0.621763    1.327438    1.252251
      9          6           0       -1.680593   -0.280189   -0.342322
     10          7           0       -2.760924   -0.401470   -0.785020
     11          6           0        1.947174    0.575856   -0.515843
     12          7           0        3.083814    0.607230   -0.220935
     13          9           0       -0.977541    2.477454    0.254328
 ---------------------------------------------------------------------

 SCF Done:  E(RHF) =  -876.634542902     A.U. after    2 cycles

 The electronic state is 1-A.
 Alpha  occ. eigenvalues -- -105.45409 -26.12490 -15.40779 -15.40346 -15.36192
 Alpha  occ. eigenvalues --  -11.26854 -11.18231 -11.17472 -11.16102 -10.50282
 Alpha  occ. eigenvalues --   -7.67212  -7.66848  -7.66840  -1.19712  -1.13167
 Alpha  occ. eigenvalues --   -1.11107  -1.09010  -0.96986  -0.91944  -0.80486
 Alpha  occ. eigenvalues --   -0.61234  -0.59723  -0.57259  -0.53762  -0.52406
 Alpha  occ. eigenvalues --   -0.49646  -0.48523  -0.44384  -0.39410  -0.38740
 Alpha  occ. eigenvalues --   -0.38173  -0.37742  -0.35582  -0.34772  -0.33536
 Alpha  occ. eigenvalues --   -0.28973  -0.28307  -0.27606
 Alpha virt. eigenvalues --    0.13174   0.14972   0.16548   0.17073   0.17404
 Alpha virt. eigenvalues --    0.18696   0.19413   0.21556   0.22624   0.23456
 Alpha virt. eigenvalues --    0.24092   0.24587   0.25009   0.25650   0.26292

 Mulliken charges:
               1
     1  C   -1.790382
     2  C    0.815364
     3  Cl  -0.004297
     4  H    0.371730
     5  H    0.242886
     6  N    0.685841
     7  H    0.248453
     8  H    0.356790
     9  C   -1.258322
    10  N    0.956300
    11  C   -1.548853
    12  N    0.890904
    13  F   -0.966415
 Sum of Mulliken charges =  -1.00000

 Dipole moment (field-independent basis, Debye):
    X=              2.8502    Y=             -4.9290    Z=             -1.3406  Tot=              5.8495

 Test job not archived.
 1\1\GINC-SE338\SP\RHF\Aug-CC-pVDZ\C4H4Cl1F1N3(1-)\OHZDE\09-Apr-2025\0\
 \#t hf aug-cc-pvdz iop(5/13=1,5/36=2,99/5=2) pseudo=read geom=check gu
 ess=(read,tcheck) scf=(maxcycle=1)\\title\\-1,1\C,0,-0.016441,0.13209,
 -1.507136\C,0,-0.068876,0.004161,0.030151\Cl,0,-1.700816,0.521994,-2.1
 14764\H,0,0.982031,-0.207122,0.254011\H,0,-0.733053,-0.805507,0.344123
 \N,0,0.92013,1.085725,-2.001997\H,0,0.678911,1.98893,-1.60206\H,0,1.80
 8998,0.733382,-1.531877\C,0,0.30931,-1.198729,-2.04776\N,0,0.482612,-2
 .276044,-2.480386\C,0,-0.483184,1.252873,0.651354\N,0,-0.807469,2.2615

 Normal termination of Gaussian 16 at Wed Apr  9 02:37:04 2025.
