 Gaussian 16, Revision C.01,

 ----------------------------------------------------------------------
 #t hf aug-cc-pvdz symm=none int=(grid=ultrafine) guess=(read,tcheck) s
 table=(opt,rrhf)
 ----------------------------------------------------------------------
 -----
 title
 -----
 Symbolic Z-matrix:
 Charge = -1 Multiplicity = 1

 SCF Done:  E(RHF) =  -876.157682753     A.U. after   16 cycles
 Normal termination of Gaussian 16 at Wed Apr  9 02:58:03 2025.
 Gaussian 16:  ES64L-G16RevC.01  3-Jul-2019

 ----------------------------------------------------------------------
 #t hf aug-cc-pvdz iop(5/13=1,5/36=2,99/5=2) pseudo=read geom=check gue
 ss=(read,tcheck) scf=(maxcycle=1)
 ----------------------------------------------------------------------
 -----
 title
 -----
 Structure from the checkpoint file:  "E2SN2_385_mol2.chk"
 Charge = -1 Multiplicity = 1

                         Standard orientation:
 ---------------------------------------------------------------------
 Center     Atomic      Atomic             Coordinates (Angstroms)
 Number     Number       Type             X           Y           Z
 ---------------------------------------------------------------------
      1          6           0       -0.320023   -0.202233    0.142629
      2          6           0        0.594371    0.531990   -0.838712
      3         17           0        0.160050   -1.975972    0.246482
      4          1           0        0.457309    0.152637   -1.854071
      5          1           0        0.235168    1.585076   -0.734846
      6          7           0       -0.225194    0.417287    1.411809
      7          1           0       -0.940246    0.045752    2.027828
      8          1           0       -0.430225    1.443888    1.176305
      9          6           0       -1.685085   -0.237775   -0.431689
     10          7           0       -2.788014   -0.278224   -0.836305
     11          6           0        1.997848    0.428574   -0.466257
     12          7           0        3.147127    0.368377   -0.233172
     13          9           0       -0.722549    2.632084    0.262493
 ---------------------------------------------------------------------

 SCF Done:  E(RHF) =  -876.636280628     A.U. after    2 cycles

 The electronic state is 1-A.
 Alpha  occ. eigenvalues -- -105.45292 -26.12932 -15.41019 -15.39523 -15.36291
 Alpha  occ. eigenvalues --  -11.26937 -11.17970 -11.17184 -11.15907 -10.50163
 Alpha  occ. eigenvalues --   -7.67088  -7.66727  -7.66722  -1.20217  -1.13341
 Alpha  occ. eigenvalues --   -1.10306  -1.09166  -0.96846  -0.91747  -0.79476
 Alpha  occ. eigenvalues --   -0.63650  -0.60615  -0.56462  -0.53433  -0.50169
 Alpha  occ. eigenvalues --   -0.48780  -0.48126  -0.45318  -0.39796  -0.38914
 Alpha  occ. eigenvalues --   -0.37192  -0.37071  -0.35160  -0.34562  -0.34188
 Alpha  occ. eigenvalues --   -0.29412  -0.28409  -0.28001
 Alpha virt. eigenvalues --    0.13315   0.14296   0.16911   0.17065   0.17343
 Alpha virt. eigenvalues --    0.18498   0.19403   0.21701   0.22404   0.23579
 Alpha virt. eigenvalues --    0.23942   0.24742   0.25142   0.25273   0.26082

 Mulliken charges:
               1
     1  C   -1.869602
     2  C    0.889354
     3  Cl  -0.002900
     4  H    0.190962
     5  H    0.396356
     6  N    0.589697
     7  H    0.192801
     8  H    0.426503
     9  C   -0.945214
    10  N    0.861723
    11  C   -1.631480
    12  N    0.900098
    13  F   -0.998297
 Sum of Mulliken charges =  -1.00000

 Dipole moment (field-independent basis, Debye):
    X=              0.0309    Y=             -5.6032    Z=             -0.7168  Tot=              5.6490

 Test job not archived.
 1\1\GINC-SE059\SP\RHF\Aug-CC-pVDZ\C4H4Cl1F1N3(1-)\OHZDE\09-Apr-2025\0\
 \#t hf aug-cc-pvdz iop(5/13=1,5/36=2,99/5=2) pseudo=read geom=check gu
 ess=(read,tcheck) scf=(maxcycle=1)\\title\\-1,1\C,0,0.002361,-0.025043
 ,0.003892\C,0,-0.527458,-0.066077,-1.429928\Cl,0,1.839909,0.078619,-0.
 004868\H,0,-0.205375,-0.97916,-1.936081\H,0,-1.632048,-0.050079,-1.261
 317\N,0,-0.558897,1.090531,0.670301\H,0,-0.344718,1.040519,1.660474\H,
 0,-1.609278,0.944684,0.50648\C,0,-0.275557,-1.333857,0.639712\N,0,-0.4
 87652,-2.348389,1.194277\C,0,-0.108996,1.093008,-2.204896\N,0,0.208568

 Normal termination of Gaussian 16 at Wed Apr  9 02:58:10 2025.
