 Gaussian 16, Revision C.01,

 ----------------------------------------------------------------------
 #t hf aug-cc-pvdz symm=none int=(grid=ultrafine) guess=(read,tcheck) s
 table=(opt,rrhf)
 ----------------------------------------------------------------------
 -----
 title
 -----
 Symbolic Z-matrix:
 Charge = -1 Multiplicity = 1

 SCF Done:  E(RHF) =  -518.381932608     A.U. after   15 cycles
 Normal termination of Gaussian 16 at Wed Apr  9 02:59:41 2025.
 Gaussian 16:  ES64L-G16RevC.01  3-Jul-2019

 ----------------------------------------------------------------------
 #t hf aug-cc-pvdz iop(5/13=1,5/36=2,99/5=2) pseudo=read geom=check gue
 ss=(read,tcheck) scf=(maxcycle=1)
 ----------------------------------------------------------------------
 -----
 title
 -----
 Structure from the checkpoint file:  "E2SN2_405_mol1.chk"
 Charge = -1 Multiplicity = 1

                         Standard orientation:
 ---------------------------------------------------------------------
 Center     Atomic      Atomic             Coordinates (Angstroms)
 Number     Number       Type             X           Y           Z
 ---------------------------------------------------------------------
      1          6           0       -0.692889   -0.086219    0.137181
      2          1           0        0.316758    0.047379   -1.733218
      3          9           0        0.169040    0.516143    1.630261
      4          9           0       -1.580742   -0.653087   -1.410488
      5          6           0        0.528282    0.330124   -0.703203
      6          7           0       -1.730179    0.877057    0.357605
      7          1           0       -1.878177    0.928486    1.354961
      8          1           0       -2.537937    0.529720   -0.138233
      9          6           0       -0.782869   -1.511890    0.649228
     10          1           0       -1.832376   -1.804961    0.653190
     11          1           0       -0.261807   -2.188135   -0.028864
     12          1           0       -0.356211   -1.584462    1.647893
     13          6           0        1.716715   -0.435572   -0.265675
     14          7           0        2.721579   -0.995032   -0.022482
     15          7           0        0.757952    1.773190   -0.632430
     16          1           0        1.714566    1.957249   -0.916178
     17          1           0        0.679601    1.982055    0.358456
 ---------------------------------------------------------------------

 SCF Done:  E(RHF) =  -518.895798166     A.U. after    2 cycles

 The electronic state is 1-A.
 Alpha  occ. eigenvalues --  -26.16873 -26.14893 -15.37350 -15.35259 -15.34127
 Alpha  occ. eigenvalues --  -11.23428 -11.16000 -11.14751 -11.08528  -1.26068
 Alpha  occ. eigenvalues --   -1.23278  -1.08747  -1.05809  -1.03288  -0.88475
 Alpha  occ. eigenvalues --   -0.81407  -0.67755  -0.57945  -0.56720  -0.55961
 Alpha  occ. eigenvalues --   -0.51793  -0.48099  -0.46769  -0.46286  -0.44477
 Alpha  occ. eigenvalues --   -0.39572  -0.37165  -0.36280  -0.34023  -0.33406
 Alpha  occ. eigenvalues --   -0.32911  -0.31625  -0.31046  -0.30326  -0.28796
 Alpha  occ. eigenvalues --   -0.28278
 Alpha virt. eigenvalues --    0.13672   0.13951   0.14326   0.15334   0.15667
 Alpha virt. eigenvalues --    0.16599   0.17281   0.18184   0.19272   0.22521
 Alpha virt. eigenvalues --    0.23851   0.24651   0.25133   0.26547   0.26911

 Mulliken charges:
               1
     1  C   -0.760325
     2  H    0.216602
     3  F   -0.943591
     4  F   -0.946496
     5  C   -0.731396
     6  N    0.747259
     7  H    0.323490
     8  H    0.327164
     9  C   -0.341178
    10  H    0.083402
    11  H    0.294341
    12  H    0.318467
    13  C   -1.582332
    14  N    0.970408
    15  N    0.532275
    16  H    0.111461
    17  H    0.380450
 Sum of Mulliken charges =  -1.00000

 Dipole moment (field-independent basis, Debye):
    X=             -1.1833    Y=              0.6437    Z=              0.6001  Tot=              1.4747

 Test job not archived.
 1\1\GINC-SE143\SP\RHF\Aug-CC-pVDZ\C4H8F2N3(1-)\OHZDE\09-Apr-2025\0\\#t
  hf aug-cc-pvdz iop(5/13=1,5/36=2,99/5=2) pseudo=read geom=check guess
 =(read,tcheck) scf=(maxcycle=1)\\title\\-1,1\C,0,0.61417243,-0.0474300
 3,-0.00720715\H,0,1.72017371,1.76961603,0.09637896\F,0,-1.20695554,0.0
 5262216,-0.09957052\F,0,2.48394675,-0.12999764,0.0378316\C,0,0.671288,
 1.49119699,0.00727343\N,0,0.63304198,-0.71923346,-1.27242706\H,0,-0.16
 470177,-1.33774527,-1.29015774\H,0,1.51123363,-1.21576965,-1.30709097\
 C,0,0.60043146,-0.79620882,1.31262941\H,0,1.14637049,-1.72964757,1.178

 Normal termination of Gaussian 16 at Wed Apr  9 02:59:49 2025.
