 Gaussian 16, Revision C.01,

 ----------------------------------------------------------------------
 #t hf aug-cc-pvdz symm=none int=(grid=ultrafine) guess=(read,tcheck) s
 table=(opt,rrhf)
 ----------------------------------------------------------------------
 -----
 title
 -----
 Symbolic Z-matrix:
 Charge = -1 Multiplicity = 1

 SCF Done:  E(RHF) =  -987.975003485     A.U. after   16 cycles
 Normal termination of Gaussian 16 at Wed Apr  9 02:43:27 2025.
 Gaussian 16:  ES64L-G16RevC.01  3-Jul-2019

 ----------------------------------------------------------------------
 #t hf aug-cc-pvdz iop(5/13=1,5/36=2,99/5=2) pseudo=read geom=check gue
 ss=(read,tcheck) scf=(maxcycle=1)
 ----------------------------------------------------------------------
 -----
 title
 -----
 Structure from the checkpoint file:  "E2SN2_219_mol2.chk"
 Charge = -1 Multiplicity = 1

                         Standard orientation:
 ---------------------------------------------------------------------
 Center     Atomic      Atomic             Coordinates (Angstroms)
 Number     Number       Type             X           Y           Z
 ---------------------------------------------------------------------
      1          6           0        0.106462   -0.513866   -0.426922
      2          6           0       -0.078844    0.948623    0.007679
      3          9           0        0.436983   -0.566533   -1.743156
      4          1           0       -0.816031    1.323986   -0.709307
      5          1           0       -0.813976   -1.066024   -0.232637
      6          7           0        1.228287   -1.153832    0.346556
      7          8           0        1.006933   -1.322326    1.546331
      8          8           0        2.267550   -1.437061   -0.236701
      9          6           0        1.187624    1.677088   -0.183307
     10          7           0        2.204976    2.246776   -0.320595
     11          7           0       -0.616352    1.174160    1.330326
     12          1           0       -0.129118    0.589993    1.999019
     13          1           0       -1.588146    0.865414    1.280034
     14         17           0       -3.164192   -0.181193   -0.176732
 ---------------------------------------------------------------------

 SCF Done:  E(RHF) =  -988.562051663     A.U. after    2 cycles

 The electronic state is 1-A.
 Alpha  occ. eigenvalues -- -105.30413 -26.39058 -20.51130 -20.50387 -15.69867
 Alpha  occ. eigenvalues --  -15.42450 -15.38925 -11.29616 -11.22457 -11.19191
 Alpha  occ. eigenvalues --  -10.35031  -7.51796  -7.51768  -7.51755  -1.58107
 Alpha  occ. eigenvalues --   -1.52189  -1.41795  -1.13773  -1.10629  -1.01883
 Alpha  occ. eigenvalues --   -0.89423  -0.78740  -0.75956  -0.72000  -0.67950
 Alpha  occ. eigenvalues --   -0.67306  -0.63809  -0.61654  -0.60158  -0.56265
 Alpha  occ. eigenvalues --   -0.53569  -0.51751  -0.49485  -0.47389  -0.41036
 Alpha  occ. eigenvalues --   -0.40784  -0.40171  -0.39441  -0.36335  -0.34970
 Alpha  occ. eigenvalues --   -0.23321  -0.22955  -0.22802
 Alpha virt. eigenvalues --    0.14135   0.14460   0.14919   0.15812   0.17620
 Alpha virt. eigenvalues --    0.17893   0.20298   0.21148   0.21728   0.22348
 Alpha virt. eigenvalues --    0.23423   0.23924   0.24999   0.25531   0.26249

 Mulliken charges:
               1
     1  C    1.325945
     2  C   -1.279386
     3  F   -0.815678
     4  H    0.237985
     5  H    0.144720
     6  N    2.704642
     7  O   -1.486521
     8  O   -1.369512
     9  C   -1.677308
    10  N    0.950515
    11  N    0.754373
    12  H    0.215872
    13  H    0.244432
    14  Cl  -0.950076
 Sum of Mulliken charges =  -1.00000

 Dipole moment (field-independent basis, Debye):
    X=              5.0101    Y=             -1.4773    Z=              0.4214  Tot=              5.2403

 Test job not archived.
 1\1\GINC-SE412\SP\RHF\Aug-CC-pVDZ\C3H4Cl1F1N3O2(1-)\OHZDE\09-Apr-2025\
 0\\#t hf aug-cc-pvdz iop(5/13=1,5/36=2,99/5=2) pseudo=read geom=check
 guess=(read,tcheck) scf=(maxcycle=1)\\title\\-1,1\C,0,-0.47136,0.15342
 4,0.041289\C,0,-0.659422,-0.495719,-1.33905\F,0,0.500227,-0.499039,0.7
 30347\H,0,-0.840687,-1.546476,-1.091129\H,0,-1.418202,0.128474,0.58230
 6\N,0,-0.03524,1.586644,-0.107017\O,0,-0.883579,2.345594,-0.577299\O,0
 ,1.105006,1.898094,0.214406\C,0,0.598359,-0.394222,-2.099814\N,0,1.598
 015,-0.293421,-2.707206\N,0,-1.783676,-0.042723,-2.126467\H,0,-1.81356

 Normal termination of Gaussian 16 at Wed Apr  9 02:43:34 2025.
