 Gaussian 16, Revision C.01,

 ----------------------------------------------------------------------
 #t hf aug-cc-pvdz symm=none int=(grid=ultrafine) guess=(read,tcheck) s
 table=(opt,rrhf)
 ----------------------------------------------------------------------
 -----
 title
 -----
 Symbolic Z-matrix:
 Charge = -1 Multiplicity = 1

 SCF Done:  E(RHF) =  -666.840673823     A.U. after   16 cycles
 Normal termination of Gaussian 16 at Wed Apr  9 02:59:34 2025.
 Gaussian 16:  ES64L-G16RevC.01  3-Jul-2019

 ----------------------------------------------------------------------
 #t hf aug-cc-pvdz iop(5/13=1,5/36=2,99/5=2) pseudo=read geom=check gue
 ss=(read,tcheck) scf=(maxcycle=1)
 ----------------------------------------------------------------------
 -----
 title
 -----
 Structure from the checkpoint file:  "E2SN2_402_mol1.chk"
 Charge = -1 Multiplicity = 1

                         Standard orientation:
 ---------------------------------------------------------------------
 Center     Atomic      Atomic             Coordinates (Angstroms)
 Number     Number       Type             X           Y           Z
 ---------------------------------------------------------------------
      1          6           0        1.008212   -0.021477    0.127939
      2          1           0       -0.207278   -0.183955   -1.637920
      3          9           0        0.277666    0.933357    1.497253
      4          9           0        1.617787   -0.992107   -1.245576
      5          6           0       -0.346181    0.122362   -0.603551
      6          7           0        1.168893   -1.132090    1.011995
      7          1           0        1.327053   -0.766041    1.938129
      8          1           0        1.927951   -1.696625    0.663241
      9          6           0        2.069944    1.038284   -0.099477
     10          1           0        2.980387    0.553404   -0.447206
     11          1           0        1.745906    1.743304   -0.869638
     12          1           0        2.236065    1.588997    0.823470
     13          6           0       -0.921326    1.463565   -0.558870
     14          7           0       -1.386314    2.530623   -0.713505
     15          7           0       -1.330867   -0.869185   -0.049051
     16          8           0       -1.307755   -1.981952   -0.567233
     17          8           0       -2.079125   -0.522069    0.857547
 ---------------------------------------------------------------------

 SCF Done:  E(RHF) =  -667.482666766     A.U. after    2 cycles

 The electronic state is 1-A.
 Alpha  occ. eigenvalues --  -26.18523 -26.16976 -20.46154 -20.45877 -15.65969
 Alpha  occ. eigenvalues --  -15.39686 -15.35980 -11.26461 -11.21428 -11.17398
 Alpha  occ. eigenvalues --  -11.10492  -1.53302  -1.37181  -1.28087  -1.25940
 Alpha  occ. eigenvalues --   -1.10312  -1.06436  -1.01094  -0.88216  -0.79450
 Alpha  occ. eigenvalues --   -0.71481  -0.67100  -0.63045  -0.60633  -0.58274
 Alpha  occ. eigenvalues --   -0.56892  -0.52465  -0.50182  -0.48791  -0.47330
 Alpha  occ. eigenvalues --   -0.42517  -0.39125  -0.38548  -0.37268  -0.36622
 Alpha  occ. eigenvalues --   -0.35461  -0.34876  -0.33540  -0.32898  -0.32778
 Alpha  occ. eigenvalues --   -0.31598  -0.30703  -0.29609
 Alpha virt. eigenvalues --    0.13168   0.13611   0.14248   0.14932   0.16251
 Alpha virt. eigenvalues --    0.17004   0.18832   0.19278   0.21145   0.23142
 Alpha virt. eigenvalues --    0.23882   0.24200   0.24452   0.25238   0.25623

 Mulliken charges:
               1
     1  C   -0.549066
     2  H    0.322990
     3  F   -0.927430
     4  F   -0.953642
     5  C   -0.213271
     6  N    0.588265
     7  H    0.310649
     8  H    0.319582
     9  C   -0.182836
    10  H    0.166254
    11  H    0.268712
    12  H    0.257789
    13  C   -1.626932
    14  N    1.030881
    15  N    3.179258
    16  O   -1.497965
    17  O   -1.493240
 Sum of Mulliken charges =  -1.00000

 Dipole moment (field-independent basis, Debye):
    X=              2.5154    Y=             -1.1748    Z=             -0.5024  Tot=              2.8213

 Test job not archived.
 1\1\GINC-SE129\SP\RHF\Aug-CC-pVDZ\C4H6F2N3O2(1-)\OHZDE\09-Apr-2025\0\\
 #t hf aug-cc-pvdz iop(5/13=1,5/36=2,99/5=2) pseudo=read geom=check gue
 ss=(read,tcheck) scf=(maxcycle=1)\\title\\-1,1\C,0,0.64060198,-0.08335
 274,0.03042694\H,0,1.52174424,1.85981108,0.29457564\F,0,-1.17876178,-0
 .13730478,0.11663703\F,0,2.41763974,0.07651276,-0.09928125\C,0,0.52961
 468,1.45692256,0.10378089\N,0,0.57945025,-0.69110862,-1.26097822\H,0,-
 0.22914926,-1.29327263,-1.27817931\H,0,1.45005166,-1.17556774,-1.41541
 102\C,0,0.76641683,-0.86262836,1.32618389\H,0,1.66421044,-1.47646278,1

 Normal termination of Gaussian 16 at Wed Apr  9 02:59:43 2025.
