 Gaussian 16, Revision C.01,

 ----------------------------------------------------------------------
 #t hf aug-cc-pvdz symm=none int=(grid=ultrafine) guess=(read,tcheck) s
 table=(opt,rrhf)
 ----------------------------------------------------------------------
 -----
 title
 -----
 Symbolic Z-matrix:
 Charge = -1 Multiplicity = 1

 SCF Done:  E(RHF) =  -935.217490522     A.U. after   16 cycles
 Normal termination of Gaussian 16 at Wed Apr  9 02:35:20 2025.
 Gaussian 16:  ES64L-G16RevC.01  3-Jul-2019

 ----------------------------------------------------------------------
 #t hf aug-cc-pvdz iop(5/13=1,5/36=2,99/5=2) pseudo=read geom=check gue
 ss=(read,tcheck) scf=(maxcycle=1)
 ----------------------------------------------------------------------
 -----
 title
 -----
 Structure from the checkpoint file:  "E2SN2_121_mol1.chk"
 Charge = -1 Multiplicity = 1

                         Standard orientation:
 ---------------------------------------------------------------------
 Center     Atomic      Atomic             Coordinates (Angstroms)
 Number     Number       Type             X           Y           Z
 ---------------------------------------------------------------------
      1          6           0       -0.861930    0.257760   -0.457789
      2          6           0        0.462282    0.236481    0.239250
      3         17           0       -1.935488   -1.153806    0.062856
      4          9           0        0.993401    2.597561   -0.449938
      5          1           0        0.920691    1.467598   -0.182895
      6          1           0       -0.710687    0.089237   -1.520469
      7          7           0       -1.638632    1.470699   -0.267229
      8          1           0       -0.965767    2.221700   -0.431247
      9          1           0       -1.903153    1.525782    0.710475
     10          7           0        1.320357   -0.809155   -0.254061
     11          8           0        2.192300   -1.272684    0.501310
     12          8           0        1.212509   -1.173270   -1.437216
     13          6           0        0.445368    0.310757    1.744624
     14          1           0        0.038000   -0.594859    2.209550
     15          1           0        1.455194    0.464514    2.123554
     16          1           0       -0.156469    1.169521    2.051695
 ---------------------------------------------------------------------

 SCF Done:  E(RHF) =  -935.768003240     A.U. after    2 cycles

 The electronic state is 1-A.
 Alpha  occ. eigenvalues -- -105.41583 -26.20031 -20.42698 -20.42427 -15.62698
 Alpha  occ. eigenvalues --  -15.36453 -11.19910 -11.10955 -11.10283 -10.46466
 Alpha  occ. eigenvalues --   -7.63382  -7.63058  -7.63056  -1.49341  -1.32856
 Alpha  occ. eigenvalues --   -1.28689  -1.08787  -0.98870  -0.91327  -0.83372
 Alpha  occ. eigenvalues --   -0.76511  -0.66442  -0.60435  -0.59452  -0.58654
 Alpha  occ. eigenvalues --   -0.57184  -0.50578  -0.49056  -0.44420  -0.43603
 Alpha  occ. eigenvalues --   -0.41424  -0.40442  -0.36956  -0.36609  -0.35015
 Alpha  occ. eigenvalues --   -0.32950  -0.32219  -0.31885  -0.30283  -0.29641
 Alpha  occ. eigenvalues --   -0.21496
 Alpha virt. eigenvalues --    0.13515   0.14324   0.14909   0.15679   0.16196
 Alpha virt. eigenvalues --    0.17687   0.18159   0.19267   0.21741   0.22746
 Alpha virt. eigenvalues --    0.24132   0.25111   0.25796   0.27190   0.27398

 Mulliken charges:
               1
     1  C   -1.195881
     2  C   -0.969616
     3  Cl  -0.179624
     4  F   -1.097982
     5  H    1.117459
     6  H    0.150100
     7  N    0.421696
     8  H    0.154819
     9  H    0.275991
    10  N    2.976209
    11  O   -1.522548
    12  O   -1.550345
    13  C   -0.101366
    14  H    0.194493
    15  H    0.190442
    16  H    0.136153
 Sum of Mulliken charges =  -1.00000

 Dipole moment (field-independent basis, Debye):
    X=             -2.5629    Y=             -0.8750    Z=              2.5703  Tot=              3.7337

 Test job not archived.
 1\1\GINC-SE402\SP\RHF\Aug-CC-pVDZ\C3H7Cl1F1N2O2(1-)\OHZDE\09-Apr-2025\
 0\\#t hf aug-cc-pvdz iop(5/13=1,5/36=2,99/5=2) pseudo=read geom=check
 guess=(read,tcheck) scf=(maxcycle=1)\\title\\-1,1\C,0,-0.17354383,0.01
 05296,-0.38380649\C,0,-0.05923628,0.00091324,1.10840489\Cl,0,1.4791503
 3,-0.12186601,-1.20062215\F,0,-2.52227147,-0.41645058,1.41011452\H,0,-
 1.40378653,-0.09652449,1.40282614\H,0,-0.54574896,0.97819849,-0.708836
 16\N,0,-1.00613485,-1.03989793,-0.94433721\H,0,-1.85050021,-1.01716932
 ,-0.36972304\H,0,-0.55527545,-1.93035351,-0.763436\N,0,0.4735873,1.236

 Normal termination of Gaussian 16 at Wed Apr  9 02:35:27 2025.
