 Gaussian 16, Revision C.01,

 ----------------------------------------------------------------------
 #t hf aug-cc-pvdz symm=none int=(grid=ultrafine) guess=(read,tcheck) s
 table=(opt,rrhf)
 ----------------------------------------------------------------------
 -----
 title
 -----
 Symbolic Z-matrix:
 Charge = -1 Multiplicity = 1

 SCF Done:  E(RHF) =  -1055.70341270     A.U. after   17 cycles
 Normal termination of Gaussian 16 at Wed Apr  9 02:52:10 2025.
 Gaussian 16:  ES64L-G16RevC.01  3-Jul-2019

 ----------------------------------------------------------------------
 #t hf aug-cc-pvdz iop(5/13=1,5/36=2,99/5=2) pseudo=read geom=check gue
 ss=(read,tcheck) scf=(maxcycle=1)
 ----------------------------------------------------------------------
 -----
 title
 -----
 Structure from the checkpoint file:  "E2SN2_29_mol1.chk"
 Charge = -1 Multiplicity = 1

                         Standard orientation:
 ---------------------------------------------------------------------
 Center     Atomic      Atomic             Coordinates (Angstroms)
 Number     Number       Type             X           Y           Z
 ---------------------------------------------------------------------
      1          6           0       -0.022199    0.031407    0.095970
      2          6           0        1.343145   -0.175066   -0.393440
      3         17           0       -0.226689    0.203177    1.912809
      4          1           0        2.334668   -0.060954   -2.554349
      5          1           0        1.473177   -0.037645   -1.606038
      6          7           0       -0.709538    1.282010   -0.447867
      7          8           0       -1.935629    1.265795   -0.478784
      8          8           0        0.003382    2.218495   -0.793003
      9          7           0       -0.891503   -1.129589   -0.388951
     10          8           0       -1.352866   -1.919572    0.415307
     11          8           0       -1.029322   -1.155062   -1.605277
     12          7           0        1.705844   -1.558995   -0.222851
     13          1           0        2.279384   -1.630469    0.611649
     14          1           0        2.292052   -1.776912   -1.032736
     15          7           0        2.337538    0.721096    0.184162
     16          1           0        3.028548    0.781884   -0.574223
     17          1           0        1.939292    1.653147    0.245364
 ---------------------------------------------------------------------

 SCF Done:  E(RHF) =  -1056.36379090     A.U. after    2 cycles

 The electronic state is 1-A.
 Alpha  occ. eigenvalues -- -105.48333 -20.50684 -20.50366 -20.49411 -20.48907
 Alpha  occ. eigenvalues --  -15.70428 -15.69509 -15.36235 -15.36096 -11.32567
 Alpha  occ. eigenvalues --  -11.15173 -10.53096  -7.70043  -7.69640  -7.69622
 Alpha  occ. eigenvalues --   -1.58053  -1.56539  -1.41817  -1.40876  -1.13996
 Alpha  occ. eigenvalues --   -1.07209  -1.01121  -0.94445  -0.90805  -0.80578
 Alpha  occ. eigenvalues --   -0.73888  -0.71398  -0.66309  -0.65562  -0.64436
 Alpha  occ. eigenvalues --   -0.62767  -0.61830  -0.57179  -0.53368  -0.51671
 Alpha  occ. eigenvalues --   -0.49473  -0.43594  -0.42441  -0.40830  -0.39871
 Alpha  occ. eigenvalues --   -0.38650  -0.37599  -0.36518  -0.35977  -0.34521
 Alpha  occ. eigenvalues --   -0.33785  -0.30609  -0.11470
 Alpha virt. eigenvalues --    0.13588   0.13759   0.14587   0.15659   0.16074
 Alpha virt. eigenvalues --    0.16772   0.17539   0.19322   0.20191   0.22173
 Alpha virt. eigenvalues --    0.22479   0.23368   0.25299   0.25798   0.26184

 Mulliken charges:
               1
     1  C   -1.776799
     2  C   -2.285707
     3  Cl   0.182643
     4  H   -0.541293
     5  H    0.383455
     6  N    3.406300
     7  O   -1.576761
     8  O   -1.537285
     9  N    3.482356
    10  O   -1.507202
    11  O   -1.584883
    12  N    0.657589
    13  H    0.309545
    14  H    0.278291
    15  N    0.711722
    16  H    0.219751
    17  H    0.178279
 Sum of Mulliken charges =  -1.00000

 Dipole moment (field-independent basis, Debye):
    X=             -3.7373    Y=              1.0469    Z=              6.9947  Tot=              7.9993

 Test job not archived.
 1\1\GINC-SE419\SP\RHF\Aug-CC-pVDZ\C2H6Cl1N4O4(1-)\OHZDE\09-Apr-2025\0\
 \#t hf aug-cc-pvdz iop(5/13=1,5/36=2,99/5=2) pseudo=read geom=check gu
 ess=(read,tcheck) scf=(maxcycle=1)\\title\\-1,1\C,0,-0.00158912,0.0293
 74,-0.37665642\C,0,-0.17556409,0.00938025,1.07787173\Cl,0,1.72656383,0
 .02350155,-0.99768618\H,0,-2.04729042,-0.40082764,2.48997542\H,0,-1.31
 986467,-0.2347834,1.44820482\N,0,-0.63465748,-1.15217069,-1.10835147\O
 ,0,-0.94451991,-0.97020533,-2.28112228\O,0,-0.76884555,-2.20077259,-0.
 48641429\N,0,-0.71993283,1.25918179,-0.93370691\O,0,-0.07568167,2.1628

 Normal termination of Gaussian 16 at Wed Apr  9 02:52:21 2025.
