 Gaussian 16, Revision C.01,

 ----------------------------------------------------------------------
 #t hf aug-cc-pvdz symm=none int=(grid=ultrafine) guess=(read,tcheck) s
 table=(opt,rrhf)
 ----------------------------------------------------------------------
 -----
 title
 -----
 Symbolic Z-matrix:
 Charge = -1 Multiplicity = 1

 SCF Done:  E(RHF) =  -888.906886512     A.U. after   17 cycles
 Normal termination of Gaussian 16 at Wed Apr  9 02:55:17 2025.
 Gaussian 16:  ES64L-G16RevC.01  3-Jul-2019

 ----------------------------------------------------------------------
 #t hf aug-cc-pvdz iop(5/13=1,5/36=2,99/5=2) pseudo=read geom=check gue
 ss=(read,tcheck) scf=(maxcycle=1)
 ----------------------------------------------------------------------
 -----
 title
 -----
 Structure from the checkpoint file:  "E2SN2_34_mol1.chk"
 Charge = -1 Multiplicity = 1

                         Standard orientation:
 ---------------------------------------------------------------------
 Center     Atomic      Atomic             Coordinates (Angstroms)
 Number     Number       Type             X           Y           Z
 ---------------------------------------------------------------------
      1          6           0        0.229682   -0.158754    0.179522
      2          6           0       -0.619344   -0.236504    1.415359
      3         17           0        0.069915   -1.593219   -0.949930
      4          1           0       -1.573490    2.084984    1.937164
      5          1           0       -0.669658    0.858503    1.834859
      6          1           0       -0.122882   -0.907382    2.124624
      7          7           0       -0.184262    1.071766   -0.626756
      8          8           0        0.519390    2.065924   -0.487469
      9          8           0       -1.235897    0.999139   -1.244763
     10          7           0       -2.016855   -0.520154    1.228102
     11          1           0       -2.206708   -0.956655    0.335972
     12          1           0       -2.469369    0.402298    1.266622
     13          6           0        1.644516   -0.047799    0.509739
     14          7           0        2.780616   -0.017210    0.810039
 ---------------------------------------------------------------------

 SCF Done:  E(RHF) =  -889.403339621     A.U. after    2 cycles

 The electronic state is 1-A.
 Alpha  occ. eigenvalues -- -105.49128 -20.49221 -20.49070 -15.68912 -15.44289
 Alpha  occ. eigenvalues --  -15.35325 -11.30915 -11.21160 -11.14408 -10.53923
 Alpha  occ. eigenvalues --   -7.70863  -7.70466  -7.70462  -1.56387  -1.40607
 Alpha  occ. eigenvalues --   -1.14854  -1.10188  -1.03729  -0.94302  -0.85018
 Alpha  occ. eigenvalues --   -0.76567  -0.70995  -0.64652  -0.64022  -0.60386
 Alpha  occ. eigenvalues --   -0.54823  -0.53085  -0.52287  -0.47498  -0.43185
 Alpha  occ. eigenvalues --   -0.42611  -0.41706  -0.39426  -0.38679  -0.37476
 Alpha  occ. eigenvalues --   -0.36921  -0.34390  -0.30507  -0.10065
 Alpha virt. eigenvalues --    0.13473   0.14249   0.15726   0.16043   0.17195
 Alpha virt. eigenvalues --    0.19111   0.19526   0.20786   0.21203   0.21642
 Alpha virt. eigenvalues --    0.21998   0.22424   0.23736   0.24703   0.25242

 Mulliken charges:
               1
     1  C   -0.298319
     2  C   -1.513952
     3  Cl   0.054222
     4  H   -0.688548
     5  H    0.351202
     6  H    0.040809
     7  N    3.352925
     8  O   -1.502410
     9  O   -1.569051
    10  N    0.714470
    11  H    0.158986
    12  H    0.310217
    13  C   -1.402631
    14  N    0.992081
 Sum of Mulliken charges =  -1.00000

 Dipole moment (field-independent basis, Debye):
    X=              2.9145    Y=             -7.5948    Z=             -6.5075  Tot=             10.4175

 Test job not archived.
 1\1\GINC-SE126\SP\RHF\Aug-CC-pVDZ\C3H5Cl1N3O2(1-)\OHZDE\09-Apr-2025\0\
 \#t hf aug-cc-pvdz iop(5/13=1,5/36=2,99/5=2) pseudo=read geom=check gu
 ess=(read,tcheck) scf=(maxcycle=1)\\title\\-1,1\C,0,-0.16262836,0.0885
 4143,-0.2974102\C,0,-0.24781077,0.17732749,1.19893325\Cl,0,1.51473442,
 -0.25910429,-0.9489281\H,0,-2.41587972,-0.93641042,1.99331489\H,0,-1.3
 8581332,0.05635391,1.45944669\H,0,0.12246296,1.16301429,1.50047672\N,0
 ,-1.05546641,-1.05604542,-0.77529635\O,0,-2.16216233,-0.73446197,-1.19
 325039\O,0,-0.64211989,-2.19162339,-0.59432889\N,0,0.31971017,-0.91084

 Normal termination of Gaussian 16 at Wed Apr  9 02:55:24 2025.
