 Gaussian 16, Revision C.01,

 ----------------------------------------------------------------------
 #t hf aug-cc-pvdz symm=none int=(grid=ultrafine) guess=(read,tcheck) s
 table=(opt,rrhf)
 ----------------------------------------------------------------------
 -----
 title
 -----
 Symbolic Z-matrix:
 Charge = -1 Multiplicity = 1

 SCF Done:  E(RHF) =  -518.451116324     A.U. after   15 cycles
 Normal termination of Gaussian 16 at Wed Apr  9 02:59:37 2025.
 Gaussian 16:  ES64L-G16RevC.01  3-Jul-2019

 ----------------------------------------------------------------------
 #t hf aug-cc-pvdz iop(5/13=1,5/36=2,99/5=2) pseudo=read geom=check gue
 ss=(read,tcheck) scf=(maxcycle=1)
 ----------------------------------------------------------------------
 -----
 title
 -----
 Structure from the checkpoint file:  "E2SN2_405_mol2.chk"
 Charge = -1 Multiplicity = 1

                         Standard orientation:
 ---------------------------------------------------------------------
 Center     Atomic      Atomic             Coordinates (Angstroms)
 Number     Number       Type             X           Y           Z
 ---------------------------------------------------------------------
      1          6           0        0.269522    0.817868    0.013252
      2          6           0       -0.645066   -0.149832   -0.755329
      3          9           0       -0.433087    2.045733    0.040687
      4          1           0       -0.990486    0.415863   -1.632888
      5          7           0        0.431054    0.378302    1.364419
      6          1           0        1.001279   -0.497929    1.295249
      7          1           0        1.019955    1.062685    1.831334
      8          6           0        1.570475    1.051640   -0.733750
      9          1           0        1.406966    1.260663   -1.794616
     10          1           0        2.077447    1.906338   -0.273846
     11          1           0        2.172914    0.152324   -0.600583
     12          6           0       -1.860677   -0.421755    0.046105
     13          7           0       -2.876088   -0.708379    0.563507
     14          7           0        0.066798   -1.344659   -1.183083
     15          1           0        0.793045   -1.611347   -0.480491
     16          1           0       -0.587110   -2.108647   -1.293812
     17          9           0        1.960656   -1.672879    0.660876
 ---------------------------------------------------------------------

 SCF Done:  E(RHF) =  -518.963748218     A.U. after    2 cycles

 The electronic state is 1-A.
 Alpha  occ. eigenvalues --  -26.31249 -26.11815 -15.38167 -15.34221 -15.33066
 Alpha  occ. eigenvalues --  -11.21891 -11.17367 -11.15445 -11.09562  -1.43624
 Alpha  occ. eigenvalues --   -1.18815  -1.09603  -1.06804  -1.03008  -0.88040
 Alpha  occ. eigenvalues --   -0.83937  -0.68962  -0.61659  -0.59569  -0.55209
 Alpha  occ. eigenvalues --   -0.53251  -0.52667  -0.48445  -0.47545  -0.46507
 Alpha  occ. eigenvalues --   -0.44909  -0.43442  -0.40810  -0.39623  -0.36365
 Alpha  occ. eigenvalues --   -0.34726  -0.31408  -0.30724  -0.28148  -0.27265
 Alpha  occ. eigenvalues --   -0.27150
 Alpha virt. eigenvalues --    0.12760   0.13175   0.14365   0.14947   0.16210
 Alpha virt. eigenvalues --    0.17257   0.18331   0.19119   0.19608   0.21498
 Alpha virt. eigenvalues --    0.23275   0.23850   0.24987   0.25206   0.25571

 Mulliken charges:
               1
     1  C   -0.169580
     2  C   -0.579886
     3  F   -1.034681
     4  H    0.085336
     5  N    0.667562
     6  H    0.228459
     7  H    0.281589
     8  C   -0.129324
     9  H    0.202978
    10  H    0.077500
    11  H    0.248233
    12  C   -1.694056
    13  N    0.955130
    14  N    0.553743
    15  H    0.157416
    16  H    0.230001
    17  F   -1.080419
 Sum of Mulliken charges =  -1.00000

 Dipole moment (field-independent basis, Debye):
    X=             -0.0813    Y=              4.5743    Z=             -3.5457  Tot=              5.7882

 Test job not archived.
 1\1\GINC-SE208\SP\RHF\Aug-CC-pVDZ\C4H8F2N3(1-)\OHZDE\09-Apr-2025\0\\#t
  hf aug-cc-pvdz iop(5/13=1,5/36=2,99/5=2) pseudo=read geom=check guess
 =(read,tcheck) scf=(maxcycle=1)\\title\\-1,1\C,0,-0.039548,0.005931,-0
 .042796\C,0,-0.290709,-0.22408,-1.542011\F,0,1.345676,0.27474,0.061892
 \H,0,0.522174,-0.887272,-1.871912\N,0,-0.743564,1.16753,0.40443\H,0,-1
 .755876,0.900838,0.361758\H,0,-0.524072,1.28726,1.389662\C,0,-0.3236,-
 1.251496,0.759284\H,0,0.129878,-2.139859,0.310919\H,0,0.082599,-1.1110
 37,1.766415\H,0,-1.408489,-1.350122,0.811466\C,0,-0.090295,1.046341,-2

 Normal termination of Gaussian 16 at Wed Apr  9 02:59:44 2025.
