 Gaussian 16, Revision C.01,

 ----------------------------------------------------------------------
 #t hf aug-cc-pvdz symm=none int=(grid=ultrafine) guess=(read,tcheck) s
 table=(opt,rrhf)
 ----------------------------------------------------------------------
 -----
 title
 -----
 Symbolic Z-matrix:
 Charge = -1 Multiplicity = 1

 SCF Done:  E(RHF) =  -679.697348251     A.U. after   16 cycles
 Normal termination of Gaussian 16 at Wed Apr  9 02:38:03 2025.
 Gaussian 16:  ES64L-G16RevC.01  3-Jul-2019

 ----------------------------------------------------------------------
 #t hf aug-cc-pvdz iop(5/13=1,5/36=2,99/5=2) pseudo=read geom=check gue
 ss=(read,tcheck) scf=(maxcycle=1)
 ----------------------------------------------------------------------
 -----
 title
 -----
 Structure from the checkpoint file:  "E2SN2_13_mol1.chk"
 Charge = -1 Multiplicity = 1

                         Standard orientation:
 ---------------------------------------------------------------------
 Center     Atomic      Atomic             Coordinates (Angstroms)
 Number     Number       Type             X           Y           Z
 ---------------------------------------------------------------------
      1          6           0       -0.590960    0.565643   -0.190812
      2          6           0        0.836396    0.516283    0.290895
      3          9           0       -0.668777    0.560881   -1.570302
      4          1           0        1.020645    1.671590    2.472476
      5          1           0        0.841725    0.678627    1.470340
      6          6           0       -1.297601    1.790817    0.343347
      7          1           0       -2.369053    1.711910    0.143040
      8          1           0       -1.090075    1.884622    1.412343
      9          1           0       -0.906811    2.675193   -0.158689
     10          7           0        1.623266    1.621987   -0.118094
     11          1           0        1.689982    2.233582    0.706576
     12          1           0        1.261000    2.099508   -0.930541
     13          7           0        1.493742   -0.770140   -0.046627
     14          8           0        0.783415   -1.711232   -0.433137
     15          8           0        2.704690   -0.859236    0.146103
     16          7           0       -1.413681   -0.621019    0.288575
     17          8           0       -2.178791   -1.149849   -0.507155
     18          8           0       -1.314153   -0.886583    1.480390
 ---------------------------------------------------------------------

 SCF Done:  E(RHF) =  -680.360429494     A.U. after    2 cycles

 The electronic state is 1-A.
 Alpha  occ. eigenvalues --  -26.37069 -20.47844 -20.47663 -20.45551 -20.45309
 Alpha  occ. eigenvalues --  -15.67500 -15.64818 -15.37577 -11.29020 -11.18853
 Alpha  occ. eigenvalues --  -11.14367  -1.55528  -1.52253  -1.49801  -1.39184
 Alpha  occ. eigenvalues --   -1.36092  -1.11308  -1.01823  -0.94160  -0.87904
 Alpha  occ. eigenvalues --   -0.77576  -0.71644  -0.69177  -0.66236  -0.64501
 Alpha  occ. eigenvalues --   -0.62982  -0.61709  -0.61222  -0.58895  -0.56557
 Alpha  occ. eigenvalues --   -0.54465  -0.52076  -0.48244  -0.46601  -0.45343
 Alpha  occ. eigenvalues --   -0.41345  -0.38439  -0.37232  -0.36765  -0.35029
 Alpha  occ. eigenvalues --   -0.33888  -0.33167  -0.31270  -0.12857
 Alpha virt. eigenvalues --    0.12036   0.12989   0.14681   0.15642   0.17200
 Alpha virt. eigenvalues --    0.17739   0.18233   0.19690   0.20109   0.20833
 Alpha virt. eigenvalues --    0.22592   0.23089   0.24316   0.24586   0.25483

 Mulliken charges:
               1
     1  C    0.834857
     2  C   -2.639346
     3  F   -1.110098
     4  H   -0.491067
     5  H    0.214454
     6  C   -0.157331
     7  H    0.177516
     8  H    0.357026
     9  H    0.218277
    10  N    0.917539
    11  H    0.299744
    12  H    0.213697
    13  N    3.118268
    14  O   -1.504303
    15  O   -1.526201
    16  N    3.175571
    17  O   -1.511008
    18  O   -1.587595
 Sum of Mulliken charges =  -1.00000

 Dipole moment (field-independent basis, Debye):
    X=             -4.4254    Y=              1.2519    Z=             -6.0636  Tot=              7.6104

 Test job not archived.
 1\1\GINC-SE114\SP\RHF\Aug-CC-pVDZ\C3H7F1N3O4(1-)\OHZDE\09-Apr-2025\0\\
 #t hf aug-cc-pvdz iop(5/13=1,5/36=2,99/5=2) pseudo=read geom=check gue
 ss=(read,tcheck) scf=(maxcycle=1)\\title\\-1,1\C,0,-0.06647796,-0.0174
 2964,-0.37467225\C,0,-0.15147577,-0.0889816,1.1284831\F,0,1.23154568,0
 .17344476,-0.8080019\H,0,-2.35733942,0.7464161,1.87965354\H,0,-1.30032
 436,-0.09762173,1.44080714\C,0,-0.93891856,1.09467639,-0.9111291\H,0,-
 1.01207738,1.01052842,-1.99829316\H,0,-1.92011146,1.04068763,-0.432626
 33\H,0,-0.48892834,2.05422933,-0.65885002\N,0,0.27913994,1.08901315,1.

 Normal termination of Gaussian 16 at Wed Apr  9 02:38:14 2025.
