 Gaussian 16, Revision C.01,

 ----------------------------------------------------------------------
 #t hf aug-cc-pvdz symm=none int=(grid=ultrafine) guess=(read,tcheck) s
 table=(opt,rrhf)
 ----------------------------------------------------------------------
 -----
 title
 -----
 Symbolic Z-matrix:
 Charge = -1 Multiplicity = 1

 SCF Done:  E(RHF) =  -419.417282578     A.U. after   18 cycles
 Normal termination of Gaussian 16 at Wed Apr  9 02:53:15 2025.
 Gaussian 16:  ES64L-G16RevC.01  3-Jul-2019

 ----------------------------------------------------------------------
 #t hf aug-cc-pvdz iop(5/13=1,5/36=2,99/5=2) pseudo=read geom=check gue
 ss=(read,tcheck) scf=(maxcycle=1)
 ----------------------------------------------------------------------
 -----
 title
 -----
 Structure from the checkpoint file:  "E2SN2_317_mol1.chk"
 Charge = -1 Multiplicity = 1

                         Standard orientation:
 ---------------------------------------------------------------------
 Center     Atomic      Atomic             Coordinates (Angstroms)
 Number     Number       Type             X           Y           Z
 ---------------------------------------------------------------------
      1          6           0        0.327584    0.383798   -0.186463
      2          1           0       -0.929175   -0.548237   -1.648635
      3          9           0        0.133977    0.225091    1.450257
      4          1           0        0.821104    0.539842   -2.025637
      5          6           0       -0.940958   -0.398102   -0.572660
      6          6           0        1.602110   -0.289403   -0.326448
      7          7           0        2.654530   -0.812615   -0.192782
      8          7           0        0.294046    1.835405   -0.150175
      9          1           0        0.804800    2.159419   -0.956899
     10          1           0        0.761551    2.105104    0.708775
     11          6           0       -2.183605    0.406779   -0.197717
     12          1           0       -2.187402    0.599675    0.876140
     13          1           0       -2.203074    1.364971   -0.718857
     14          1           0       -3.079927   -0.166007   -0.465526
     15          7           0       -0.875319   -1.724432    0.051608
     16          1           0       -1.746012   -2.210959   -0.132520
     17          1           0       -0.791250   -1.576569    1.050012
 ---------------------------------------------------------------------

 SCF Done:  E(RHF) =  -419.843232601     A.U. after    2 cycles

 The electronic state is 1-A.
 Alpha  occ. eigenvalues --  -26.22910 -15.35467 -15.34687 -15.33640 -11.24105
 Alpha  occ. eigenvalues --  -11.12966 -11.12893 -11.09220  -1.32320  -1.06966
 Alpha  occ. eigenvalues --   -1.04469  -1.03338  -0.87512  -0.81508  -0.68870
 Alpha  occ. eigenvalues --   -0.60446  -0.57938  -0.56792  -0.48686  -0.47212
 Alpha  occ. eigenvalues --   -0.45570  -0.44469  -0.43121  -0.41077  -0.38089
 Alpha  occ. eigenvalues --   -0.37934  -0.36736  -0.33510  -0.31867  -0.31308
 Alpha  occ. eigenvalues --   -0.29341  -0.11902
 Alpha virt. eigenvalues --    0.12154   0.13308   0.13921   0.14546   0.15866
 Alpha virt. eigenvalues --    0.16349   0.17409   0.17803   0.19839   0.20660
 Alpha virt. eigenvalues --    0.22592   0.24363   0.24744   0.25769   0.26184

 Mulliken charges:
               1
     1  C    0.014642
     2  H    0.030266
     3  F   -0.923709
     4  H   -0.392421
     5  C   -1.249768
     6  C   -2.495002
     7  N    1.155353
     8  N    0.640854
     9  H    0.328685
    10  H    0.344798
    11  C    0.013311
    12  H    0.267255
    13  H    0.241281
    14  H    0.060252
    15  N    0.572357
    16  H    0.161639
    17  H    0.230208
 Sum of Mulliken charges =  -1.00000

 Dipole moment (field-independent basis, Debye):
    X=             -6.7901    Y=              1.2250    Z=              2.7412  Tot=              7.4243

 Test job not archived.
 1\1\GINC-SE097\SP\RHF\Aug-CC-pVDZ\C4H9F1N3(1-)\OHZDE\09-Apr-2025\0\\#t
  hf aug-cc-pvdz iop(5/13=1,5/36=2,99/5=2) pseudo=read geom=check guess
 =(read,tcheck) scf=(maxcycle=1)\\title\\-1,1\C,0,0.54347176,-0.0240398
 3,0.0047748\H,0,1.67108167,1.79250824,-0.11658609\F,0,-1.10711003,-0.1
 0819203,-0.09534336\H,0,2.44931887,-0.15121788,-0.04043933\C,0,0.62561
 604,1.51294891,-0.02041427\C,0,0.87711477,-0.73607579,-1.21132511\N,0,
 0.91080042,-1.39004441,-2.19641163\N,0,0.60189254,-0.72624888,1.274850
 67\H,0,1.51166148,-1.15767244,1.32826231\H,0,-0.13137514,-1.42648157,1

 Normal termination of Gaussian 16 at Wed Apr  9 02:53:22 2025.
