 Gaussian 16, Revision C.01,

 ----------------------------------------------------------------------
 #t hf aug-cc-pvdz symm=none int=(grid=ultrafine) guess=(read,tcheck) s
 table=(opt,rrhf)
 ----------------------------------------------------------------------
 -----
 title
 -----
 Symbolic Z-matrix:
 Charge = -1 Multiplicity = 1

 SCF Done:  E(RHF) =  -1236.20461156     A.U. after   16 cycles
 Normal termination of Gaussian 16 at Wed Apr  9 02:48:11 2025.
 Gaussian 16:  ES64L-G16RevC.01  3-Jul-2019

 ----------------------------------------------------------------------
 #t hf aug-cc-pvdz iop(5/13=1,5/36=2,99/5=2) pseudo=read geom=check gue
 ss=(read,tcheck) scf=(maxcycle=1)
 ----------------------------------------------------------------------
 -----
 title
 -----
 Structure from the checkpoint file:  "E2SN2_262_mol1.chk"
 Charge = -1 Multiplicity = 1

                         Standard orientation:
 ---------------------------------------------------------------------
 Center     Atomic      Atomic             Coordinates (Angstroms)
 Number     Number       Type             X           Y           Z
 ---------------------------------------------------------------------
      1          6           0        0.404114    0.303915   -0.296939
      2          1           0        0.580833   -1.226930    1.135476
      3         17           0       -1.727250    1.109145   -1.076628
      4         17           0        2.577776   -0.223868   -0.137110
      5          6           0       -0.067900   -1.030307    0.270613
      6          1           0        0.543744    0.416465   -1.354125
      7          6           0        0.473768    1.430032    0.587594
      8          7           0        0.574661    2.301782    1.372410
      9          7           0        0.056408   -2.046978   -0.769769
     10          1           0       -0.284324   -2.929680   -0.406493
     11          1           0        1.049146   -2.145310   -0.956394
     12          6           0       -1.432370   -1.049134    0.815474
     13          7           0       -2.433071   -1.267846    1.390877
 ---------------------------------------------------------------------

 SCF Done:  E(RHF) =  -1236.67005165     A.U. after    2 cycles

 The electronic state is 1-A.
 Alpha  occ. eigenvalues -- -105.38871-105.33708 -15.41265 -15.41062 -15.40709
 Alpha  occ. eigenvalues --  -11.27861 -11.23264 -11.19028 -11.18225 -10.43644
 Alpha  occ. eigenvalues --  -10.38465  -7.60480  -7.60292  -7.60275  -7.55279
 Alpha  occ. eigenvalues --   -7.55133  -7.55123  -1.14043  -1.11234  -1.09891
 Alpha  occ. eigenvalues --   -0.98191  -0.86360  -0.83163  -0.78596  -0.68341
 Alpha  occ. eigenvalues --   -0.63522  -0.56923  -0.56159  -0.54660  -0.49712
 Alpha  occ. eigenvalues --   -0.49266  -0.43232  -0.39688  -0.39147  -0.38265
 Alpha  occ. eigenvalues --   -0.35768  -0.33543  -0.30788  -0.30372  -0.25797
 Alpha  occ. eigenvalues --   -0.25685  -0.24216
 Alpha virt. eigenvalues --    0.11934   0.14096   0.14569   0.15448   0.16368
 Alpha virt. eigenvalues --    0.18538   0.18644   0.21173   0.21580   0.22338
 Alpha virt. eigenvalues --    0.22807   0.23475   0.24905   0.25243   0.25360

 Mulliken charges:
               1
     1  C    0.712889
     2  H    0.287407
     3  Cl  -0.620079
     4  Cl  -0.516401
     5  C    0.252865
     6  H   -0.126075
     7  C   -1.591379
     8  N    0.915532
     9  N    0.431302
    10  H    0.167441
    11  H    0.190739
    12  C   -2.190271
    13  N    1.086031
 Sum of Mulliken charges =  -1.00000

 Dipole moment (field-independent basis, Debye):
    X=              3.6139    Y=             -5.3798    Z=             -0.7856  Tot=              6.5284

 Test job not archived.
 1\1\GINC-SE090\SP\RHF\Aug-CC-pVDZ\C4H4Cl2N3(1-)\OHZDE\09-Apr-2025\0\\#
 t hf aug-cc-pvdz iop(5/13=1,5/36=2,99/5=2) pseudo=read geom=check gues
 s=(read,tcheck) scf=(maxcycle=1)\\title\\-1,1\C,0,0.55764377,-0.048278
 83,-0.02954537\H,0,1.58404098,1.71691256,-0.53662968\Cl,0,-1.7916448,-
 0.35124014,-0.46322987\Cl,0,2.62553606,-0.20028299,0.8246348\C,0,0.595
 96116,1.47324103,-0.12211221\H,0,0.19158424,-0.52127425,0.86044534\C,0
 ,0.84448155,-0.80659388,-1.21194664\N,0,1.1526599,-1.37712492,-2.19458
 756\N,0,0.39406935,2.02452476,1.21459749\H,0,0.38887239,3.03619332,1.1

 Normal termination of Gaussian 16 at Wed Apr  9 02:48:17 2025.
