 Gaussian 16, Revision C.01,

 ----------------------------------------------------------------------
 #t hf aug-cc-pvdz symm=none int=(grid=ultrafine) guess=(read,tcheck) s
 table=(opt,rrhf)
 ----------------------------------------------------------------------
 -----
 title
 -----
 Symbolic Z-matrix:
 Charge = -1 Multiplicity = 1

 SCF Done:  E(RHF) =  -1295.33808967     A.U. after   16 cycles
 Normal termination of Gaussian 16 at Wed Apr  9 03:00:50 2025.
 Gaussian 16:  ES64L-G16RevC.01  3-Jul-2019

 ----------------------------------------------------------------------
 #t hf aug-cc-pvdz iop(5/13=1,5/36=2,99/5=2) pseudo=read geom=check gue
 ss=(read,tcheck) scf=(maxcycle=1)
 ----------------------------------------------------------------------
 -----
 title
 -----
 Structure from the checkpoint file:  "E2SN2_41_mol2.chk"
 Charge = -1 Multiplicity = 1

                         Standard orientation:
 ---------------------------------------------------------------------
 Center     Atomic      Atomic             Coordinates (Angstroms)
 Number     Number       Type             X           Y           Z
 ---------------------------------------------------------------------
      1          6           0        0.430984   -0.107232    0.015117
      2          6           0       -0.144909    0.770493   -1.070382
      3         17           0        0.916264   -1.748796   -0.819298
      4          1           0       -1.042451    0.252343   -1.422119
      5          1           0        0.572718    0.824783   -1.888559
      6          7           0        1.828687    0.357247    0.466691
      7          8           0        2.211262   -0.036370    1.563006
      8          8           0        2.472845    1.072372   -0.294115
      9          7           0       -0.371302   -0.223358    1.111337
     10          1           0       -0.049514   -0.877365    1.808160
     11          1           0       -1.379074   -0.289278    0.892330
     12          6           0       -0.531302    2.155973   -0.562185
     13          1           0       -1.351169    2.077433    0.150224
     14          1           0       -0.872812    2.766058   -1.402973
     15          1           0        0.315582    2.665724   -0.096909
     16         17           0       -3.410174   -0.225342    0.258546
 ---------------------------------------------------------------------

 SCF Done:  E(RHF) =  -1295.87416624     A.U. after    2 cycles

 The electronic state is 1-A.
 Alpha  occ. eigenvalues -- -105.44522-105.29036 -20.49338 -20.49194 -15.68360
 Alpha  occ. eigenvalues --  -15.38795 -11.29392 -11.13609 -11.11697 -10.49372
 Alpha  occ. eigenvalues --  -10.33649  -7.66282  -7.65943  -7.65936  -7.50429
 Alpha  occ. eigenvalues --   -7.50380  -7.50371  -1.56457  -1.40458  -1.15134
 Alpha  occ. eigenvalues --   -0.98867  -0.92853  -0.90443  -0.78403  -0.74818
 Alpha  occ. eigenvalues --   -0.72789  -0.67293  -0.64820  -0.63715  -0.59347
 Alpha  occ. eigenvalues --   -0.53116  -0.51105  -0.49941  -0.43228  -0.42243
 Alpha  occ. eigenvalues --   -0.40193  -0.39653  -0.38135  -0.35589  -0.34930
 Alpha  occ. eigenvalues --   -0.34062  -0.32389  -0.22158  -0.21435  -0.21307
 Alpha virt. eigenvalues --    0.12404   0.13399   0.14064   0.14747   0.15504
 Alpha virt. eigenvalues --    0.17061   0.17497   0.18327   0.20052   0.21995
 Alpha virt. eigenvalues --    0.22307   0.24428   0.24851   0.25346   0.25772

 Mulliken charges:
               1
     1  C   -2.134006
     2  C    0.219455
     3  Cl  -0.074361
     4  H    0.214252
     5  H    0.160658
     6  N    3.132068
     7  O   -1.513299
     8  O   -1.487202
     9  N    0.845455
    10  H    0.334777
    11  H    0.062269
    12  C   -0.361250
    13  H    0.235575
    14  H    0.114178
    15  H    0.212443
    16  Cl  -0.961011
 Sum of Mulliken charges =  -1.00000

 Dipole moment (field-independent basis, Debye):
    X=              8.1802    Y=              1.2779    Z=             -1.3332  Tot=              8.3860

 Test job not archived.
 1\1\GINC-SE149\SP\RHF\Aug-CC-pVDZ\C3H7Cl2N2O2(1-)\OHZDE\09-Apr-2025\0\
 \#t hf aug-cc-pvdz iop(5/13=1,5/36=2,99/5=2) pseudo=read geom=check gu
 ess=(read,tcheck) scf=(maxcycle=1)\\title\\-1,1\C,0,-0.352826,0.158254
 ,-1.399246\C,0,-0.138132,-0.150845,0.063193\Cl,0,-0.208186,-1.498182,-
 2.327565\H,0,0.885884,-0.5301,0.136241\H,0,-0.827636,-0.942794,0.35431
 4\N,0,-1.822909,0.488232,-1.720499\O,0,-2.033908,1.10264,-2.7603\O,0,-
 2.684632,0.108899,-0.933918\N,0,0.438526,1.163562,-1.870377\H,0,0.3783
 06,1.323838,-2.864117\H,0,1.400682,1.1559,-1.4934\C,0,-0.282137,1.0811

 Normal termination of Gaussian 16 at Wed Apr  9 03:00:58 2025.
