 Gaussian 16, Revision C.01,

 ----------------------------------------------------------------------
 #t hf aug-cc-pvdz symm=none int=(grid=ultrafine) guess=(read,tcheck) s
 table=(opt,rrhf)
 ----------------------------------------------------------------------
 -----
 title
 -----
 Symbolic Z-matrix:
 Charge = -1 Multiplicity = 1

 SCF Done:  E(RHF) =  -823.523926775     A.U. after   14 cycles
 Normal termination of Gaussian 16 at Wed Apr  9 02:57:17 2025.
 Gaussian 16:  ES64L-G16RevC.01  3-Jul-2019

 ----------------------------------------------------------------------
 #t hf aug-cc-pvdz iop(5/13=1,5/36=2,99/5=2) pseudo=read geom=check gue
 ss=(read,tcheck) scf=(maxcycle=1)
 ----------------------------------------------------------------------
 -----
 title
 -----
 Structure from the checkpoint file:  "E2SN2_373_mol2.chk"
 Charge = -1 Multiplicity = 1

                         Standard orientation:
 ---------------------------------------------------------------------
 Center     Atomic      Atomic             Coordinates (Angstroms)
 Number     Number       Type             X           Y           Z
 ---------------------------------------------------------------------
      1          6           0        0.192935    0.823753    0.493572
      2          6           0        0.544138   -0.614221    0.089327
      3          9           0        1.328134    1.360325    1.124210
      4          1           0       -0.365014   -0.990372   -0.394610
      5          1           0       -0.608969    0.774331    1.230424
      6          7           0       -0.221385    1.688735   -0.556085
      7          1           0       -1.189149    1.442503   -0.757558
      8          1           0        0.335422    1.531682   -1.388886
      9          6           0        0.879184   -1.489917    1.296536
     10          1           0        1.737806   -1.088727    1.837304
     11          1           0        1.098628   -2.515022    0.990080
     12          1           0        0.012266   -1.510110    1.960528
     13          6           0        1.639751   -0.607228   -0.880243
     14          7           0        2.522538   -0.596278   -1.655386
     15         17           0       -2.859901   -0.365219   -0.241766
 ---------------------------------------------------------------------

 SCF Done:  E(RHF) =  -823.967425745     A.U. after    2 cycles

 The electronic state is 1-A.
 Alpha  occ. eigenvalues -- -105.28922 -26.32536 -15.40686 -15.36667 -11.22992
 Alpha  occ. eigenvalues --  -11.17892 -11.16044 -11.13802 -10.33505  -7.50264
 Alpha  occ. eigenvalues --   -7.50244  -7.50233  -1.44981  -1.11510  -1.08016
 Alpha  occ. eigenvalues --   -0.97446  -0.81392  -0.75786  -0.74225  -0.62773
 Alpha  occ. eigenvalues --   -0.60251  -0.57656  -0.54790  -0.51493  -0.49884
 Alpha  occ. eigenvalues --   -0.47945  -0.46240  -0.43678  -0.43257  -0.40955
 Alpha  occ. eigenvalues --   -0.38317  -0.37018  -0.32504  -0.21578  -0.21306
 Alpha  occ. eigenvalues --   -0.21198
 Alpha virt. eigenvalues --    0.12207   0.13507   0.14383   0.15037   0.16523
 Alpha virt. eigenvalues --    0.17029   0.18464   0.19211   0.21621   0.22583
 Alpha virt. eigenvalues --    0.23410   0.23941   0.24270   0.25302   0.25967

 Mulliken charges:
               1
     1  C    0.175193
     2  C   -0.429068
     3  F   -0.866019
     4  H    0.323906
     5  H    0.119079
     6  N    0.348805
     7  H    0.276270
     8  H    0.186234
     9  C    0.006099
    10  H    0.266245
    11  H    0.135630
    12  H    0.176958
    13  C   -1.701582
    14  N    0.958894
    15  Cl  -0.976645
 Sum of Mulliken charges =  -1.00000

 Dipole moment (field-independent basis, Debye):
    X=              5.6185    Y=             -0.7343    Z=              2.9782  Tot=              6.4013

 Test job not archived.
 1\1\GINC-SE040\SP\RHF\Aug-CC-pVDZ\C4H7Cl1F1N2(1-)\OHZDE\09-Apr-2025\0\
 \#t hf aug-cc-pvdz iop(5/13=1,5/36=2,99/5=2) pseudo=read geom=check gu
 ess=(read,tcheck) scf=(maxcycle=1)\\title\\-1,1\C,0,-0.058225,0.039958
 ,-0.011502\C,0,-0.438079,0.226891,-1.486389\F,0,1.340394,-0.085325,0.0
 38084\H,0,-1.530653,0.318661,-1.476256\H,0,-0.492104,-0.901601,0.32563
 2\N,0,-0.475697,1.065638,0.880312\H,0,-1.46702,0.903827,1.050272\H,0,-
 0.362626,1.978205,0.452884\C,0,-0.034694,-0.971744,-2.344882\H,0,1.044
 758,-1.126695,-2.307622\H,0,-0.338576,-0.831034,-3.384482\H,0,-0.53991

 Normal termination of Gaussian 16 at Wed Apr  9 02:57:23 2025.
