 Gaussian 16, Revision C.01,

 ----------------------------------------------------------------------
 #t hf aug-cc-pvdz symm=none int=(grid=ultrafine) guess=(read,tcheck) s
 table=(opt,rrhf)
 ----------------------------------------------------------------------
 -----
 title
 -----
 Symbolic Z-matrix:
 Charge = -1 Multiplicity = 1

 SCF Done:  E(RHF) =  -1083.65127804     A.U. after   16 cycles
 Normal termination of Gaussian 16 at Wed Apr  9 02:40:59 2025.
 Gaussian 16:  ES64L-G16RevC.01  3-Jul-2019

 ----------------------------------------------------------------------
 #t hf aug-cc-pvdz iop(5/13=1,5/36=2,99/5=2) pseudo=read geom=check gue
 ss=(read,tcheck) scf=(maxcycle=1)
 ----------------------------------------------------------------------
 -----
 title
 -----
 Structure from the checkpoint file:  "E2SN2_185_mol1.chk"
 Charge = -1 Multiplicity = 1

                         Standard orientation:
 ---------------------------------------------------------------------
 Center     Atomic      Atomic             Coordinates (Angstroms)
 Number     Number       Type             X           Y           Z
 ---------------------------------------------------------------------
      1          6           0       -0.665071    1.013624    0.062814
      2          1           0        0.731227    0.468995   -1.444180
      3         17           0       -1.952807   -0.430925    1.134151
      4          9           0        0.622401    2.350713   -0.462324
      5          6           0        0.419851    0.117332   -0.467999
      6          1           0       -0.497298    1.472566    1.014846
      7          6           0       -1.717379    1.495094   -0.897342
      8          1           0       -1.246110    2.179081   -1.600273
      9          1           0       -2.172796    0.656300   -1.422695
     10          1           0       -2.500391    2.013127   -0.344380
     11          7           0        0.072406   -1.340880   -0.672125
     12          8           0        0.571198   -2.186818    0.057867
     13          8           0       -0.666395   -1.551916   -1.628093
     14          7           0        1.645086    0.141357    0.386181
     15          8           0        2.695941   -0.099829   -0.204685
     16          8           0        1.528584    0.341013    1.586636
 ---------------------------------------------------------------------

 SCF Done:  E(RHF) =  -1084.32696971     A.U. after    2 cycles

 The electronic state is 1-A.
 Alpha  occ. eigenvalues -- -105.35246 -26.17340 -20.49116 -20.48630 -20.48380
 Alpha  occ. eigenvalues --  -20.47892 -15.68854 -15.68157 -11.26385 -11.24043
 Alpha  occ. eigenvalues --  -11.12282 -10.40090  -7.56928  -7.56755  -7.56736
 Alpha  occ. eigenvalues --   -1.56588  -1.55079  -1.40340  -1.39405  -1.25395
 Alpha  occ. eigenvalues --   -1.08350  -0.94116  -0.89657  -0.81916  -0.78281
 Alpha  occ. eigenvalues --   -0.72962  -0.69996  -0.67451  -0.64409  -0.63219
 Alpha  occ. eigenvalues --   -0.62453  -0.59652  -0.51370  -0.48389  -0.47981
 Alpha  occ. eigenvalues --   -0.43599  -0.40292  -0.39529  -0.37854  -0.37645
 Alpha  occ. eigenvalues --   -0.35896  -0.34699  -0.33415  -0.33249  -0.32733
 Alpha  occ. eigenvalues --   -0.27937  -0.27107  -0.26016
 Alpha virt. eigenvalues --    0.13099   0.13990   0.14960   0.15495   0.16396
 Alpha virt. eigenvalues --    0.16869   0.17310   0.20664   0.22045   0.22829
 Alpha virt. eigenvalues --    0.23010   0.24753   0.25113   0.25419   0.25878

 Mulliken charges:
               1
     1  C   -0.030753
     2  H    0.275729
     3  Cl  -0.689434
     4  F   -0.900695
     5  C   -0.701755
     6  H    0.067832
     7  C   -0.097543
     8  H    0.277980
     9  H    0.299915
    10  H    0.174410
    11  N    2.948787
    12  O   -1.455942
    13  O   -1.485372
    14  N    3.435557
    15  O   -1.549286
    16  O   -1.569430
 Sum of Mulliken charges =  -1.00000

 Dipole moment (field-independent basis, Debye):
    X=             -0.3090    Y=             -0.2746    Z=             -2.4389  Tot=              2.4737

 Test job not archived.
 1\1\GINC-SE459\SP\RHF\Aug-CC-pVDZ\C3H5Cl1F1N2O4(1-)\OHZDE\09-Apr-2025\
 0\\#t hf aug-cc-pvdz iop(5/13=1,5/36=2,99/5=2) pseudo=read geom=check
 guess=(read,tcheck) scf=(maxcycle=1)\\title\\-1,1\C,0,0.33535128,-0.08
 173681,0.1169656\H,0,1.61364626,1.55030057,0.58570421\Cl,0,-1.81368417
 ,-0.15633791,0.63545455\F,0,2.05550199,-0.03839765,-0.7550224\C,0,0.61
 528446,1.39394995,0.19534701\H,0,0.0532095,-0.47538443,-0.83727576\C,0
 ,0.81000777,-0.952525,1.24722915\H,0,1.89768838,-0.97372337,1.22386092
 \H,0,0.45269074,-0.57192288,2.20349464\H,0,0.41669175,-1.96015669,1.11

 Normal termination of Gaussian 16 at Wed Apr  9 02:41:08 2025.
