 Gaussian 16, Revision C.01,

 ----------------------------------------------------------------------
 #t hf aug-cc-pvdz symm=none int=(grid=ultrafine) guess=(read,tcheck) s
 table=(opt,rrhf)
 ----------------------------------------------------------------------
 -----
 title
 -----
 Symbolic Z-matrix:
 Charge = -1 Multiplicity = 1

 SCF Done:  E(RHF) =  -739.643309036     A.U. after   16 cycles
 Normal termination of Gaussian 16 at Wed Apr  9 02:45:39 2025.
 Gaussian 16:  ES64L-G16RevC.01  3-Jul-2019

 ----------------------------------------------------------------------
 #t hf aug-cc-pvdz iop(5/13=1,5/36=2,99/5=2) pseudo=read geom=check gue
 ss=(read,tcheck) scf=(maxcycle=1)
 ----------------------------------------------------------------------
 -----
 title
 -----
 Structure from the checkpoint file:  "E2SN2_236_mol2.chk"
 Charge = -1 Multiplicity = 1

                         Standard orientation:
 ---------------------------------------------------------------------
 Center     Atomic      Atomic             Coordinates (Angstroms)
 Number     Number       Type             X           Y           Z
 ---------------------------------------------------------------------
      1          6           0        0.407813   -0.040004    0.415491
      2          6           0       -0.640368   -0.006825   -0.675850
      3          9           0        0.211253   -1.142717    1.261014
      4          1           0       -0.444619   -0.761086   -1.428625
      5          1           0       -0.633852    1.037067   -1.058938
      6          7           0        1.783472   -0.530779   -0.257188
      7          8           0        2.811379   -0.099072    0.258815
      8          8           0        1.752073   -1.340583   -1.180289
      9          7           0        0.539368    1.133735    1.081128
     10          1           0        0.366359    1.937023    0.380654
     11          1           0        1.410123    1.179252    1.592197
     12          7           0       -1.982798   -0.321093   -0.125540
     13          8           0       -2.412343    0.358009    0.801265
     14          8           0       -2.607499   -1.238313   -0.667731
     15          9           0        0.007430    2.639978   -0.873060
 ---------------------------------------------------------------------

 SCF Done:  E(RHF) =  -740.349318084     A.U. after    2 cycles

 The electronic state is 1-A.
 Alpha  occ. eigenvalues --  -26.36418 -26.13794 -20.48500 -20.48478 -20.47375
 Alpha  occ. eigenvalues --  -20.47238 -15.66973 -15.66527 -15.36160 -11.31665
 Alpha  occ. eigenvalues --  -11.17703  -1.55266  -1.54343  -1.48887  -1.39216
 Alpha  occ. eigenvalues --   -1.38102  -1.21076  -1.11758  -1.01086  -0.92298
 Alpha  occ. eigenvalues --   -0.79909  -0.72906  -0.69622  -0.67347  -0.64737
 Alpha  occ. eigenvalues --   -0.63379  -0.63191  -0.61802  -0.59772  -0.57635
 Alpha  occ. eigenvalues --   -0.52893  -0.51099  -0.48719  -0.45261  -0.40876
 Alpha  occ. eigenvalues --   -0.38639  -0.37177  -0.36334  -0.34333  -0.33582
 Alpha  occ. eigenvalues --   -0.33019  -0.30231  -0.29591  -0.29206
 Alpha virt. eigenvalues --    0.14253   0.15201   0.16715   0.17254   0.18081
 Alpha virt. eigenvalues --    0.18603   0.19269   0.21369   0.22242   0.23782
 Alpha virt. eigenvalues --    0.25438   0.25616   0.25964   0.26281   0.27677

 Mulliken charges:
               1
     1  C   -0.118179
     2  C   -0.498914
     3  F   -1.100183
     4  H    0.132673
     5  H    0.248249
     6  N    2.917378
     7  O   -1.478692
     8  O   -1.536905
     9  N    0.576472
    10  H    0.427073
    11  H    0.433869
    12  N    2.976806
    13  O   -1.457045
    14  O   -1.455983
    15  F   -1.066621
 Sum of Mulliken charges =  -1.00000

 Dipole moment (field-independent basis, Debye):
    X=              1.0637    Y=             -4.4661    Z=              1.4249  Tot=              4.8071

 Test job not archived.
 1\1\GINC-SE041\SP\RHF\Aug-CC-pVDZ\C2H4F2N3O4(1-)\OHZDE\09-Apr-2025\0\\
 #t hf aug-cc-pvdz iop(5/13=1,5/36=2,99/5=2) pseudo=read geom=check gue
 ss=(read,tcheck) scf=(maxcycle=1)\\title\\-1,1\C,0,-0.084185,-0.053915
 ,0.063849\C,0,-0.604218,-0.060051,-1.357537\F,0,1.285497,-0.358186,0.0
 94029\H,0,-0.281645,0.82344,-1.895391\H,0,-1.707489,-0.165544,-1.26713
 2\N,0,0.029377,1.482362,0.525102\O,0,-0.127474,1.690071,1.725717\O,0,0
 .325362,2.342959,-0.299913\N,0,-0.822654,-0.804382,0.917959\H,0,-1.856
 089,-0.740841,0.611623\H,0,-0.637133,-0.566297,1.882519\N,0,-0.059107,

 Normal termination of Gaussian 16 at Wed Apr  9 02:45:47 2025.
