 Gaussian 16, Revision C.01,

 ----------------------------------------------------------------------
 #t hf aug-cc-pvdz symm=none int=(grid=ultrafine) guess=(read,tcheck) s
 table=(opt,rrhf)
 ----------------------------------------------------------------------
 -----
 title
 -----
 Symbolic Z-matrix:
 Charge = -1 Multiplicity = 1

 SCF Done:  E(RHF) =  -492.200631816     A.U. after   17 cycles
 Normal termination of Gaussian 16 at Wed Apr  9 02:32:50 2025.
 Gaussian 16:  ES64L-G16RevC.01  3-Jul-2019

 ----------------------------------------------------------------------
 #t hf aug-cc-pvdz iop(5/13=1,5/36=2,99/5=2) pseudo=read geom=check gue
 ss=(read,tcheck) scf=(maxcycle=1)
 ----------------------------------------------------------------------
 -----
 title
 -----
 Structure from the checkpoint file:  "E2SN2_103_mol2.chk"
 Charge = -1 Multiplicity = 1

                         Standard orientation:
 ---------------------------------------------------------------------
 Center     Atomic      Atomic             Coordinates (Angstroms)
 Number     Number       Type             X           Y           Z
 ---------------------------------------------------------------------
      1          6           0       -0.137290    0.495355   -0.427772
      2          6           0        1.068343   -0.120156    0.240042
      3          9           0       -0.266801    1.822053   -0.091789
      4          1           0        0.947344    0.011860    1.322578
      5          1           0       -0.105823    0.405743   -1.513026
      6          7           0       -1.392748   -0.192648    0.021084
      7          8           0       -1.740085   -0.012380    1.183781
      8          8           0       -1.977955   -0.885905   -0.807802
      9          7           0        2.261009    0.529746   -0.293314
     10          1           0        2.314424    1.472747    0.084976
     11          1           0        3.019786   -0.010042    0.163021
     12          7           0        1.070175   -1.542552   -0.015412
     13          1           0        1.371148   -1.657402   -0.981239
     14          1           0        1.872232   -1.872544    0.546350
     15          1           0        3.571053   -1.375575    1.335470
 ---------------------------------------------------------------------

 SCF Done:  E(RHF) =  -492.688362682     A.U. after    2 cycles

 The electronic state is 1-A.
 Alpha  occ. eigenvalues --  -26.38320 -20.49293 -20.49183 -15.68266 -15.35258
 Alpha  occ. eigenvalues --  -15.35065 -11.27837 -11.17585  -1.56427  -1.50871
 Alpha  occ. eigenvalues --   -1.40225  -1.11408  -1.00759  -0.99376  -0.81843
 Alpha  occ. eigenvalues --   -0.73917  -0.69531  -0.66208  -0.63931  -0.61469
 Alpha  occ. eigenvalues --   -0.59285  -0.56321  -0.53726  -0.51595  -0.50032
 Alpha  occ. eigenvalues --   -0.46201  -0.42773  -0.38879  -0.38521  -0.34904
 Alpha  occ. eigenvalues --   -0.33375  -0.31750  -0.10063
 Alpha virt. eigenvalues --    0.13031   0.14460   0.15205   0.16191   0.16310
 Alpha virt. eigenvalues --    0.17887   0.19405   0.20412   0.21225   0.21602
 Alpha virt. eigenvalues --    0.23794   0.24703   0.25188   0.26038   0.26807

 Mulliken charges:
               1
     1  C    1.217321
     2  C   -2.556017
     3  F   -0.867264
     4  H    0.054282
     5  H    0.058913
     6  N    2.662531
     7  O   -1.399939
     8  O   -1.384187
     9  N    0.618646
    10  H    0.208961
    11  H    0.147589
    12  N    0.460371
    13  H    0.307783
    14  H    0.310587
    15  H   -0.839576
 Sum of Mulliken charges =  -1.00000

 Dipole moment (field-independent basis, Debye):
    X=             -9.4843    Y=              5.9046    Z=             -5.0962  Tot=             12.2796

 Test job not archived.
 1\1\GINC-SE453\SP\RHF\Aug-CC-pVDZ\C2H7F1N3O2(1-)\OHZDE\09-Apr-2025\0\\
 #t hf aug-cc-pvdz iop(5/13=1,5/36=2,99/5=2) pseudo=read geom=check gue
 ss=(read,tcheck) scf=(maxcycle=1)\\title\\-1,1\C,0,-0.79071,0.084299,-
 1.536889\C,0,0.145579,-0.008361,-0.356569\F,0,-0.499924,-0.875655,-2.4
 76952\H,0,1.168296,0.09866,-0.739386\H,0,-1.8374,-0.006841,-1.248912\N
 ,0,-0.64883,1.415308,-2.214591\O,0,0.398072,1.622119,-2.819759\O,0,-1.
 589945,2.198796,-2.11176\N,0,-0.093107,-1.284204,0.310176\H,0,0.283499
 ,-2.030151,-0.270287\H,0,0.531753,-1.21376,1.134763\N,0,-0.096789,1.11

 Normal termination of Gaussian 16 at Wed Apr  9 02:32:55 2025.
