 Gaussian 16, Revision C.01,

 ----------------------------------------------------------------------
 #t hf aug-cc-pvdz symm=none int=(grid=ultrafine) guess=(read,tcheck) s
 table=(opt,rrhf)
 ----------------------------------------------------------------------
 -----
 title
 -----
 Symbolic Z-matrix:
 Charge = -1 Multiplicity = 1

 SCF Done:  E(RHF) =  -832.218807470     A.U. after   17 cycles
 Normal termination of Gaussian 16 at Wed Apr  9 03:03:03 2025.
 Gaussian 16:  ES64L-G16RevC.01  3-Jul-2019

 ----------------------------------------------------------------------
 #t hf aug-cc-pvdz iop(5/13=1,5/36=2,99/5=2) pseudo=read geom=check gue
 ss=(read,tcheck) scf=(maxcycle=1)
 ----------------------------------------------------------------------
 -----
 title
 -----
 Structure from the checkpoint file:  "E2SN2_91_mol1.chk"
 Charge = -1 Multiplicity = 1

                         Standard orientation:
 ---------------------------------------------------------------------
 Center     Atomic      Atomic             Coordinates (Angstroms)
 Number     Number       Type             X           Y           Z
 ---------------------------------------------------------------------
      1          6           0       -0.584303   -0.202201   -0.233768
      2          6           0        0.908302   -0.256699   -0.528534
      3         17           0       -0.914021   -0.447925    1.552962
      4          1           0        0.968924   -0.886435   -2.937834
      5          1           0        0.936706   -0.195496   -1.726976
      6          6           0       -1.127456    1.118472   -0.576044
      7          7           0       -1.541787    2.178571   -0.866994
      8          7           0       -1.293787   -1.229167   -0.958214
      9          1           0       -0.856567   -2.094113   -0.642307
     10          1           0       -0.967667   -1.132499   -1.929179
     11          7           0        1.404951   -1.604956   -0.335374
     12          1           0        2.159312   -1.636761    0.336351
     13          1           0        1.732228   -1.899751   -1.264107
     14          6           0        1.680655    0.786710    0.101192
     15          7           0        2.330943    1.624421    0.615814
 ---------------------------------------------------------------------

 SCF Done:  E(RHF) =  -832.669257510     A.U. after    2 cycles

 The electronic state is 1-A.
 Alpha  occ. eigenvalues -- -105.45505 -15.41836 -15.40046 -15.39128 -15.38512
 Alpha  occ. eigenvalues --  -11.26883 -11.18511 -11.17201 -11.17136 -10.50364
 Alpha  occ. eigenvalues --   -7.67294  -7.66927  -7.66920  -1.15428  -1.11318
 Alpha  occ. eigenvalues --   -1.10172  -1.06880  -0.97035  -0.88557  -0.79108
 Alpha  occ. eigenvalues --   -0.66211  -0.62876  -0.58290  -0.57204  -0.53853
 Alpha  occ. eigenvalues --   -0.50702  -0.49937  -0.47825  -0.44165  -0.39836
 Alpha  occ. eigenvalues --   -0.39742  -0.39501  -0.38134  -0.35752  -0.35659
 Alpha  occ. eigenvalues --   -0.34587  -0.32677  -0.13473
 Alpha virt. eigenvalues --    0.12941   0.14453   0.15699   0.16755   0.17083
 Alpha virt. eigenvalues --    0.17805   0.17911   0.19237   0.21147   0.22497
 Alpha virt. eigenvalues --    0.22524   0.23538   0.24525   0.24734   0.24849

 Mulliken charges:
               1
     1  C   -1.855276
     2  C    0.237746
     3  Cl   0.024964
     4  H   -0.492015
     5  H    0.258685
     6  C   -1.197190
     7  N    0.905710
     8  N    0.944772
     9  H    0.304738
    10  H    0.305807
    11  N    0.453843
    12  H    0.190492
    13  H    0.319432
    14  C   -2.389870
    15  N    0.988161
 Sum of Mulliken charges =  -1.00000

 Dipole moment (field-independent basis, Debye):
    X=             -1.4199    Y=             -3.6190    Z=              5.9858  Tot=              7.1374

 Test job not archived.
 1\1\GINC-SE143\SP\RHF\Aug-CC-pVDZ\C4H6Cl1N4(1-)\OHZDE\09-Apr-2025\0\\#
 t hf aug-cc-pvdz iop(5/13=1,5/36=2,99/5=2) pseudo=read geom=check gues
 s=(read,tcheck) scf=(maxcycle=1)\\title\\-1,1\C,0,-0.15264865,-0.04175
 096,-0.41012442\C,0,-0.17478913,-0.02517569,1.11203277\Cl,0,1.56568318
 ,0.02197215,-1.04634326\H,0,-2.44714577,0.8610993,1.61788211\H,0,-1.34
 887531,0.04397591,1.35194224\C,0,-0.73516028,-1.29013589,-0.91861341\N
 ,0,-1.21481904,-2.29144723,-1.30258584\N,0,-0.86535803,1.09043049,-0.9
 5147198\H,0,-0.37996021,1.89417394,-0.5546393\H,0,-1.7693003,1.0855321

 Normal termination of Gaussian 16 at Wed Apr  9 03:03:11 2025.
