 Gaussian 16, Revision C.01,

 ----------------------------------------------------------------------
 #t hf aug-cc-pvdz symm=none int=(grid=ultrafine) guess=(read,tcheck) s
 table=(opt,rrhf)
 ----------------------------------------------------------------------
 -----
 title
 -----
 Symbolic Z-matrix:
 Charge = -1 Multiplicity = 1

 SCF Done:  E(RHF) =  -951.233311734     A.U. after   16 cycles
 Normal termination of Gaussian 16 at Wed Apr  9 02:41:16 2025.
 Gaussian 16:  ES64L-G16RevC.01  3-Jul-2019

 ----------------------------------------------------------------------
 #t hf aug-cc-pvdz iop(5/13=1,5/36=2,99/5=2) pseudo=read geom=check gue
 ss=(read,tcheck) scf=(maxcycle=1)
 ----------------------------------------------------------------------
 -----
 title
 -----
 Structure from the checkpoint file:  "E2SN2_19_mol2.chk"
 Charge = -1 Multiplicity = 1

                         Standard orientation:
 ---------------------------------------------------------------------
 Center     Atomic      Atomic             Coordinates (Angstroms)
 Number     Number       Type             X           Y           Z
 ---------------------------------------------------------------------
      1          6           0       -0.629786    0.431078    0.003791
      2          6           0        0.275167   -0.494877   -0.804236
      3         17           0        0.117603    2.084396    0.171259
      4          1           0       -0.288149   -1.427631   -0.849290
      5          1           0        0.483520   -0.052465   -1.774276
      6          7           0       -1.817775    0.568491   -0.813264
      7          1           0       -2.216560   -0.393894   -0.730566
      8          1           0       -2.443943    1.209310   -0.333865
      9          7           0       -0.785725   -0.124189    1.323542
     10          1           0       -1.417827    0.481762    1.838764
     11          1           0       -1.298659   -1.001796    1.105698
     12          7           0        1.581279   -0.762675   -0.156109
     13          8           0        2.515001   -0.001871   -0.426113
     14          8           0        1.668960   -1.732291    0.594484
     15          9           0       -2.111785   -1.973924   -0.132372
 ---------------------------------------------------------------------

 SCF Done:  E(RHF) =  -951.795491659     A.U. after    2 cycles

 The electronic state is 1-A.
 Alpha  occ. eigenvalues -- -105.42456 -26.12004 -20.45911 -20.45650 -15.65100
 Alpha  occ. eigenvalues --  -15.35030 -15.34797 -11.23837 -11.16204 -10.47400
 Alpha  occ. eigenvalues --   -7.64324  -7.63978  -7.63965  -1.52656  -1.36456
 Alpha  occ. eigenvalues --   -1.18989  -1.12674  -1.00594  -0.98728  -0.92036
 Alpha  occ. eigenvalues --   -0.78367  -0.69228  -0.63287  -0.62304  -0.60515
 Alpha  occ. eigenvalues --   -0.57372  -0.54231  -0.53087  -0.49568  -0.45568
 Alpha  occ. eigenvalues --   -0.39629  -0.38342  -0.36288  -0.34843  -0.33302
 Alpha  occ. eigenvalues --   -0.32891  -0.31311  -0.30199  -0.28227  -0.27869
 Alpha  occ. eigenvalues --   -0.27628
 Alpha virt. eigenvalues --    0.13430   0.14688   0.14919   0.17111   0.17848
 Alpha virt. eigenvalues --    0.18469   0.18880   0.19586   0.22242   0.23764
 Alpha virt. eigenvalues --    0.24940   0.25242   0.26874   0.27057   0.27812

 Mulliken charges:
               1
     1  C   -3.245305
     2  C    0.371079
     3  Cl  -0.023798
     4  H    0.139090
     5  H    0.174483
     6  N    0.828112
     7  H    0.307912
     8  H    0.200592
     9  N    0.816467
    10  H    0.223831
    11  H    0.347015
    12  N    2.651542
    13  O   -1.420920
    14  O   -1.361770
    15  F   -1.008328
 Sum of Mulliken charges =  -1.00000

 Dipole moment (field-independent basis, Debye):
    X=              1.3277    Y=              4.4960    Z=             -0.2833  Tot=              4.6965

 Test job not archived.
 1\1\GINC-SE462\SP\RHF\Aug-CC-pVDZ\C2H6Cl1F1N3O2(1-)\OHZDE\09-Apr-2025\
 0\\#t hf aug-cc-pvdz iop(5/13=1,5/36=2,99/5=2) pseudo=read geom=check
 guess=(read,tcheck) scf=(maxcycle=1)\\title\\-1,1\C,0,0.044839,0.01011
 8,-1.461314\C,0,-0.016753,-0.001353,0.063585\Cl,0,-1.628401,0.097427,-
 2.177375\H,0,1.031863,-0.031864,0.361673\H,0,-0.555673,0.872998,0.4174
 12\N,0,0.722596,1.24979,-1.780119\H,0,1.685992,1.031796,-1.438944\H,0,
 0.758436,1.324879,-2.792856\N,0,0.654952,-1.218363,-1.900605\H,0,0.722
 414,-1.182442,-2.91369\H,0,1.614721,-1.106608,-1.517062\N,0,-0.701217,

 Normal termination of Gaussian 16 at Wed Apr  9 02:41:22 2025.
