 Gaussian 16, Revision C.01,

 ----------------------------------------------------------------------
 #t hf aug-cc-pvdz symm=none int=(grid=ultrafine) guess=(read,tcheck) s
 table=(opt,rrhf)
 ----------------------------------------------------------------------
 -----
 title
 -----
 Symbolic Z-matrix:
 Charge = -1 Multiplicity = 1

 SCF Done:  E(RHF) =  -403.429434248     A.U. after   16 cycles
 Normal termination of Gaussian 16 at Wed Apr  9 02:38:16 2025.
 Gaussian 16:  ES64L-G16RevC.01  3-Jul-2019

 ----------------------------------------------------------------------
 #t hf aug-cc-pvdz iop(5/13=1,5/36=2,99/5=2) pseudo=read geom=check gue
 ss=(read,tcheck) scf=(maxcycle=1)
 ----------------------------------------------------------------------
 -----
 title
 -----
 Structure from the checkpoint file:  "E2SN2_148_mol1.chk"
 Charge = -1 Multiplicity = 1

                         Standard orientation:
 ---------------------------------------------------------------------
 Center     Atomic      Atomic             Coordinates (Angstroms)
 Number     Number       Type             X           Y           Z
 ---------------------------------------------------------------------
      1          6           0        0.297540   -0.385714    0.092392
      2          6           0       -0.887354    0.397368   -0.281113
      3          9           0        0.410464   -0.661388    1.548268
      4          1           0       -1.234503    0.010909   -2.650386
      5          1           0       -0.923470    0.322150   -1.667146
      6          6           0        1.537223    0.351726   -0.208700
      7          7           0        2.537538    0.916329   -0.460100
      8          6           0       -0.933995    1.825309    0.212352
      9          1           0       -0.004065    2.366022    0.004105
     10          1           0       -1.747663    2.343151   -0.307107
     11          1           0       -1.136201    1.897850    1.291829
     12          7           0       -2.149597   -0.288498   -0.068423
     13          1           0       -2.094337   -0.971544    0.678470
     14          1           0       -2.398348   -0.765107   -0.940518
     15          6           0        0.340460   -1.754012   -0.562030
     16          1           0       -0.466604   -2.365672   -0.158461
     17          1           0        0.179653   -1.636994   -1.639631
     18          1           0        1.292531   -2.251164   -0.363320
 ---------------------------------------------------------------------

 SCF Done:  E(RHF) =  -403.843472666     A.U. after    2 cycles

 The electronic state is 1-A.
 Alpha  occ. eigenvalues --  -26.29899 -15.39327 -15.33418 -11.21956 -11.16286
 Alpha  occ. eigenvalues --  -11.11281 -11.07737 -11.07368  -1.40351  -1.09665
 Alpha  occ. eigenvalues --   -1.03916  -0.93785  -0.84861  -0.77026  -0.67583
 Alpha  occ. eigenvalues --   -0.59145  -0.55089  -0.53326  -0.51087  -0.49153
 Alpha  occ. eigenvalues --   -0.46242  -0.45409  -0.42636  -0.42149  -0.40834
 Alpha  occ. eigenvalues --   -0.39013  -0.37430  -0.37141  -0.36267  -0.33322
 Alpha  occ. eigenvalues --   -0.28137  -0.09852
 Alpha virt. eigenvalues --    0.12751   0.13487   0.14174   0.15198   0.15695
 Alpha virt. eigenvalues --    0.15959   0.16457   0.18100   0.19460   0.19575
 Alpha virt. eigenvalues --    0.21790   0.22814   0.23408   0.24596   0.25194

 Mulliken charges:
               1
     1  C    1.401868
     2  C   -2.201049
     3  F   -1.001372
     4  H   -0.561177
     5  H    0.411185
     6  C   -1.969938
     7  N    0.994377
     8  C   -0.447680
     9  H    0.222431
    10  H    0.144675
    11  H    0.159285
    12  N    0.706803
    13  H    0.206427
    14  H    0.237562
    15  C    0.058888
    16  H    0.152991
    17  H    0.329164
    18  H    0.155561
 Sum of Mulliken charges =  -1.00000

 Dipole moment (field-independent basis, Debye):
    X=              0.7612    Y=             -3.0434    Z=              5.3622  Tot=              6.2124

 Test job not archived.
 1\1\GINC-SE083\SP\RHF\Aug-CC-pVDZ\C5H10F1N2(1-)\OHZDE\09-Apr-2025\0\\#
 t hf aug-cc-pvdz iop(5/13=1,5/36=2,99/5=2) pseudo=read geom=check gues
 s=(read,tcheck) scf=(maxcycle=1)\\title\\-1,1\C,0,-0.16520471,0.036490
 88,-0.36342531\C,0,-0.14963299,0.09949398,1.10370977\F,0,1.17890301,-0
 .10834113,-0.98045091\H,0,-2.39383819,-0.46676744,1.829112\H,0,-1.4853
 3708,-0.01704194,1.46476963\C,0,-0.66898916,1.29409165,-0.94302017\N,0
 ,-1.08714381,2.2824493,-1.42354624\C,0,0.50159651,1.31701702,1.7187183
 4\H,0,0.13922904,2.25007913,1.27308232\H,0,0.25656811,1.33680585,2.786

 Normal termination of Gaussian 16 at Wed Apr  9 02:38:25 2025.
