 Gaussian 16, Revision C.01,

 ----------------------------------------------------------------------
 #t hf aug-cc-pvdz symm=none int=(grid=ultrafine) guess=(read,tcheck) s
 table=(opt,rrhf)
 ----------------------------------------------------------------------
 -----
 title
 -----
 Symbolic Z-matrix:
 Charge = -1 Multiplicity = 1

 SCF Done:  E(RHF) =  -1423.67528434     A.U. after   18 cycles
 Normal termination of Gaussian 16 at Wed Apr  9 02:45:35 2025.
 Gaussian 16:  ES64L-G16RevC.01  3-Jul-2019

 ----------------------------------------------------------------------
 #t hf aug-cc-pvdz iop(5/13=1,5/36=2,99/5=2) pseudo=read geom=check gue
 ss=(read,tcheck) scf=(maxcycle=1)
 ----------------------------------------------------------------------
 -----
 title
 -----
 Structure from the checkpoint file:  "E2SN2_227_mol1.chk"
 Charge = -1 Multiplicity = 1

                         Standard orientation:
 ---------------------------------------------------------------------
 Center     Atomic      Atomic             Coordinates (Angstroms)
 Number     Number       Type             X           Y           Z
 ---------------------------------------------------------------------
      1          6           0       -0.229573   -0.061470    0.167821
      2          1           0        0.394009   -1.993709   -0.422671
      3         17           0        1.264858    1.762862    0.066271
      4         17           0       -1.905451   -1.588742    0.152331
      5          6           0        0.754280   -0.975476   -0.582875
      6          7           0       -1.207185    0.916331   -0.443441
      7          8           0       -1.285019    0.955765   -1.660030
      8          8           0       -1.868478    1.565436    0.349070
      9          6           0       -0.161873   -0.029235    1.599069
     10          7           0       -0.073491   -0.080979    2.772592
     11          6           0        2.083708   -0.958114    0.040448
     12          7           0        3.150450   -1.149904    0.494981
     13          6           0        0.872149   -0.766833   -2.093356
     14          1           0       -0.083480   -0.964693   -2.573305
     15          1           0        1.188470    0.248990   -2.318846
     16          1           0        1.618493   -1.471611   -2.469290
 ---------------------------------------------------------------------

 SCF Done:  E(RHF) =  -1424.31203768     A.U. after    2 cycles

 The electronic state is 1-A.
 Alpha  occ. eigenvalues -- -105.40124-105.37292 -20.49081 -20.48917 -15.70877
 Alpha  occ. eigenvalues --  -15.42918 -15.41244 -11.35547 -11.22120 -11.20453
 Alpha  occ. eigenvalues --  -11.18811 -11.14973 -10.44890 -10.42099  -7.61741
 Alpha  occ. eigenvalues --   -7.61515  -7.61502  -7.58934  -7.58740  -7.58730
 Alpha  occ. eigenvalues --   -1.57399  -1.41285  -1.13614  -1.11790  -1.07512
 Alpha  occ. eigenvalues --   -0.98129  -0.87238  -0.85957  -0.82647  -0.79481
 Alpha  occ. eigenvalues --   -0.71549  -0.66875  -0.64549  -0.63397  -0.59496
 Alpha  occ. eigenvalues --   -0.51993  -0.51362  -0.49206  -0.47177  -0.46638
 Alpha  occ. eigenvalues --   -0.43659  -0.41441  -0.40727  -0.38820  -0.38566
 Alpha  occ. eigenvalues --   -0.37589  -0.35452  -0.34499  -0.31434  -0.31144
 Alpha  occ. eigenvalues --   -0.28931  -0.28845  -0.27440
 Alpha virt. eigenvalues --    0.11446   0.11665   0.13531   0.14088   0.15197
 Alpha virt. eigenvalues --    0.17684   0.18335   0.18728   0.20058   0.20917
 Alpha virt. eigenvalues --    0.21372   0.22482   0.22976   0.23577   0.24131

 Mulliken charges:
               1
     1  C   -0.338781
     2  H    0.344434
     3  Cl  -0.486849
     4  Cl  -0.416298
     5  C    0.277601
     6  N    3.458512
     7  O   -1.601458
     8  O   -1.538643
     9  C   -2.156022
    10  N    1.238845
    11  C   -1.770656
    12  N    1.090754
    13  C    0.209424
    14  H    0.240168
    15  H    0.343895
    16  H    0.105072
 Sum of Mulliken charges =  -1.00000

 Dipole moment (field-independent basis, Debye):
    X=             -1.3854    Y=             -2.0334    Z=             -5.3355  Tot=              5.8755

 Test job not archived.
 1\1\GINC-SE332\SP\RHF\Aug-CC-pVDZ\C5H4Cl2N3O2(1-)\OHZDE\09-Apr-2025\0\
 \#t hf aug-cc-pvdz iop(5/13=1,5/36=2,99/5=2) pseudo=read geom=check gu
 ess=(read,tcheck) scf=(maxcycle=1)\\title\\-1,1\C,0,0.61970746,-0.0716
 7034,-0.00935004\H,0,1.66605668,1.74658746,0.25555419\Cl,0,-1.73723255
 ,-0.12560222,0.10791491\Cl,0,2.8491661,-0.24680861,-0.3837944\C,0,0.63
 728494,1.46642505,0.02019227\N,0,0.41635505,-0.95414843,-1.21986215\O,
 0,0.31622939,-0.41155307,-2.30764366\O,0,0.40567515,-2.15374354,-1.001
 74258\C,0,0.69163828,-0.77087974,1.23966009\N,0,0.79048696,-1.27782027

 Normal termination of Gaussian 16 at Wed Apr  9 02:45:44 2025.
