 Gaussian 16, Revision C.01,

 ----------------------------------------------------------------------
 #t hf aug-cc-pvdz symm=none int=(grid=ultrafine) guess=(read,tcheck) s
 table=(opt,rrhf)
 ----------------------------------------------------------------------
 -----
 title
 -----
 Symbolic Z-matrix:
 Charge = -1 Multiplicity = 1

 SCF Done:  E(RHF) =  -575.178184854     A.U. after   16 cycles
 Normal termination of Gaussian 16 at Wed Apr  9 02:58:58 2025.
 Gaussian 16:  ES64L-G16RevC.01  3-Jul-2019

 ----------------------------------------------------------------------
 #t hf aug-cc-pvdz iop(5/13=1,5/36=2,99/5=2) pseudo=read geom=check gue
 ss=(read,tcheck) scf=(maxcycle=1)
 ----------------------------------------------------------------------
 -----
 title
 -----
 Structure from the checkpoint file:  "E2SN2_400_mol2.chk"
 Charge = -1 Multiplicity = 1

                         Standard orientation:
 ---------------------------------------------------------------------
 Center     Atomic      Atomic             Coordinates (Angstroms)
 Number     Number       Type             X           Y           Z
 ---------------------------------------------------------------------
      1          6           0       -0.636089    0.679809    0.075776
      2          6           0        0.255024   -0.318030   -0.671615
      3          9           0        0.018108    1.929589    0.042070
      4          1           0       -0.292313   -1.272540   -0.605762
      5          1           0        0.377778    0.021224   -1.699768
      6          7           0       -1.891490    0.787752   -0.607677
      7          1           0       -2.233446   -0.207274   -0.588359
      8          1           0       -1.698816    1.016676   -1.579802
      9          6           0       -0.895165    0.285834    1.509266
     10          1           0        0.027444    0.228149    2.086007
     11          1           0       -1.564027    1.031624    1.942702
     12          1           0       -1.387539   -0.687048    1.464041
     13          7           0        1.627255   -0.427773   -0.127238
     14          8           0        2.545615    0.102874   -0.759745
     15          8           0        1.787244   -1.036502    0.933063
     16          9           0       -2.060878   -1.825958   -0.346711
 ---------------------------------------------------------------------

 SCF Done:  E(RHF) =  -575.740909598     A.U. after    2 cycles

 The electronic state is 1-A.
 Alpha  occ. eigenvalues --  -26.31204 -26.10664 -20.46456 -20.46318 -15.65630
 Alpha  occ. eigenvalues --  -15.33705 -11.22087 -11.15194 -11.08445  -1.53150
 Alpha  occ. eigenvalues --   -1.43545  -1.36888  -1.17265  -1.06480  -0.98622
 Alpha  occ. eigenvalues --   -0.86615  -0.76854  -0.69084  -0.63251  -0.62655
 Alpha  occ. eigenvalues --   -0.61979  -0.57496  -0.54764  -0.51721  -0.49502
 Alpha  occ. eigenvalues --   -0.45836  -0.42999  -0.41452  -0.39771  -0.38668
 Alpha  occ. eigenvalues --   -0.37113  -0.35293  -0.32220  -0.30981  -0.26916
 Alpha  occ. eigenvalues --   -0.26719  -0.26170
 Alpha virt. eigenvalues --    0.13763   0.14050   0.14992   0.16395   0.17236
 Alpha virt. eigenvalues --    0.17478   0.18861   0.19249   0.19837   0.22770
 Alpha virt. eigenvalues --    0.24063   0.24989   0.25774   0.26153   0.27110

 Mulliken charges:
               1
     1  C   -0.450661
     2  C   -0.278149
     3  F   -1.075823
     4  H    0.298912
     5  H    0.106026
     6  N    0.464825
     7  H    0.282272
     8  H    0.278158
     9  C   -0.103088
    10  H    0.190308
    11  H    0.169926
    12  H    0.234932
    13  N    2.768465
    14  O   -1.424941
    15  O   -1.446569
    16  F   -1.014593
 Sum of Mulliken charges =  -1.00000

 Dipole moment (field-independent basis, Debye):
    X=              3.4915    Y=              3.3521    Z=             -0.3215  Tot=              4.8508

 Test job not archived.
 1\1\GINC-SE054\SP\RHF\Aug-CC-pVDZ\C3H7F2N2O2(1-)\OHZDE\09-Apr-2025\0\\
 #t hf aug-cc-pvdz iop(5/13=1,5/36=2,99/5=2) pseudo=read geom=check gue
 ss=(read,tcheck) scf=(maxcycle=1)\\title\\-1,1\C,0,-0.017662,-0.029653
 ,0.013894\C,0,-0.491967,-0.07034,-1.442725\F,0,1.388848,0.081191,-0.00
 8556\H,0,-1.587348,-0.168528,-1.368547\H,0,-0.189381,0.852229,-1.93726
 4\N,0,-0.57035,1.128422,0.652791\H,0,-1.603398,0.969086,0.531103\H,0,-
 0.327,1.940669,0.091016\C,0,-0.41348,-1.254732,0.80113\H,0,0.015403,-2
 .162967,0.378833\H,0,-0.066814,-1.116382,1.826863\H,0,-1.503825,-1.287

 Normal termination of Gaussian 16 at Wed Apr  9 02:59:05 2025.
