 Gaussian 16, Revision C.01,

 ----------------------------------------------------------------------
 #t hf aug-cc-pvdz symm=none int=(grid=ultrafine) guess=(read,tcheck) s
 table=(opt,rrhf)
 ----------------------------------------------------------------------
 -----
 title
 -----
 Symbolic Z-matrix:
 Charge = -1 Multiplicity = 1

 SCF Done:  E(RHF) =  -627.800133869     A.U. after   16 cycles
 Normal termination of Gaussian 16 at Wed Apr  9 02:48:16 2025.
 Gaussian 16:  ES64L-G16RevC.01  3-Jul-2019

 ----------------------------------------------------------------------
 #t hf aug-cc-pvdz iop(5/13=1,5/36=2,99/5=2) pseudo=read geom=check gue
 ss=(read,tcheck) scf=(maxcycle=1)
 ----------------------------------------------------------------------
 -----
 title
 -----
 Structure from the checkpoint file:  "E2SN2_264_mol1.chk"
 Charge = -1 Multiplicity = 1

                         Standard orientation:
 ---------------------------------------------------------------------
 Center     Atomic      Atomic             Coordinates (Angstroms)
 Number     Number       Type             X           Y           Z
 ---------------------------------------------------------------------
      1          6           0       -0.104896    0.008498    0.087911
      2          1           0       -1.113547   -1.031514    1.633644
      3          9           0       -0.390467   -0.299989   -1.581040
      4          9           0        0.461135    0.396743    1.753369
      5          6           0       -1.059650   -1.071705    0.549786
      6          1           0       -0.596986   -2.015571    0.241429
      7          6           0       -0.520655    1.390860   -0.028343
      8          7           0       -0.888700    2.499633   -0.145912
      9          7           0        1.340505   -0.305633   -0.157718
     10          8           0        1.699781   -1.462470    0.023014
     11          8           0        2.055188    0.609301   -0.538753
     12          7           0       -2.390059   -0.837064   -0.012962
     13          1           0       -3.000222   -1.591117    0.278602
     14          1           0       -2.286038   -0.871705   -1.018704
 ---------------------------------------------------------------------

 SCF Done:  E(RHF) =  -628.398539311     A.U. after    2 cycles

 The electronic state is 1-A.
 Alpha  occ. eigenvalues --  -26.23471 -26.19568 -20.45533 -20.45479 -15.66519
 Alpha  occ. eigenvalues --  -15.38425 -15.37047 -11.31295 -11.16476 -11.15250
 Alpha  occ. eigenvalues --   -1.53478  -1.37210  -1.32660  -1.28202  -1.08686
 Alpha  occ. eigenvalues --   -1.07046  -0.98487  -0.83888  -0.77110  -0.68480
 Alpha  occ. eigenvalues --   -0.62130  -0.61072  -0.59668  -0.52782  -0.51636
 Alpha  occ. eigenvalues --   -0.49522  -0.47299  -0.45048  -0.40533  -0.39234
 Alpha  occ. eigenvalues --   -0.38381  -0.36984  -0.36107  -0.35873  -0.34839
 Alpha  occ. eigenvalues --   -0.33494  -0.31572  -0.31152  -0.30609
 Alpha virt. eigenvalues --    0.12055   0.14764   0.15007   0.16417   0.19205
 Alpha virt. eigenvalues --    0.19945   0.21220   0.22702   0.23644   0.24461
 Alpha virt. eigenvalues --    0.24902   0.25869   0.26305   0.26949   0.28208

 Mulliken charges:
               1
     1  C    0.837895
     2  H    0.163418
     3  F   -0.901551
     4  F   -0.890627
     5  C   -0.237869
     6  H    0.247018
     7  C   -2.218049
     8  N    1.098036
     9  N    3.709884
    10  O   -1.696976
    11  O   -1.621315
    12  N    0.179714
    13  H    0.140251
    14  H    0.190168
 Sum of Mulliken charges =  -1.00000

 Dipole moment (field-independent basis, Debye):
    X=             -1.9837    Y=             -5.2605    Z=             -0.1893  Tot=              5.6253

 Test job not archived.
 1\1\GINC-SE188\SP\RHF\Aug-CC-pVDZ\C3H4F2N3O2(1-)\OHZDE\09-Apr-2025\0\\
 #t hf aug-cc-pvdz iop(5/13=1,5/36=2,99/5=2) pseudo=read geom=check gue
 ss=(read,tcheck) scf=(maxcycle=1)\\title\\-1,1\C,0,0.66755466,0.008871
 23,-0.03213924\H,0,1.6967571,1.86017078,-0.07366013\F,0,-1.0487851,-0.
 10292977,-0.09371414\F,0,2.4510095,-0.11357457,0.1896095\C,0,0.6652349
 8,1.52270496,-0.03696811\H,0,0.21947653,1.81270024,0.92075075\C,0,0.82
 729403,-0.75442358,-1.25245083\N,0,0.92605049,-1.35239929,-2.2580996\N
 ,0,0.615769,-0.74947256,1.26031134\O,0,0.56352359,-0.09224272,2.292461

 Normal termination of Gaussian 16 at Wed Apr  9 02:48:22 2025.
