 Gaussian 16, Revision C.01,

 ----------------------------------------------------------------------
 #t hf aug-cc-pvdz symm=none int=(grid=ultrafine) guess=(read,tcheck) s
 table=(opt,rrhf)
 ----------------------------------------------------------------------
 -----
 title
 -----
 Symbolic Z-matrix:
 Charge = -1 Multiplicity = 1

 SCF Done:  E(RHF) =  -935.288974210     A.U. after   15 cycles
 Normal termination of Gaussian 16 at Wed Apr  9 02:46:32 2025.
 Gaussian 16:  ES64L-G16RevC.01  3-Jul-2019

 ----------------------------------------------------------------------
 #t hf aug-cc-pvdz iop(5/13=1,5/36=2,99/5=2) pseudo=read geom=check gue
 ss=(read,tcheck) scf=(maxcycle=1)
 ----------------------------------------------------------------------
 -----
 title
 -----
 Structure from the checkpoint file:  "E2SN2_244_mol2.chk"
 Charge = -1 Multiplicity = 1

                         Standard orientation:
 ---------------------------------------------------------------------
 Center     Atomic      Atomic             Coordinates (Angstroms)
 Number     Number       Type             X           Y           Z
 ---------------------------------------------------------------------
      1          6           0        0.672943    0.340694   -0.319296
      2          6           0        0.003381    1.125489    0.776988
      3          9           0        1.721673    1.086491   -0.877012
      4          1           0       -0.671302    0.447417    1.305470
      5          1           0        0.781329    1.457587    1.465468
      6          7           0        1.524087   -0.825996    0.310692
      7          8           0        1.997541   -0.666840    1.432072
      8          8           0        1.718657   -1.808995   -0.401066
      9          7           0       -0.181486   -0.104317   -1.301865
     10          1           0        0.217778   -0.862116   -1.837928
     11          1           0       -1.106873   -0.352443   -0.925998
     12          6           0       -0.789343    2.300531    0.213053
     13          1           0       -1.660195    1.937707   -0.331165
     14          1           0       -0.171008    2.904471   -0.454867
     15          1           0       -1.141436    2.935144    1.030745
     16         17           0       -2.952530   -0.854565    0.135711
 ---------------------------------------------------------------------

 SCF Done:  E(RHF) =  -935.840060475     A.U. after    2 cycles

 The electronic state is 1-A.
 Alpha  occ. eigenvalues -- -105.28717 -26.36000 -20.48378 -20.48341 -15.66594
 Alpha  occ. eigenvalues --  -15.37684 -11.30374 -11.12838 -11.11609 -10.33317
 Alpha  occ. eigenvalues --   -7.50093  -7.50049  -7.50041  -1.55259  -1.48546
 Alpha  occ. eigenvalues --   -1.39170  -1.11994  -0.96034  -0.91566  -0.78366
 Alpha  occ. eigenvalues --   -0.74413  -0.71830  -0.69256  -0.64270  -0.63468
 Alpha  occ. eigenvalues --   -0.60625  -0.59592  -0.53743  -0.51123  -0.49411
 Alpha  occ. eigenvalues --   -0.47340  -0.43776  -0.41697  -0.39800  -0.38208
 Alpha  occ. eigenvalues --   -0.37114  -0.34610  -0.33725  -0.21705  -0.21077
 Alpha  occ. eigenvalues --   -0.20978
 Alpha virt. eigenvalues --    0.12201   0.13389   0.14024   0.14862   0.16780
 Alpha virt. eigenvalues --    0.17697   0.17967   0.19439   0.20265   0.21475
 Alpha virt. eigenvalues --    0.23505   0.24083   0.25231   0.25694   0.25922

 Mulliken charges:
               1
     1  C   -0.577420
     2  C   -0.220122
     3  F   -1.051927
     4  H    0.246925
     5  H    0.141491
     6  N    3.121110
     7  O   -1.542658
     8  O   -1.503857
     9  N    0.648360
    10  H    0.429713
    11  H    0.167788
    12  C   -0.394951
    13  H    0.197602
    14  H    0.209747
    15  H    0.094309
    16  Cl  -0.966112
 Sum of Mulliken charges =  -1.00000

 Dipole moment (field-independent basis, Debye):
    X=              7.3455    Y=              4.2404    Z=             -0.4770  Tot=              8.4950

 Test job not archived.
 1\1\GINC-SE187\SP\RHF\Aug-CC-pVDZ\C3H7Cl1F1N2O2(1-)\OHZDE\09-Apr-2025\
 0\\#t hf aug-cc-pvdz iop(5/13=1,5/36=2,99/5=2) pseudo=read geom=check
 guess=(read,tcheck) scf=(maxcycle=1)\\title\\-1,1\C,0,0.041451,0.06083
 5,0.029866\C,0,-0.406463,0.213357,-1.399177\F,0,1.432688,-0.107882,0.0
 85442\H,0,-1.452596,0.529144,-1.386735\H,0,0.195775,1.003198,-1.849686
 \N,0,-0.055687,1.451076,0.764912\O,0,0.087616,2.475255,0.103472\O,0,-0
 .203457,1.417371,1.984654\N,0,-0.596716,-0.943805,0.720494\H,0,-0.5131
 84,-0.82948,1.720987\H,0,-1.579034,-1.047714,0.431638\C,0,-0.276785,-1

 Normal termination of Gaussian 16 at Wed Apr  9 02:46:40 2025.
