 Gaussian 16, Revision C.01,

 ----------------------------------------------------------------------
 #t hf aug-cc-pvdz symm=none int=(grid=ultrafine) guess=(read,tcheck) s
 table=(opt,rrhf)
 ----------------------------------------------------------------------
 -----
 title
 -----
 Symbolic Z-matrix:
 Charge = -1 Multiplicity = 1

 SCF Done:  E(RHF) =  -476.157783593     A.U. after   17 cycles
 Normal termination of Gaussian 16 at Wed Apr  9 02:41:06 2025.
 Gaussian 16:  ES64L-G16RevC.01  3-Jul-2019

 ----------------------------------------------------------------------
 #t hf aug-cc-pvdz iop(5/13=1,5/36=2,99/5=2) pseudo=read geom=check gue
 ss=(read,tcheck) scf=(maxcycle=1)
 ----------------------------------------------------------------------
 -----
 title
 -----
 Structure from the checkpoint file:  "E2SN2_196_mol1.chk"
 Charge = -1 Multiplicity = 1

                         Standard orientation:
 ---------------------------------------------------------------------
 Center     Atomic      Atomic             Coordinates (Angstroms)
 Number     Number       Type             X           Y           Z
 ---------------------------------------------------------------------
      1          6           0       -1.237550    0.457425    0.120583
      2          1           0        0.011697    0.597310   -1.611808
      3          9           0       -0.762202   -0.528571    1.377594
      4          1           0       -1.812564    1.744111   -1.095442
      5          6           0        0.129007    0.651921   -0.534978
      6          1           0       -1.561339    1.234013    0.796440
      7          7           0       -2.148640   -0.493346   -0.465398
      8          1           0       -2.923061    0.015375   -0.858446
      9          1           0       -2.444022   -1.103315    0.285519
     10          7           0        1.045656   -0.523509   -0.230102
     11          8           0        1.939294   -0.400795    0.606813
     12          8           0        0.859034   -1.544168   -0.889758
     13          6           0        0.791311    1.929209   -0.070642
     14          1           0        0.126809    2.748482   -0.344156
     15          1           0        0.931283    1.896642    1.010073
     16          1           0        1.768670    2.070887   -0.538245
 ---------------------------------------------------------------------

 SCF Done:  E(RHF) =  -476.632241430     A.U. after    2 cycles

 The electronic state is 1-A.
 Alpha  occ. eigenvalues --  -26.20601 -20.43511 -20.43482 -15.62724 -15.34127
 Alpha  occ. eigenvalues --  -11.21252 -11.15902 -11.10033  -1.50540  -1.34307
 Alpha  occ. eigenvalues --   -1.29829  -1.04352  -0.98343  -0.83083  -0.76542
 Alpha  occ. eigenvalues --   -0.68028  -0.60755  -0.59047  -0.58504  -0.55967
 Alpha  occ. eigenvalues --   -0.53636  -0.48091  -0.43932  -0.42283  -0.40393
 Alpha  occ. eigenvalues --   -0.37550  -0.36546  -0.35608  -0.33623  -0.32864
 Alpha  occ. eigenvalues --   -0.29908  -0.29134  -0.11769
 Alpha virt. eigenvalues --    0.13333   0.14250   0.14486   0.15761   0.16128
 Alpha virt. eigenvalues --    0.16983   0.17255   0.20388   0.21553   0.23172
 Alpha virt. eigenvalues --    0.24210   0.24615   0.26331   0.26825   0.27544

 Mulliken charges:
               1
     1  C   -0.872935
     2  H    0.084742
     3  F   -0.972686
     4  H   -0.500674
     5  C   -0.933211
     6  H   -0.112343
     7  N    0.692854
     8  H    0.269980
     9  H    0.249741
    10  N    3.272385
    11  O   -1.544961
    12  O   -1.554103
    13  C    0.173306
    14  H    0.285011
    15  H    0.311777
    16  H    0.151115
 Sum of Mulliken charges =  -1.00000

 Dipole moment (field-independent basis, Debye):
    X=              2.2317    Y=             -0.0648    Z=              1.2136  Tot=              2.5412

 Test job not archived.
 1\1\GINC-SE339\SP\RHF\Aug-CC-pVDZ\C3H8F1N2O2(1-)\OHZDE\09-Apr-2025\0\\
 #t hf aug-cc-pvdz iop(5/13=1,5/36=2,99/5=2) pseudo=read geom=check gue
 ss=(read,tcheck) scf=(maxcycle=1)\\title\\-1,1\C,0,0.37117582,-0.06883
 185,0.09516254\H,0,1.65570787,1.5948103,0.49968402\F,0,-1.19427774,-0.
 03393938,0.66643845\H,0,2.01193827,-0.18100612,-0.77675268\C,0,0.65014
 453,1.43324826,0.12679592\H,0,0.06073404,-0.48019407,-0.85305573\N,0,0
 .89132403,-0.88419557,1.16383089\H,0,1.61085425,-1.47697776,0.78449218
 \H,0,0.11049439,-1.42204067,1.51627335\N,0,-0.21705564,2.12100802,1.17

 Normal termination of Gaussian 16 at Wed Apr  9 02:41:12 2025.
