 Gaussian 16, Revision C.01,

 ----------------------------------------------------------------------
 #t hf aug-cc-pvdz symm=none int=(grid=ultrafine) guess=(read,tcheck) s
 table=(opt,rrhf)
 ----------------------------------------------------------------------
 -----
 title
 -----
 Symbolic Z-matrix:
 Charge = -1 Multiplicity = 1

 SCF Done:  E(RHF) =  -539.087215378     A.U. after   16 cycles
 Normal termination of Gaussian 16 at Wed Apr  9 02:54:48 2025.
 Gaussian 16:  ES64L-G16RevC.01  3-Jul-2019

 ----------------------------------------------------------------------
 #t hf aug-cc-pvdz iop(5/13=1,5/36=2,99/5=2) pseudo=read geom=check gue
 ss=(read,tcheck) scf=(maxcycle=1)
 ----------------------------------------------------------------------
 -----
 title
 -----
 Structure from the checkpoint file:  "E2SN2_335_mol1.chk"
 Charge = -1 Multiplicity = 1

                         Standard orientation:
 ---------------------------------------------------------------------
 Center     Atomic      Atomic             Coordinates (Angstroms)
 Number     Number       Type             X           Y           Z
 ---------------------------------------------------------------------
      1          6           0       -0.435731   -0.403202    0.034725
      2          1           0        0.708908    0.201611    1.700909
      3          9           0        0.189003   -0.079200   -1.639544
      4          9           0       -1.243771   -0.525613    1.641729
      5          6           0        0.704149    0.424743    0.632149
      6          6           0       -0.280015   -1.902167   -0.071861
      7          1           0        0.411301   -2.143349   -0.875950
      8          1           0        0.077227   -2.285634    0.883783
      9          1           0       -1.252602   -2.353559   -0.270541
     10          6           0       -1.652812    0.247490   -0.419618
     11          7           0       -2.642793    0.768303   -0.779388
     12          6           0        0.493027    1.923355    0.431433
     13          1           0        0.426652    2.129406   -0.635669
     14          1           0       -0.437973    2.217160    0.919315
     15          1           0        1.318542    2.491838    0.868366
     16          6           0        2.006521    0.010488    0.098048
     17          7           0        3.104225   -0.285217   -0.197632
 ---------------------------------------------------------------------

 SCF Done:  E(RHF) =  -539.608129480     A.U. after    2 cycles

 The electronic state is 1-A.
 Alpha  occ. eigenvalues --  -26.19036 -26.18331 -15.38547 -15.36921 -11.25840
 Alpha  occ. eigenvalues --  -11.16580 -11.16318 -11.15487 -11.12060 -11.11205
 Alpha  occ. eigenvalues --   -1.28056  -1.26585  -1.09338  -1.07465  -0.98884
 Alpha  occ. eigenvalues --   -0.90254  -0.78587  -0.77868  -0.60593  -0.56602
 Alpha  occ. eigenvalues --   -0.52759  -0.48989  -0.48519  -0.47283  -0.44522
 Alpha  occ. eigenvalues --   -0.44053  -0.43511  -0.42169  -0.41064  -0.37266
 Alpha  occ. eigenvalues --   -0.36814  -0.35164  -0.34601  -0.34017  -0.33792
 Alpha  occ. eigenvalues --   -0.33430  -0.31435  -0.29657
 Alpha virt. eigenvalues --    0.12395   0.13615   0.14147   0.15061   0.15703
 Alpha virt. eigenvalues --    0.16161   0.16639   0.19277   0.20132   0.21370
 Alpha virt. eigenvalues --    0.22530   0.23574   0.24219   0.25243   0.25386

 Mulliken charges:
               1
     1  C    2.010330
     2  H    0.231305
     3  F   -0.871969
     4  F   -0.881942
     5  C   -0.246791
     6  C   -0.017700
     7  H    0.332167
     8  H    0.271696
     9  H    0.136469
    10  C   -3.333015
    11  N    1.250938
    12  C    0.246177
    13  H    0.417627
    14  H    0.244929
    15  H    0.060185
    16  C   -1.967467
    17  N    1.117061
 Sum of Mulliken charges =  -1.00000

 Dipole moment (field-independent basis, Debye):
    X=              1.5771    Y=              0.0551    Z=              2.6465  Tot=              3.0813

 Test job not archived.
 1\1\GINC-SE113\SP\RHF\Aug-CC-pVDZ\C6H7F2N2(1-)\OHZDE\09-Apr-2025\0\\#t
  hf aug-cc-pvdz iop(5/13=1,5/36=2,99/5=2) pseudo=read geom=check guess
 =(read,tcheck) scf=(maxcycle=1)\\title\\-1,1\C,0,0.63342896,-0.0519183
 9,-0.04005924\H,0,1.5499042,1.82588389,-0.33348542\F,0,-1.17901918,-0.
 16799894,-0.04160789\F,0,2.41371943,0.01628289,0.23614893\C,0,0.546619
 22,1.47527563,-0.08338239\C,0,0.79937778,-0.81724815,-1.33204843\H,0,-
 0.1382266,-0.81548783,-1.8829959\H,0,1.59851046,-0.3556837,-1.91193594
 \H,0,1.09724302,-1.84236581,-1.10942068\C,0,0.56076243,-0.75340015,1.2

 Normal termination of Gaussian 16 at Wed Apr  9 02:54:57 2025.
