 Gaussian 16, Revision C.01,

 ----------------------------------------------------------------------
 #t hf aug-cc-pvdz symm=none int=(grid=ultrafine) guess=(read,tcheck) s
 table=(opt,rrhf)
 ----------------------------------------------------------------------
 -----
 title
 -----
 Symbolic Z-matrix:
 Charge = -1 Multiplicity = 1

 SCF Done:  E(RHF) =  -862.453708890     A.U. after   16 cycles
 Normal termination of Gaussian 16 at Wed Apr  9 02:53:20 2025.
 Gaussian 16:  ES64L-G16RevC.01  3-Jul-2019

 ----------------------------------------------------------------------
 #t hf aug-cc-pvdz iop(5/13=1,5/36=2,99/5=2) pseudo=read geom=check gue
 ss=(read,tcheck) scf=(maxcycle=1)
 ----------------------------------------------------------------------
 -----
 title
 -----
 Structure from the checkpoint file:  "E2SN2_316_mol1.chk"
 Charge = -1 Multiplicity = 1

                         Standard orientation:
 ---------------------------------------------------------------------
 Center     Atomic      Atomic             Coordinates (Angstroms)
 Number     Number       Type             X           Y           Z
 ---------------------------------------------------------------------
      1          6           0        0.093909    0.086666   -0.365176
      2          1           0       -0.346919   -1.770469    0.531379
      3          9           0       -1.376733    1.409380   -0.669947
      4         17           0        1.990852   -1.047024    0.084324
      5          6           0       -0.861806   -0.814839    0.420139
      6          6           0        0.669577    1.271738    0.254483
      7          7           0        1.182975    2.212314    0.741635
      8          7           0        0.181152   -0.095697   -1.780712
      9          1           0        1.124738    0.108966   -2.082028
     10          1           0       -0.464041    0.605407   -2.134793
     11          6           0       -2.157926   -1.102587   -0.334269
     12          1           0       -2.776630   -0.210990   -0.379007
     13          1           0       -1.936704   -1.427975   -1.352204
     14          1           0       -2.690186   -1.912635    0.178730
     15          6           0       -1.129428   -0.240532    1.803974
     16          1           0       -0.201555   -0.119098    2.368618
     17          1           0       -1.609965    0.732815    1.696178
     18          1           0       -1.787474   -0.910025    2.367775
 ---------------------------------------------------------------------

 SCF Done:  E(RHF) =  -862.939249242     A.U. after    2 cycles

 The electronic state is 1-A.
 Alpha  occ. eigenvalues -- -105.34683 -26.15528 -15.37402 -15.36829 -11.27499
 Alpha  occ. eigenvalues --  -11.15441 -11.11971 -11.09667 -11.09153 -10.39506
 Alpha  occ. eigenvalues --   -7.56336  -7.56158  -7.56147  -1.23698  -1.09733
 Alpha  occ. eigenvalues --   -1.06559  -0.96096  -0.84916  -0.80771  -0.78545
 Alpha  occ. eigenvalues --   -0.69518  -0.60285  -0.57889  -0.53168  -0.49835
 Alpha  occ. eigenvalues --   -0.46737  -0.43540  -0.42542  -0.41268  -0.40017
 Alpha  occ. eigenvalues --   -0.36938  -0.36680  -0.35735  -0.34087  -0.32007
 Alpha  occ. eigenvalues --   -0.30988  -0.29634  -0.26876  -0.26089  -0.26019
 Alpha virt. eigenvalues --    0.12089   0.12957   0.13914   0.14329   0.15937
 Alpha virt. eigenvalues --    0.16445   0.16972   0.17331   0.17873   0.20183
 Alpha virt. eigenvalues --    0.20910   0.22968   0.24342   0.24592   0.24960

 Mulliken charges:
               1
     1  C   -0.225296
     2  H    0.165772
     3  F   -0.884055
     4  Cl  -0.538104
     5  C   -0.815010
     6  C   -2.118758
     7  N    1.068245
     8  N    0.540349
     9  H    0.223777
    10  H    0.335483
    11  C   -0.068904
    12  H    0.333174
    13  H    0.216309
    14  H    0.120540
    15  C   -0.064971
    16  H    0.254996
    17  H    0.397062
    18  H    0.059392
 Sum of Mulliken charges =  -1.00000

 Dipole moment (field-independent basis, Debye):
    X=             -3.0500    Y=             -3.5139    Z=             -0.6920  Tot=              4.7041

 Test job not archived.
 1\1\GINC-SE090\SP\RHF\Aug-CC-pVDZ\C5H9Cl1F1N2(1-)\OHZDE\09-Apr-2025\0\
 \#t hf aug-cc-pvdz iop(5/13=1,5/36=2,99/5=2) pseudo=read geom=check gu
 ess=(read,tcheck) scf=(maxcycle=1)\\title\\-1,1\C,0,0.77984515,-0.0177
 1309,0.04710492\H,0,1.67744577,1.88709255,0.16163807\F,0,-1.20355808,-
 0.18815428,0.25279472\Cl,0,2.96549623,-0.13715356,-0.49544269\C,0,0.66
 127973,1.50830191,0.04065548\C,0,0.45445142,-0.78975985,-1.14362139\N,
 0,0.23886345,-1.43705153,-2.10284728\N,0,0.93583558,-0.67563518,1.3070
 3226\H,0,1.51027713,-1.49845768,1.18048628\H,0,-0.0177486,-0.94107423,

 Normal termination of Gaussian 16 at Wed Apr  9 02:53:30 2025.
