 Gaussian 16, Revision C.01,

 ----------------------------------------------------------------------
 #t hf aug-cc-pvdz symm=none int=(grid=ultrafine) guess=(read,tcheck) s
 table=(opt,rrhf)
 ----------------------------------------------------------------------
 -----
 title
 -----
 Symbolic Z-matrix:
 Charge = -1 Multiplicity = 1

 SCF Done:  E(RHF) =  -777.177356351     A.U. after   16 cycles
 Normal termination of Gaussian 16 at Wed Apr  9 03:02:06 2025.
 Gaussian 16:  ES64L-G16RevC.01  3-Jul-2019

 ----------------------------------------------------------------------
 #t hf aug-cc-pvdz iop(5/13=1,5/36=2,99/5=2) pseudo=read geom=check gue
 ss=(read,tcheck) scf=(maxcycle=1)
 ----------------------------------------------------------------------
 -----
 title
 -----
 Structure from the checkpoint file:  "E2SN2_79_mol2.chk"
 Charge = -1 Multiplicity = 1

                         Standard orientation:
 ---------------------------------------------------------------------
 Center     Atomic      Atomic             Coordinates (Angstroms)
 Number     Number       Type             X           Y           Z
 ---------------------------------------------------------------------
      1          6           0       -0.336571   -0.192976    0.203335
      2          6           0        0.687677   -0.836712   -0.701832
      3         17           0       -0.443297    1.686684   -0.244321
      4          1           0        0.608124   -1.924615   -0.624284
      5          1           0        0.478463   -0.584954   -1.742788
      6          6           0       -1.695716   -0.652792   -0.099406
      7          7           0       -2.804389   -0.976167   -0.312992
      8          7           0       -0.051563   -0.379216    1.560162
      9          1           0       -0.697144    0.099451    2.171485
     10          1           0        0.909204   -0.155652    1.783839
     11          6           0        2.021826   -0.403733   -0.336788
     12          7           0        3.098618   -0.090314    0.017888
     13          1           0        0.475451   -3.470693   -0.682064
 ---------------------------------------------------------------------

 SCF Done:  E(RHF) =  -777.570489322     A.U. after    2 cycles

 The electronic state is 1-A.
 Alpha  occ. eigenvalues -- -105.45665 -15.43477 -15.43127 -15.41105 -11.30257
 Alpha  occ. eigenvalues --  -11.19922 -11.18514 -11.15864 -10.50496  -7.67392
 Alpha  occ. eigenvalues --   -7.67067  -7.67066  -1.17831  -1.12423  -1.11340
 Alpha  occ. eigenvalues --   -0.99231  -0.92425  -0.83702  -0.68382  -0.64074
 Alpha  occ. eigenvalues --   -0.58583  -0.57266  -0.51877  -0.51088  -0.49612
 Alpha  occ. eigenvalues --   -0.48315  -0.41748  -0.41038  -0.39236  -0.38015
 Alpha  occ. eigenvalues --   -0.36198  -0.35578  -0.35002  -0.09204
 Alpha virt. eigenvalues --    0.11744   0.13987   0.14979   0.16305   0.17402
 Alpha virt. eigenvalues --    0.17899   0.20158   0.21081   0.21425   0.21896
 Alpha virt. eigenvalues --    0.23184   0.23613   0.24064   0.24685   0.25250

 Mulliken charges:
               1
     1  C   -1.693440
     2  C    0.990138
     3  Cl  -0.023397
     4  H   -0.107865
     5  H    0.281996
     6  C   -1.223547
     7  N    0.925531
     8  N    0.832031
     9  H    0.132036
    10  H    0.228698
    11  C   -1.670864
    12  N    0.943151
    13  H   -0.614469
 Sum of Mulliken charges =  -1.00000

 Dipole moment (field-independent basis, Debye):
    X=             -1.9387    Y=             12.0949    Z=              3.1851  Tot=             12.6567

 Test job not archived.
 1\1\GINC-SE108\SP\RHF\Aug-CC-pVDZ\C4H5Cl1N3(1-)\OHZDE\09-Apr-2025\0\\#
 t hf aug-cc-pvdz iop(5/13=1,5/36=2,99/5=2) pseudo=read geom=check gues
 s=(read,tcheck) scf=(maxcycle=1)\\title\\-1,1\C,0,-0.493081,0.017589,-
 1.426923\C,0,0.015171,-0.019773,-0.004569\Cl,0,-2.387267,0.411268,-1.3
 82407\H,0,1.10872,-0.018514,-0.009564\H,0,-0.292496,0.882229,0.526916\
 C,0,0.037075,1.169062,-2.164082\N,0,0.420361,2.083816,-2.7931\N,0,-0.2
 3414,-1.166987,-2.124507\H,0,-0.624267,-1.173451,-3.055835\H,0,-0.5072
 42,-1.987687,-1.600148\C,0,-0.482281,-1.19955,0.674659\N,0,-0.843784,-

 Normal termination of Gaussian 16 at Wed Apr  9 03:02:11 2025.
