 Gaussian 16, Revision C.01,

 ----------------------------------------------------------------------
 #t hf aug-cc-pvdz symm=none int=(grid=ultrafine) guess=(read,tcheck) s
 table=(opt,rrhf)
 ----------------------------------------------------------------------
 -----
 title
 -----
 Symbolic Z-matrix:
 Charge = -1 Multiplicity = 1

 SCF Done:  E(RHF) =  -763.529695416     A.U. after   16 cycles
 Normal termination of Gaussian 16 at Wed Apr  9 02:55:36 2025.
 Gaussian 16:  ES64L-G16RevC.01  3-Jul-2019

 ----------------------------------------------------------------------
 #t hf aug-cc-pvdz iop(5/13=1,5/36=2,99/5=2) pseudo=read geom=check gue
 ss=(read,tcheck) scf=(maxcycle=1)
 ----------------------------------------------------------------------
 -----
 title
 -----
 Structure from the checkpoint file:  "E2SN2_346_mol2.chk"
 Charge = -1 Multiplicity = 1

                         Standard orientation:
 ---------------------------------------------------------------------
 Center     Atomic      Atomic             Coordinates (Angstroms)
 Number     Number       Type             X           Y           Z
 ---------------------------------------------------------------------
      1          6           0       -0.598905    0.249200    0.141396
      2          6           0        0.758808    0.317297   -0.607879
      3         17           0       -1.370791   -1.338115   -0.361533
      4          1           0        0.550172    0.039801   -1.648870
      5          6           0       -0.443508    0.257754    1.646690
      6          1           0       -1.425651    0.171082    2.119954
      7          1           0       -0.000696    1.225612    1.925896
      8          1           0        0.185103   -0.566871    1.988826
      9          6           0       -1.494542    1.384621   -0.312984
     10          1           0       -1.557605    1.429905   -1.405030
     11          1           0       -2.501850    1.245985    0.087536
     12          1           0       -1.074284    2.315324    0.086593
     13          6           0        1.675997   -0.722099   -0.095798
     14          7           0        2.412658   -1.547609    0.297944
     15          7           0        1.423496    1.606920   -0.590894
     16          1           0        1.240863    2.149847    0.289995
     17          1           0        1.014987    2.177718   -1.322305
     18          1           0        0.632236    3.223751    1.445571
 ---------------------------------------------------------------------

 SCF Done:  E(RHF) =  -763.927883501     A.U. after    2 cycles

 The electronic state is 1-A.
 Alpha  occ. eigenvalues -- -105.44024 -15.39657 -15.35622 -11.20373 -11.19698
 Alpha  occ. eigenvalues --  -11.16780 -11.11952 -11.10569 -10.48911  -7.65832
 Alpha  occ. eigenvalues --   -7.65512  -7.65503  -1.11176  -1.07825  -1.00958
 Alpha  occ. eigenvalues --   -0.88521  -0.85550  -0.83285  -0.67069  -0.60759
 Alpha  occ. eigenvalues --   -0.55758  -0.55061  -0.50466  -0.49403  -0.48978
 Alpha  occ. eigenvalues --   -0.44808  -0.43574  -0.41507  -0.40194  -0.38923
 Alpha  occ. eigenvalues --   -0.37403  -0.36432  -0.35208  -0.33127  -0.30718
 Alpha  occ. eigenvalues --   -0.10238
 Alpha virt. eigenvalues --    0.11965   0.12585   0.13478   0.14789   0.15619
 Alpha virt. eigenvalues --    0.16349   0.17355   0.18371   0.19110   0.19812
 Alpha virt. eigenvalues --    0.21156   0.21850   0.22717   0.23678   0.23944

 Mulliken charges:
               1
     1  C   -1.283577
     2  C   -0.459048
     3  Cl  -0.198331
     4  H    0.130340
     5  C    0.138713
     6  H    0.168970
     7  H    0.207209
     8  H    0.277306
     9  C   -0.033649
    10  H    0.196523
    11  H    0.157429
    12  H    0.194263
    13  C   -1.793993
    14  N    1.005479
    15  N    0.712642
    16  H    0.067240
    17  H    0.261703
    18  H   -0.749217
 Sum of Mulliken charges =  -1.00000

 Dipole moment (field-independent basis, Debye):
    X=             -6.1331    Y=             -6.5328    Z=             -5.6365  Tot=             10.5860

 Test job not archived.
 1\1\GINC-SE092\SP\RHF\Aug-CC-pVDZ\C5H10Cl1N2(1-)\OHZDE\09-Apr-2025\0\\
 #t hf aug-cc-pvdz iop(5/13=1,5/36=2,99/5=2) pseudo=read geom=check gue
 ss=(read,tcheck) scf=(maxcycle=1)\\title\\-1,1\C,0,-0.016327,-0.000294
 ,-0.018753\C,0,-0.357636,0.321991,-1.498305\Cl,0,1.81547,0.026754,0.09
 1259\H,0,0.302567,-0.305578,-2.110256\C,0,-0.575797,1.017567,0.951342\
 H,0,-0.274209,0.760951,1.970797\H,0,-1.672944,0.967349,0.884\H,0,-0.22
 123,2.024793,0.723322\C,0,-0.49829,-1.394992,0.328144\H,0,-0.156071,-2
 .129502,-0.408044\H,0,-0.118389,-1.685373,1.310824\H,0,-1.593984,-1.36

 Normal termination of Gaussian 16 at Wed Apr  9 02:55:45 2025.
