 Gaussian 16, Revision C.01,

 ----------------------------------------------------------------------
 #t hf aug-cc-pvdz symm=none int=(grid=ultrafine) guess=(read,tcheck) s
 table=(opt,rrhf)
 ----------------------------------------------------------------------
 -----
 title
 -----
 Symbolic Z-matrix:
 Charge = -1 Multiplicity = 1

 SCF Done:  E(RHF) =  -515.183495344     A.U. after   17 cycles
 Normal termination of Gaussian 16 at Wed Apr  9 02:54:52 2025.
 Gaussian 16:  ES64L-G16RevC.01  3-Jul-2019

 ----------------------------------------------------------------------
 #t hf aug-cc-pvdz iop(5/13=1,5/36=2,99/5=2) pseudo=read geom=check gue
 ss=(read,tcheck) scf=(maxcycle=1)
 ----------------------------------------------------------------------
 -----
 title
 -----
 Structure from the checkpoint file:  "E2SN2_331_mol1.chk"
 Charge = -1 Multiplicity = 1

                         Standard orientation:
 ---------------------------------------------------------------------
 Center     Atomic      Atomic             Coordinates (Angstroms)
 Number     Number       Type             X           Y           Z
 ---------------------------------------------------------------------
      1          6           0        0.139606   -0.414864   -0.177200
      2          1           0       -1.391112   -0.021647   -1.589636
      3          9           0       -0.030794   -0.516244    1.410039
      4          1           0        0.670247    0.062137   -1.930399
      5          6           0       -1.256890    0.137457   -0.521130
      6          6           0        0.353488   -1.859898   -0.567210
      7          1           0        1.404813   -2.027127   -0.781124
      8          1           0        0.038098   -2.488939    0.268292
      9          1           0       -0.244357   -2.104724   -1.442666
     10          7           0        1.353729    0.419468   -0.116953
     11          8           0        1.230987    1.633496    0.114713
     12          8           0        2.445601   -0.166132   -0.021333
     13          6           0       -1.492717    1.613727   -0.220403
     14          1           0       -1.272864    1.829050    0.825866
     15          1           0       -0.867023    2.253891   -0.838880
     16          1           0       -2.548960    1.838442   -0.420324
     17          7           0       -2.233382   -0.742113    0.156624
     18          1           0       -3.159368   -0.377943   -0.043160
     19          1           0       -2.068379   -0.655880    1.152607
 ---------------------------------------------------------------------

 SCF Done:  E(RHF) =  -515.701065156     A.U. after    2 cycles

 The electronic state is 1-A.
 Alpha  occ. eigenvalues --  -26.24224 -20.39331 -20.39200 -15.61312 -15.35420
 Alpha  occ. eigenvalues --  -11.23460 -11.13553 -11.08787 -11.08504  -1.46700
 Alpha  occ. eigenvalues --   -1.33834  -1.30030  -1.05929  -0.96242  -0.85912
 Alpha  occ. eigenvalues --   -0.82917  -0.73224  -0.65153  -0.59977  -0.56765
 Alpha  occ. eigenvalues --   -0.56156  -0.53010  -0.49317  -0.47621  -0.46432
 Alpha  occ. eigenvalues --   -0.44510  -0.42042  -0.41480  -0.40017  -0.37695
 Alpha  occ. eigenvalues --   -0.36356  -0.35128  -0.31241  -0.30305  -0.28893
 Alpha  occ. eigenvalues --   -0.26951  -0.12006
 Alpha virt. eigenvalues --    0.12070   0.13234   0.14219   0.14344   0.15354
 Alpha virt. eigenvalues --    0.15998   0.16853   0.17024   0.17757   0.19912
 Alpha virt. eigenvalues --    0.22088   0.23011   0.23902   0.24548   0.25775

 Mulliken charges:
               1
     1  C   -0.184821
     2  H    0.030525
     3  F   -1.022873
     4  H   -0.261264
     5  C   -1.755638
     6  C   -0.300855
     7  H    0.210844
     8  H    0.325295
     9  H    0.247159
    10  N    3.347983
    11  O   -1.622361
    12  O   -1.668148
    13  C    0.118356
    14  H    0.234682
    15  H    0.329420
    16  H    0.055025
    17  N    0.494118
    18  H    0.163986
    19  H    0.258566
 Sum of Mulliken charges =  -1.00000

 Dipole moment (field-independent basis, Debye):
    X=             -5.3852    Y=             -0.6638    Z=              1.6317  Tot=              5.6660

 Test job not archived.
 1\1\GINC-SE188\SP\RHF\Aug-CC-pVDZ\C4H10F1N2O2(1-)\OHZDE\09-Apr-2025\0\
 \#t hf aug-cc-pvdz iop(5/13=1,5/36=2,99/5=2) pseudo=read geom=check gu
 ess=(read,tcheck) scf=(maxcycle=1)\\title\\-1,1\C,0,0.39079892,-0.0628
 7761,-0.04851799\H,0,1.66258454,1.62556132,-0.20480597\F,0,-1.19900221
 ,-0.07857455,-0.22438034\H,0,2.15751322,-0.23619402,0.6083678\C,0,0.60
 176106,1.46301859,-0.02240966\C,0,0.85812658,-0.73664269,-1.31880211\H
 ,0,1.15956744,-1.75655011,-1.09986723\H,0,0.02868873,-0.73717246,-2.02
 961754\H,0,1.69456732,-0.18908741,-1.74814011\N,0,0.38851315,-0.905999

 Normal termination of Gaussian 16 at Wed Apr  9 02:55:01 2025.
