 Gaussian 16, Revision C.01,

 ----------------------------------------------------------------------
 #t hf aug-cc-pvdz symm=none int=(grid=ultrafine) guess=(read,tcheck) s
 table=(opt,rrhf)
 ----------------------------------------------------------------------
 -----
 title
 -----
 Symbolic Z-matrix:
 Charge = -1 Multiplicity = 1

 SCF Done:  E(RHF) =  -860.129067339     A.U. after   16 cycles
 Normal termination of Gaussian 16 at Wed Apr  9 02:53:17 2025.
 Gaussian 16:  ES64L-G16RevC.01  3-Jul-2019

 ----------------------------------------------------------------------
 #t hf aug-cc-pvdz iop(5/13=1,5/36=2,99/5=2) pseudo=read geom=check gue
 ss=(read,tcheck) scf=(maxcycle=1)
 ----------------------------------------------------------------------
 -----
 title
 -----
 Structure from the checkpoint file:  "E2SN2_324_mol1.chk"
 Charge = -1 Multiplicity = 1

                         Standard orientation:
 ---------------------------------------------------------------------
 Center     Atomic      Atomic             Coordinates (Angstroms)
 Number     Number       Type             X           Y           Z
 ---------------------------------------------------------------------
      1          6           0       -0.847372    0.363616   -0.322262
      2          1           0        0.265451    1.499951    1.000548
      3         17           0       -0.298916   -1.592372   -1.181437
      4          9           0       -1.227261    2.243146    0.044853
      5          6           0        0.447026    0.564171    0.458552
      6          1           0       -0.896937    0.757354   -1.317082
      7          6           0       -2.070008   -0.087983    0.427766
      8          1           0       -1.877372   -1.006783    0.982304
      9          1           0       -2.373849    0.715667    1.094801
     10          1           0       -2.871121   -0.287983   -0.284243
     11          6           0        1.605782    0.783585   -0.407377
     12          7           0        2.551869    1.027061   -1.058127
     13          6           0        0.730685   -0.492624    1.434271
     14          7           0        0.974424   -1.252889    2.295089
 ---------------------------------------------------------------------

 SCF Done:  E(RHF) =  -860.594416741     A.U. after    2 cycles

 The electronic state is 1-A.
 Alpha  occ. eigenvalues -- -105.35261 -26.16031 -15.41516 -15.41233 -11.23810
 Alpha  occ. eigenvalues --  -11.21531 -11.19086 -11.18786 -11.12027 -10.40105
 Alpha  occ. eigenvalues --   -7.56939  -7.56769  -7.56758  -1.23780  -1.12558
 Alpha  occ. eigenvalues --   -1.11195  -1.01565  -0.90434  -0.81762  -0.73139
 Alpha  occ. eigenvalues --   -0.67094  -0.59694  -0.55044  -0.50705  -0.50315
 Alpha  occ. eigenvalues --   -0.47755  -0.46928  -0.42909  -0.40113  -0.40012
 Alpha  occ. eigenvalues --   -0.38471  -0.37390  -0.34744  -0.31943  -0.31754
 Alpha  occ. eigenvalues --   -0.27698  -0.27265  -0.25894
 Alpha virt. eigenvalues --    0.13192   0.13815   0.14675   0.15370   0.16734
 Alpha virt. eigenvalues --    0.18429   0.18739   0.20649   0.22146   0.23254
 Alpha virt. eigenvalues --    0.23353   0.23930   0.24780   0.25362   0.25555

 Mulliken charges:
               1
     1  C    0.461172
     2  H    0.465887
     3  Cl  -0.628922
     4  F   -0.903434
     5  C    0.221098
     6  H   -0.152061
     7  C   -0.382337
     8  H    0.294373
     9  H    0.300487
    10  H    0.170802
    11  C   -1.438439
    12  N    0.985283
    13  C   -1.337308
    14  N    0.943397
 Sum of Mulliken charges =  -1.00000

 Dipole moment (field-independent basis, Debye):
    X=             -2.3077    Y=              0.1849    Z=              1.5837  Tot=              2.8049

 Test job not archived.
 1\1\GINC-SE365\SP\RHF\Aug-CC-pVDZ\C5H5Cl1F1N2(1-)\OHZDE\09-Apr-2025\0\
 \#t hf aug-cc-pvdz iop(5/13=1,5/36=2,99/5=2) pseudo=read geom=check gu
 ess=(read,tcheck) scf=(maxcycle=1)\\title\\-1,1\C,0,0.60836558,-0.0686
 1669,-0.04578505\H,0,1.60452949,1.73024688,-0.27206893\Cl,0,-1.5662015
 7,-0.3648292,0.17419448\F,0,2.53836454,0.11393952,0.18551484\C,0,0.558
 72009,1.45482039,-0.09086328\H,0,0.74219586,-0.53617814,0.90848416\C,0
 ,0.77763606,-0.81525487,-1.34008057\H,0,0.01043343,-0.53468753,-2.0622
 2879\H,0,1.77311154,-0.60467414,-1.72452006\H,0,0.68342277,-1.88461334

 Normal termination of Gaussian 16 at Wed Apr  9 02:53:22 2025.
