 Gaussian 16, Revision C.01,

 ----------------------------------------------------------------------
 #t hf aug-cc-pvdz symm=none int=(grid=ultrafine) guess=(read,tcheck) s
 table=(opt,rrhf)
 ----------------------------------------------------------------------
 -----
 title
 -----
 Symbolic Z-matrix:
 Charge = -1 Multiplicity = 1

 SCF Done:  E(RHF) =  -380.390440113     A.U. after   17 cycles
 Normal termination of Gaussian 16 at Wed Apr  9 02:37:43 2025.
 Gaussian 16:  ES64L-G16RevC.01  3-Jul-2019

 ----------------------------------------------------------------------
 #t hf aug-cc-pvdz iop(5/13=1,5/36=2,99/5=2) pseudo=read geom=check gue
 ss=(read,tcheck) scf=(maxcycle=1)
 ----------------------------------------------------------------------
 -----
 title
 -----
 Structure from the checkpoint file:  "E2SN2_153_mol1.chk"
 Charge = -1 Multiplicity = 1

                         Standard orientation:
 ---------------------------------------------------------------------
 Center     Atomic      Atomic             Coordinates (Angstroms)
 Number     Number       Type             X           Y           Z
 ---------------------------------------------------------------------
      1          6           0       -0.304301   -0.378988   -0.058332
      2          6           0        1.063623   -0.589840    0.421175
      3          9           0       -0.505782   -0.666173   -1.474466
      4          1           0        0.535889   -0.106894    2.815875
      5          1           0        0.843412   -0.304072    1.831292
      6          7           0       -1.303972   -1.161187    0.642342
      7          1           0       -1.185566   -0.907424    1.628449
      8          1           0       -0.985486   -2.124524    0.572644
      9          6           0       -0.658201    1.059411    0.045979
     10          7           0       -0.898167    2.205711    0.133858
     11          7           0        2.109788    0.237927   -0.156992
     12          1           0        2.160115    1.113172    0.354466
     13          1           0        1.914873    0.465484   -1.127232
     14          1           0        1.308537   -1.660846    0.407310
 ---------------------------------------------------------------------

 SCF Done:  E(RHF) =  -380.774421420     A.U. after    2 cycles

 The electronic state is 1-A.
 Alpha  occ. eigenvalues --  -26.30092 -15.38670 -15.37126 -15.34141 -11.23991
 Alpha  occ. eigenvalues --  -11.15393 -11.06486  -1.41341  -1.09796  -1.07245
 Alpha  occ. eigenvalues --   -1.02308  -0.84817  -0.72446  -0.61807  -0.56724
 Alpha  occ. eigenvalues --   -0.54537  -0.53212  -0.51067  -0.48154  -0.45640
 Alpha  occ. eigenvalues --   -0.43781  -0.41161  -0.36985  -0.36418  -0.35444
 Alpha  occ. eigenvalues --   -0.35072  -0.28313  -0.10390
 Alpha virt. eigenvalues --    0.13662   0.14330   0.15561   0.16800   0.17772
 Alpha virt. eigenvalues --    0.19094   0.19478   0.20167   0.21443   0.23842
 Alpha virt. eigenvalues --    0.24268   0.24951   0.25633   0.27020   0.28156

 Mulliken charges:
               1
     1  C    0.355095
     2  C   -1.017144
     3  F   -0.983224
     4  H   -0.662429
     5  H    0.460063
     6  N    0.495149
     7  H    0.211494
     8  H    0.235268
     9  C   -1.640053
    10  N    0.886003
    11  N    0.316564
    12  H    0.275484
    13  H    0.135794
    14  H   -0.068063
 Sum of Mulliken charges =  -1.00000

 Dipole moment (field-independent basis, Debye):
    X=             -0.5745    Y=             -2.6028    Z=             -4.9429  Tot=              5.6157

 Test job not archived.
 1\1\GINC-SE128\SP\RHF\Aug-CC-pVDZ\C3H7F1N3(1-)\OHZDE\09-Apr-2025\0\\#t
  hf aug-cc-pvdz iop(5/13=1,5/36=2,99/5=2) pseudo=read geom=check guess
 =(read,tcheck) scf=(maxcycle=1)\\title\\-1,1\C,0,-0.10291741,0.0540257
 2,-0.3118645\C,0,-0.07182731,0.0028461,1.15169796\F,0,1.2039341,0.1913
 3525,-0.94573274\H,0,-2.52158171,-0.41897423,1.4107375\H,0,-1.48976215
 ,-0.22474943,1.38886598\N,0,-0.71492155,-1.10512627,-0.93149314\H,0,-1
 .65075722,-1.15574477,-0.51619543\H,0,-0.21090232,-1.90493118,-0.55654
 296\C,0,-0.82196972,1.27438441,-0.75774025\N,0,-1.3875536,2.254492,-1.

 Normal termination of Gaussian 16 at Wed Apr  9 02:37:48 2025.
