 Gaussian 16, Revision C.01,

 ----------------------------------------------------------------------
 #t hf aug-cc-pvdz symm=none int=(grid=ultrafine) guess=(read,tcheck) s
 table=(opt,rrhf)
 ----------------------------------------------------------------------
 -----
 title
 -----
 Symbolic Z-matrix:
 Charge = -1 Multiplicity = 1

 SCF Done:  E(RHF) =  -932.854033203     A.U. after   16 cycles
 Normal termination of Gaussian 16 at Wed Apr  9 02:41:44 2025.
 Gaussian 16:  ES64L-G16RevC.01  3-Jul-2019

 ----------------------------------------------------------------------
 #t hf aug-cc-pvdz iop(5/13=1,5/36=2,99/5=2) pseudo=read geom=check gue
 ss=(read,tcheck) scf=(maxcycle=1)
 ----------------------------------------------------------------------
 -----
 title
 -----
 Structure from the checkpoint file:  "E2SN2_208_mol1.chk"
 Charge = -1 Multiplicity = 1

                         Standard orientation:
 ---------------------------------------------------------------------
 Center     Atomic      Atomic             Coordinates (Angstroms)
 Number     Number       Type             X           Y           Z
 ---------------------------------------------------------------------
      1          6           0        0.413945    0.011289   -0.649665
      2          1           0       -0.296517   -1.965457   -0.663358
      3         17           0       -0.686980    1.804271   -0.382746
      4          9           0        1.620467   -1.423263   -1.059493
      5          6           0       -0.723309   -0.973490   -0.790955
      6          1           0        0.950633    0.426079   -1.476891
      7          1           0       -1.089195   -0.885074   -1.817218
      8          7           0        1.132927    0.043471    0.635818
      9          8           0        0.665871   -0.629177    1.550704
     10          8           0        2.135267    0.742204    0.698610
     11          6           0       -1.862832   -0.826001    0.115229
     12          7           0       -2.825267   -0.845440    0.786672
 ---------------------------------------------------------------------

 SCF Done:  E(RHF) =  -933.382792965     A.U. after    2 cycles

 The electronic state is 1-A.
 Alpha  occ. eigenvalues -- -105.38563 -26.16801 -20.46219 -20.46126 -15.66777
 Alpha  occ. eigenvalues --  -15.39305 -11.28301 -11.17898 -11.17198 -10.43383
 Alpha  occ. eigenvalues --   -7.60241  -7.60005  -7.59998  -1.53822  -1.37710
 Alpha  occ. eigenvalues --   -1.24728  -1.10069  -1.02975  -0.91647  -0.85061
 Alpha  occ. eigenvalues --   -0.73508  -0.66827  -0.63070  -0.61175  -0.57480
 Alpha  occ. eigenvalues --   -0.53937  -0.51442  -0.48088  -0.39054  -0.38856
 Alpha  occ. eigenvalues --   -0.36929  -0.36337  -0.35846  -0.33298  -0.32954
 Alpha  occ. eigenvalues --   -0.31619  -0.30233  -0.29649  -0.27366
 Alpha virt. eigenvalues --    0.13309   0.14671   0.15703   0.17209   0.17873
 Alpha virt. eigenvalues --    0.20300   0.22106   0.22994   0.23889   0.24829
 Alpha virt. eigenvalues --    0.25163   0.26147   0.27056   0.27361   0.28021

 Mulliken charges:
               1
     1  C   -0.039999
     2  H    0.413605
     3  Cl  -0.474004
     4  F   -0.885898
     5  C    0.144822
     6  H   -0.052233
     7  H    0.320905
     8  N    3.142837
     9  O   -1.446288
    10  O   -1.552834
    11  C   -1.438248
    12  N    0.867335
 Sum of Mulliken charges =  -1.00000

 Dipole moment (field-independent basis, Debye):
    X=             -0.3672    Y=              0.0385    Z=             -2.5333  Tot=              2.5600

 Test job not archived.
 1\1\GINC-SE253\SP\RHF\Aug-CC-pVDZ\C3H3Cl1F1N2O2(1-)\OHZDE\09-Apr-2025\
 0\\#t hf aug-cc-pvdz iop(5/13=1,5/36=2,99/5=2) pseudo=read geom=check
 guess=(read,tcheck) scf=(maxcycle=1)\\title\\-1,1\C,0,0.48109956,-0.03
 648144,-0.0398757\H,0,1.82892319,1.54352442,-0.35518987\Cl,0,-1.634140
 79,-0.01299461,-0.19243277\F,0,2.34852156,-0.30372245,0.31071031\C,0,0
 .76603847,1.44341512,-0.14858707\H,0,0.44049007,-0.57008567,0.88641007
 \H,0,0.56399663,1.87490269,0.83523351\N,0,0.74209798,-0.87051886,-1.22
 591869\O,0,1.03511662,-0.28402089,-2.26407769\O,0,0.64038865,-2.082237

 Normal termination of Gaussian 16 at Wed Apr  9 02:41:51 2025.
