 Gaussian 16, Revision C.01,

 ----------------------------------------------------------------------
 #t hf aug-cc-pvdz symm=none int=(grid=ultrafine) guess=(read,tcheck) s
 table=(opt,rrhf)
 ----------------------------------------------------------------------
 -----
 title
 -----
 Symbolic Z-matrix:
 Charge = -1 Multiplicity = 1

 SCF Done:  E(RHF) =  -839.451257054     A.U. after   15 cycles
 Normal termination of Gaussian 16 at Wed Apr  9 02:58:03 2025.
 Gaussian 16:  ES64L-G16RevC.01  3-Jul-2019

 ----------------------------------------------------------------------
 #t hf aug-cc-pvdz iop(5/13=1,5/36=2,99/5=2) pseudo=read geom=check gue
 ss=(read,tcheck) scf=(maxcycle=1)
 ----------------------------------------------------------------------
 -----
 title
 -----
 Structure from the checkpoint file:  "E2SN2_394_mol2.chk"
 Charge = -1 Multiplicity = 1

                         Standard orientation:
 ---------------------------------------------------------------------
 Center     Atomic      Atomic             Coordinates (Angstroms)
 Number     Number       Type             X           Y           Z
 ---------------------------------------------------------------------
      1          6           0        0.350933    0.094041   -0.101074
      2          6           0       -0.566247   -0.232607    1.088756
      3         17           0        1.583196   -1.240842   -0.278020
      4          1           0       -1.081833    0.709567    1.311677
      5          1           0        0.048004   -0.534986    1.943375
      6          7           0       -0.339586    0.268166   -1.350588
      7          1           0       -1.278617    0.684665   -1.093230
      8          1           0       -0.586975   -0.671736   -1.647034
      9          6           0        1.133355    1.304530    0.215339
     10          7           0        1.732524    2.270067    0.512838
     11          7           0       -1.506144   -1.265791    0.685847
     12          1           0       -1.894610   -1.687185    1.520909
     13          1           0       -2.247577   -0.707675    0.225903
     14          9           0       -2.732059    0.822087   -0.410009
 ---------------------------------------------------------------------

 SCF Done:  E(RHF) =  -839.906878477     A.U. after    2 cycles

 The electronic state is 1-A.
 Alpha  occ. eigenvalues -- -105.43965 -26.11421 -15.40029 -15.34253 -15.33719
 Alpha  occ. eigenvalues --  -11.23970 -11.17027 -11.13810 -10.48844  -7.65775
 Alpha  occ. eigenvalues --   -7.65413  -7.65403  -1.18362  -1.11801  -1.08614
 Alpha  occ. eigenvalues --   -1.02797  -0.94456  -0.84349  -0.73641  -0.58860
 Alpha  occ. eigenvalues --   -0.57442  -0.53893  -0.52120  -0.49993  -0.47634
 Alpha  occ. eigenvalues --   -0.43855  -0.41662  -0.37945  -0.37363  -0.34688
 Alpha  occ. eigenvalues --   -0.33573  -0.32623  -0.30054  -0.27857  -0.27139
 Alpha  occ. eigenvalues --   -0.26526
 Alpha virt. eigenvalues --    0.12972   0.14591   0.15560   0.16316   0.17670
 Alpha virt. eigenvalues --    0.18386   0.19064   0.19679   0.23036   0.23693
 Alpha virt. eigenvalues --    0.24159   0.24466   0.25844   0.26509   0.27264

 Mulliken charges:
               1
     1  C   -1.675031
     2  C   -0.103512
     3  Cl   0.022019
     4  H    0.189448
     5  H    0.040027
     6  N    0.682799
     7  H    0.302141
     8  H    0.316533
     9  C   -1.257688
    10  N    0.825627
    11  N    0.294841
    12  H    0.155599
    13  H    0.208265
    14  F   -1.001068
 Sum of Mulliken charges =  -1.00000

 Dipole moment (field-independent basis, Debye):
    X=              3.4357    Y=             -4.8109    Z=              2.5181  Tot=              6.4257

 Test job not archived.
 1\1\GINC-SE228\SP\RHF\Aug-CC-pVDZ\C3H6Cl1F1N3(1-)\OHZDE\09-Apr-2025\0\
 \#t hf aug-cc-pvdz iop(5/13=1,5/36=2,99/5=2) pseudo=read geom=check gu
 ess=(read,tcheck) scf=(maxcycle=1)\\title\\-1,1\C,0,-0.026047,-0.06631
 1,0.027695\C,0,-0.652769,-0.411974,-1.332948\Cl,0,1.696203,0.476506,-0
 .238575\H,0,-1.557237,-0.982109,-1.087799\H,0,0.043201,-1.038917,-1.90
 0116\N,0,-0.732177,0.947065,0.764492\H,0,-1.751609,0.816433,0.509195\H
 ,0,-0.497088,1.820326,0.301192\C,0,0.075858,-1.297453,0.834844\N,0,0.1
 3599,-2.303464,1.438249\N,0,-0.97958,0.82361,-2.02558\H,0,-1.103074,0.

 Normal termination of Gaussian 16 at Wed Apr  9 02:58:09 2025.
