 Gaussian 16, Revision C.01,

 ----------------------------------------------------------------------
 #t hf aug-cc-pvdz symm=none int=(grid=ultrafine) guess=(read,tcheck) s
 table=(opt,rrhf)
 ----------------------------------------------------------------------
 -----
 title
 -----
 Symbolic Z-matrix:
 Charge = -1 Multiplicity = 1

 SCF Done:  E(RHF) =  -1236.25644626     A.U. after   15 cycles
 Normal termination of Gaussian 16 at Wed Apr  9 02:47:20 2025.
 Gaussian 16:  ES64L-G16RevC.01  3-Jul-2019

 ----------------------------------------------------------------------
 #t hf aug-cc-pvdz iop(5/13=1,5/36=2,99/5=2) pseudo=read geom=check gue
 ss=(read,tcheck) scf=(maxcycle=1)
 ----------------------------------------------------------------------
 -----
 title
 -----
 Structure from the checkpoint file:  "E2SN2_254_mol2.chk"
 Charge = -1 Multiplicity = 1

                         Standard orientation:
 ---------------------------------------------------------------------
 Center     Atomic      Atomic             Coordinates (Angstroms)
 Number     Number       Type             X           Y           Z
 ---------------------------------------------------------------------
      1          6           0        0.129535   -0.460684   -0.384948
      2          6           0        0.275609    0.600776    0.728560
      3         17           0        1.746126   -0.896691   -1.059130
      4          1           0       -0.761918    0.889669    0.939920
      5          1           0       -0.495136   -0.066515   -1.186237
      6          6           0       -0.466604   -1.669115    0.173291
      7          7           0       -0.847048   -2.659909    0.676212
      8          6           0        0.966212    1.780505    0.193844
      9          7           0        1.546729    2.716438   -0.211776
     10          7           0        0.939701    0.165615    1.944002
     11          1           0        0.348388   -0.508705    2.414962
     12          1           0        1.819945   -0.283853    1.717630
     13         17           0       -2.794094    0.714662   -0.412036
 ---------------------------------------------------------------------

 SCF Done:  E(RHF) =  -1236.72121050     A.U. after    2 cycles

 The electronic state is 1-A.
 Alpha  occ. eigenvalues -- -105.48271-105.29212 -15.42572 -15.41768 -15.41664
 Alpha  occ. eigenvalues --  -11.25090 -11.22118 -11.19777 -11.18715 -10.53107
 Alpha  occ. eigenvalues --  -10.33817  -7.70051  -7.69674  -7.69663  -7.50585
 Alpha  occ. eigenvalues --   -7.50556  -7.50542  -1.15049  -1.12569  -1.10759
 Alpha  occ. eigenvalues --   -1.03548  -0.91352  -0.83577  -0.74633  -0.65965
 Alpha  occ. eigenvalues --   -0.63285  -0.60051  -0.56604  -0.54537  -0.51305
 Alpha  occ. eigenvalues --   -0.50273  -0.47399  -0.41175  -0.40300  -0.39572
 Alpha  occ. eigenvalues --   -0.39416  -0.38163  -0.36993  -0.35559  -0.22016
 Alpha  occ. eigenvalues --   -0.21636  -0.21505
 Alpha virt. eigenvalues --    0.12220   0.14422   0.15040   0.16079   0.17042
 Alpha virt. eigenvalues --    0.17673   0.19001   0.21209   0.21497   0.22302
 Alpha virt. eigenvalues --    0.22776   0.23234   0.24046   0.24740   0.25672

 Mulliken charges:
               1
     1  C    0.283847
     2  C   -0.600432
     3  Cl   0.012412
     4  H    0.184888
     5  H    0.213414
     6  C   -1.516747
     7  N    0.960827
     8  C   -1.579524
     9  N    0.957041
    10  N    0.568813
    11  H    0.264301
    12  H    0.184687
    13  Cl  -0.933526
 Sum of Mulliken charges =  -1.00000

 Dipole moment (field-independent basis, Debye):
    X=              8.1678    Y=             -3.3704    Z=              1.3543  Tot=              8.9391

 Test job not archived.
 1\1\GINC-SE042\SP\RHF\Aug-CC-pVDZ\C4H4Cl2N3(1-)\OHZDE\09-Apr-2025\0\\#
 t hf aug-cc-pvdz iop(5/13=1,5/36=2,99/5=2) pseudo=read geom=check gues
 s=(read,tcheck) scf=(maxcycle=1)\\title\\-1,1\C,0,-0.108075,0.060475,0
 .001489\C,0,-0.549266,0.203915,-1.472523\Cl,0,1.6831,-0.134526,0.10945
 8\H,0,-1.644229,0.156366,-1.414298\H,0,-0.587891,-0.812466,0.443528\C,
 0,-0.47514,1.265772,0.736226\N,0,-0.687348,2.289824,1.270665\C,0,-0.09
 2883,-0.963257,-2.236747\N,0,0.294635,-1.87469,-2.866523\N,0,-0.128549
 ,1.416451,-2.151076\H,0,-0.614253,2.204948,-1.740556\H,0,0.86828,1.555

 Normal termination of Gaussian 16 at Wed Apr  9 02:47:26 2025.
