 Gaussian 16, Revision C.01,

 ----------------------------------------------------------------------
 #t hf aug-cc-pvdz symm=none int=(grid=ultrafine) guess=(read,tcheck) s
 table=(opt,rrhf)
 ----------------------------------------------------------------------
 -----
 title
 -----
 Symbolic Z-matrix:
 Charge = -1 Multiplicity = 1

 SCF Done:  E(RHF) =  -1275.27994892     A.U. after   15 cycles
 Normal termination of Gaussian 16 at Wed Apr  9 03:02:27 2025.
 Gaussian 16:  ES64L-G16RevC.01  3-Jul-2019

 ----------------------------------------------------------------------
 #t hf aug-cc-pvdz iop(5/13=1,5/36=2,99/5=2) pseudo=read geom=check gue
 ss=(read,tcheck) scf=(maxcycle=1)
 ----------------------------------------------------------------------
 -----
 title
 -----
 Structure from the checkpoint file:  "E2SN2_57_mol2.chk"
 Charge = -1 Multiplicity = 1

                         Standard orientation:
 ---------------------------------------------------------------------
 Center     Atomic      Atomic             Coordinates (Angstroms)
 Number     Number       Type             X           Y           Z
 ---------------------------------------------------------------------
      1          6           0        1.077475    0.129303    0.025605
      2          6           0       -0.424594   -0.255092   -0.020864
      3         17           0        1.816107   -0.265720    1.625671
      4          1           0       -0.929391    0.323869    0.765709
      5          6           0        1.816074   -0.607299   -1.004720
      6          7           0        2.377630   -1.227773   -1.829524
      7          6           0        1.248836    1.568126   -0.193681
      8          7           0        1.433600    2.722092   -0.311758
      9          6           0       -0.664884   -1.737036    0.220007
     10          1           0       -0.213887   -2.337341   -0.578322
     11          1           0       -0.275964   -2.079340    1.181212
     12          1           0       -1.747584   -1.872898    0.209980
     13          7           0       -0.900732    0.234522   -1.300688
     14          1           0       -0.888300   -0.523055   -1.976204
     15          1           0       -1.883068    0.481676   -1.148705
     16         17           0       -3.742738    0.225555    0.226213
 ---------------------------------------------------------------------

 SCF Done:  E(RHF) =  -1275.78769635     A.U. after    2 cycles

 The electronic state is 1-A.
 Alpha  occ. eigenvalues -- -105.50838-105.28689 -15.45807 -15.44547 -15.37318
 Alpha  occ. eigenvalues --  -11.30513 -11.22815 -11.21721 -11.18987 -11.12780
 Alpha  occ. eigenvalues --  -10.55637 -10.33278  -7.72588  -7.72180  -7.72176
 Alpha  occ. eigenvalues --   -7.50042  -7.50011  -7.50005  -1.17072  -1.14610
 Alpha  occ. eigenvalues --   -1.11172  -1.05633  -0.92385  -0.89466  -0.76188
 Alpha  occ. eigenvalues --   -0.74057  -0.72080  -0.60762  -0.59326  -0.54607
 Alpha  occ. eigenvalues --   -0.54380  -0.53316  -0.51177  -0.47361  -0.45257
 Alpha  occ. eigenvalues --   -0.43941  -0.43415  -0.41801  -0.41470  -0.40294
 Alpha  occ. eigenvalues --   -0.39392  -0.38961  -0.33675  -0.21446  -0.21049
 Alpha  occ. eigenvalues --   -0.20955
 Alpha virt. eigenvalues --    0.12339   0.13165   0.13954   0.15319   0.15838
 Alpha virt. eigenvalues --    0.16243   0.17229   0.17777   0.18660   0.18841
 Alpha virt. eigenvalues --    0.20342   0.20889   0.22184   0.22501   0.22741

 Mulliken charges:
               1
     1  C   -0.213891
     2  C   -1.724565
     3  Cl   0.070385
     4  H    0.128558
     5  C   -1.200266
     6  N    1.048768
     7  C   -1.237455
     8  N    1.039071
     9  C    0.084775
    10  H    0.226098
    11  H    0.193740
    12  H    0.188778
    13  N    0.864502
    14  H    0.216339
    15  H    0.293760
    16  Cl  -0.978599
 Sum of Mulliken charges =  -1.00000

 Dipole moment (field-independent basis, Debye):
    X=              9.5538    Y=             -3.9219    Z=              1.8371  Tot=             10.4896

 Test job not archived.
 1\1\GINC-SE105\SP\RHF\Aug-CC-pVDZ\C5H6Cl2N3(1-)\OHZDE\09-Apr-2025\0\\#
 t hf aug-cc-pvdz iop(5/13=1,5/36=2,99/5=2) pseudo=read geom=check gues
 s=(read,tcheck) scf=(maxcycle=1)\\title\\-1,1\C,0,-0.680795,0.051562,-
 1.578527\C,0,0.108093,-0.047654,-0.246633\Cl,0,-0.352318,-1.36228,-2.6
 5323\H,0,1.176296,-0.06701,-0.506017\C,0,-2.121271,0.085066,-1.307263\
 N,0,-3.268367,0.091837,-1.052783\C,0,-0.300277,1.260227,-2.314733\N,0,
 0.009453,2.187085,-2.966438\C,0,-0.232737,-1.295457,0.552579\H,0,-1.28
 2206,-1.278826,0.867908\H,0,-0.045297,-2.218106,-0.00053\H,0,0.411981,

 Normal termination of Gaussian 16 at Wed Apr  9 03:02:37 2025.
