 Gaussian 16, Revision C.01,

 ----------------------------------------------------------------------
 #t hf aug-cc-pvdz symm=none int=(grid=ultrafine) guess=(read,tcheck) s
 table=(opt,rrhf)
 ----------------------------------------------------------------------
 -----
 title
 -----
 Symbolic Z-matrix:
 Charge = -1 Multiplicity = 1

 SCF Done:  E(RHF) =  -1191.39782306     A.U. after   17 cycles
 Normal termination of Gaussian 16 at Wed Apr  9 02:54:15 2025.
 Gaussian 16:  ES64L-G16RevC.01  3-Jul-2019

 ----------------------------------------------------------------------
 #t hf aug-cc-pvdz iop(5/13=1,5/36=2,99/5=2) pseudo=read geom=check gue
 ss=(read,tcheck) scf=(maxcycle=1)
 ----------------------------------------------------------------------
 -----
 title
 -----
 Structure from the checkpoint file:  "E2SN2_306_mol2.chk"
 Charge = -1 Multiplicity = 1

                         Standard orientation:
 ---------------------------------------------------------------------
 Center     Atomic      Atomic             Coordinates (Angstroms)
 Number     Number       Type             X           Y           Z
 ---------------------------------------------------------------------
      1          6           0        0.856554   -0.529244   -0.071282
      2          6           0       -0.430166    0.185848    0.388278
      3         17           0        0.845174   -0.828546   -1.857699
      4          1           0       -0.280880    0.199106    1.542936
      5          6           0        1.984496    0.385304    0.178841
      6          7           0        2.920889    1.075487    0.340217
      7          7           0        1.111883   -1.751918    0.635580
      8          1           0        0.382058   -2.403057    0.369215
      9          1           0        0.943993   -1.477605    1.630135
     10          7           0       -1.688914   -0.559263    0.134797
     11          8           0       -2.720558    0.047876    0.408357
     12          8           0       -1.640142   -1.726872   -0.248722
     13          7           0       -0.582086    1.531176   -0.220837
     14          8           0       -1.184136    1.624553   -1.290460
     15          8           0       -0.050226    2.461720    0.384009
     16          9           0        0.283294   -0.423467    2.756645
 ---------------------------------------------------------------------

 SCF Done:  E(RHF) =  -1192.16699063     A.U. after    2 cycles

 The electronic state is 1-A.
 Alpha  occ. eigenvalues -- -105.47489 -26.16330 -20.50458 -20.50198 -20.50170
 Alpha  occ. eigenvalues --  -20.49892 -15.70430 -15.69900 -15.42471 -15.38871
 Alpha  occ. eigenvalues --  -11.30073 -11.25301 -11.19217 -10.52359  -7.69305
 Alpha  occ. eigenvalues --   -7.68906  -7.68903  -1.58052  -1.56607  -1.41620
 Alpha  occ. eigenvalues --   -1.40841  -1.23878  -1.16221  -1.11473  -1.07523
 Alpha  occ. eigenvalues --   -0.98376  -0.92122  -0.85812  -0.76645  -0.71823
 Alpha  occ. eigenvalues --   -0.69327  -0.68128  -0.65010  -0.63829  -0.62758
 Alpha  occ. eigenvalues --   -0.61763  -0.58059  -0.53621  -0.50936  -0.47538
 Alpha  occ. eigenvalues --   -0.43768  -0.41391  -0.41106  -0.40385  -0.39855
 Alpha  occ. eigenvalues --   -0.38698  -0.38459  -0.36833  -0.36154  -0.35182
 Alpha  occ. eigenvalues --   -0.34124  -0.32856  -0.31972  -0.30416
 Alpha virt. eigenvalues --    0.13709   0.14193   0.15082   0.15864   0.17307
 Alpha virt. eigenvalues --    0.17886   0.18077   0.21104   0.21656   0.21972
 Alpha virt. eigenvalues --    0.22278   0.23411   0.23808   0.24474   0.25205

 Mulliken charges:
               1
     1  C   -1.633762
     2  C   -0.129298
     3  Cl   0.065602
     4  H    0.589219
     5  C   -1.422429
     6  N    1.044634
     7  N    0.735414
     8  H    0.250511
     9  H    0.298571
    10  N    3.276358
    11  O   -1.554264
    12  O   -1.512557
    13  N    3.013647
    14  O   -1.547454
    15  O   -1.418605
    16  F   -1.055587
 Sum of Mulliken charges =  -1.00000

 Dipole moment (field-independent basis, Debye):
    X=             -2.4443    Y=             -1.7860    Z=             -5.2269  Tot=              6.0403

 Test job not archived.
 1\1\GINC-SE195\SP\RHF\Aug-CC-pVDZ\C3H3Cl1F1N4O4(1-)\OHZDE\09-Apr-2025\
 0\\#t hf aug-cc-pvdz iop(5/13=1,5/36=2,99/5=2) pseudo=read geom=check
 guess=(read,tcheck) scf=(maxcycle=1)\\title\\-1,1\C,0,0.039686,-0.0460
 31,-0.002857\C,0,-0.655468,0.134488,-1.367545\Cl,0,1.824067,-0.290007,
 -0.196389\H,0,-1.774054,0.177019,-1.047149\C,0,-0.117978,1.214225,0.74
 421\N,0,-0.197717,2.197279,1.381763\N,0,-0.523386,-1.103436,0.787474\H
 ,0,-0.31353,-1.971822,0.308472\H,0,-1.550419,-0.931738,0.696388\N,0,-0
 .526793,-1.016432,-2.29637\O,0,-0.993228,-0.838242,-3.418167\O,0,-0.04

 Normal termination of Gaussian 16 at Wed Apr  9 02:54:28 2025.
