 Gaussian 16, Revision C.01,

 ----------------------------------------------------------------------
 #t hf aug-cc-pvdz symm=none int=(grid=ultrafine) guess=(read,tcheck) s
 table=(opt,rrhf)
 ----------------------------------------------------------------------
 -----
 title
 -----
 Symbolic Z-matrix:
 Charge = -1 Multiplicity = 1

 SCF Done:  E(RHF) =  -907.303998711     A.U. after   16 cycles
 Normal termination of Gaussian 16 at Wed Apr  9 02:38:30 2025.
 Gaussian 16:  ES64L-G16RevC.01  3-Jul-2019

 ----------------------------------------------------------------------
 #t hf aug-cc-pvdz iop(5/13=1,5/36=2,99/5=2) pseudo=read geom=check gue
 ss=(read,tcheck) scf=(maxcycle=1)
 ----------------------------------------------------------------------
 -----
 title
 -----
 Structure from the checkpoint file:  "E2SN2_161_mol1.chk"
 Charge = -1 Multiplicity = 1

                         Standard orientation:
 ---------------------------------------------------------------------
 Center     Atomic      Atomic             Coordinates (Angstroms)
 Number     Number       Type             X           Y           Z
 ---------------------------------------------------------------------
      1          6           0       -0.833917   -0.077644   -0.527885
      2          6           0        0.484315    0.652041   -0.389680
      3         17           0       -1.315938   -0.566828    1.461143
      4          1           0        0.114372    2.055658   -2.432734
      5          1           0        0.595107    1.081905   -1.494444
      6          7           0       -1.901383    0.791034   -0.896965
      7          1           0       -1.506505    1.327171   -1.693929
      8          1           0       -2.046189    1.458186   -0.150183
      9          7           0       -0.863468   -1.190373   -1.310609
     10          1           0       -0.105462   -1.838543   -1.172357
     11          1           0       -1.791002   -1.571983   -1.404535
     12          7           0        1.636328   -0.222267   -0.039445
     13          8           0        2.498851    0.189851    0.731168
     14          8           0        1.713270   -1.327222   -0.603876
     15          7           0        0.473411    1.825358    0.391609
     16          1           0       -0.124411    1.752358    1.203161
     17          1           0        0.221476    2.597641   -0.219482
 ---------------------------------------------------------------------

 SCF Done:  E(RHF) =  -907.840655426     A.U. after    2 cycles

 The electronic state is 1-A.
 Alpha  occ. eigenvalues -- -105.38461 -20.46269 -20.45294 -15.65296 -15.39784
 Alpha  occ. eigenvalues --  -15.37947 -15.36810 -11.26724 -11.18673 -10.43299
 Alpha  occ. eigenvalues --   -7.60145  -7.59934  -7.59924  -1.52717  -1.36285
 Alpha  occ. eigenvalues --   -1.17116  -1.09493  -1.04762  -0.94599  -0.86468
 Alpha  occ. eigenvalues --   -0.78726  -0.72082  -0.65592  -0.65204  -0.62683
 Alpha  occ. eigenvalues --   -0.61433  -0.58839  -0.57152  -0.54347  -0.52438
 Alpha  occ. eigenvalues --   -0.45862  -0.40968  -0.37914  -0.37115  -0.34703
 Alpha  occ. eigenvalues --   -0.33300  -0.32161  -0.31171  -0.30310  -0.29215
 Alpha  occ. eigenvalues --   -0.13266
 Alpha virt. eigenvalues --    0.12849   0.14040   0.14858   0.15993   0.16626
 Alpha virt. eigenvalues --    0.17210   0.18183   0.18823   0.20219   0.20794
 Alpha virt. eigenvalues --    0.23095   0.24511   0.24881   0.25581   0.26047

 Mulliken charges:
               1
     1  C   -2.487060
     2  C   -2.514162
     3  Cl  -0.344961
     4  H   -0.499317
     5  H    0.262998
     6  N    0.787718
     7  H    0.292038
     8  H    0.268860
     9  N    0.962710
    10  H    0.174079
    11  H    0.250793
    12  N    3.249326
    13  O   -1.457557
    14  O   -1.663591
    15  N    1.082851
    16  H    0.268590
    17  H    0.366683
 Sum of Mulliken charges =  -1.00000

 Dipole moment (field-independent basis, Debye):
    X=             -2.3763    Y=             -3.3167    Z=              3.3488  Tot=              5.2784

 Test job not archived.
 1\1\GINC-SE073\SP\RHF\Aug-CC-pVDZ\C2H8Cl1N4O2(1-)\OHZDE\09-Apr-2025\0\
 \#t hf aug-cc-pvdz iop(5/13=1,5/36=2,99/5=2) pseudo=read geom=check gu
 ess=(read,tcheck) scf=(maxcycle=1)\\title\\-1,1\C,0,-0.37655658,0.1230
 6771,-0.28166127\C,0,-0.13674905,0.01211538,1.20812347\Cl,0,1.5528387,
 -0.1025165,-1.09062627\H,0,-2.41804252,-0.91358495,1.67700207\H,0,-1.2
 6183643,-0.06789323,1.58935745\N,0,-1.06384003,-1.0084221,-0.80861089\
 H,0,-1.85884923,-1.13050551,-0.15166298\H,0,-0.47511844,-1.82359643,-0
 .69617391\N,0,-0.95592114,1.26290642,-0.74727928\H,0,-0.58287167,2.121

 Normal termination of Gaussian 16 at Wed Apr  9 02:38:39 2025.
