 Gaussian 16, Revision C.01,

 ----------------------------------------------------------------------
 #t hf aug-cc-pvdz symm=none int=(grid=ultrafine) guess=(read,tcheck) s
 table=(opt,rrhf)
 ----------------------------------------------------------------------
 -----
 title
 -----
 Symbolic Z-matrix:
 Charge = -1 Multiplicity = 1

 SCF Done:  E(RHF) =  -761.112297981     A.U. after   17 cycles
 Normal termination of Gaussian 16 at Wed Apr  9 03:01:07 2025.
 Gaussian 16:  ES64L-G16RevC.01  3-Jul-2019

 ----------------------------------------------------------------------
 #t hf aug-cc-pvdz iop(5/13=1,5/36=2,99/5=2) pseudo=read geom=check gue
 ss=(read,tcheck) scf=(maxcycle=1)
 ----------------------------------------------------------------------
 -----
 title
 -----
 Structure from the checkpoint file:  "E2SN2_67_mol1.chk"
 Charge = -1 Multiplicity = 1

                         Standard orientation:
 ---------------------------------------------------------------------
 Center     Atomic      Atomic             Coordinates (Angstroms)
 Number     Number       Type             X           Y           Z
 ---------------------------------------------------------------------
      1          6           0        0.066130   -0.205254   -0.134821
      2          6           0       -1.063472   -0.954391   -0.649010
      3         17           0       -0.134554    0.549196    1.566002
      4          1           0       -0.610617    0.446658   -2.384301
      5          1           0       -0.878875   -0.390073   -1.939455
      6          6           0        1.257605   -1.033188   -0.065949
      7          7           0        2.218424   -1.713018   -0.046848
      8          6           0        0.435862    1.091817   -1.015610
      9          7           0        1.141741    2.050609   -1.025064
     10          6           0       -2.432816   -0.398479   -0.352767
     11          1           0       -2.484343    0.639300   -0.708858
     12          1           0       -3.199529   -0.970707   -0.886120
     13          1           0       -2.684630   -0.391600    0.713557
     14          1           0       -0.955598   -2.036079   -0.604523
 ---------------------------------------------------------------------

 SCF Done:  E(RHF) =  -761.489832975     A.U. after    2 cycles

 The electronic state is 1-A.
 Alpha  occ. eigenvalues -- -105.43266 -15.39758 -15.33965 -11.23758 -11.17331
 Alpha  occ. eigenvalues --  -11.14296 -11.10239 -11.07887 -10.48052  -7.64974
 Alpha  occ. eigenvalues --   -7.64617  -7.64606  -1.10398  -1.05375  -0.99993
 Alpha  occ. eigenvalues --   -0.89312  -0.83518  -0.69063  -0.63901  -0.53203
 Alpha  occ. eigenvalues --   -0.49865  -0.48496  -0.45979  -0.43780  -0.41945
 Alpha  occ. eigenvalues --   -0.39923  -0.38582  -0.36639  -0.35906  -0.33509
 Alpha  occ. eigenvalues --   -0.32924  -0.31020  -0.30217  -0.13307
 Alpha virt. eigenvalues --    0.12278   0.13600   0.14069   0.15880   0.17054
 Alpha virt. eigenvalues --    0.18311   0.18735   0.19545   0.21130   0.21891
 Alpha virt. eigenvalues --    0.23232   0.24159   0.24403   0.25015   0.25742

 Mulliken charges:
               1
     1  C   -0.773848
     2  C   -0.007035
     3  Cl  -0.001070
     4  H   -0.218991
     5  H    0.572848
     6  C   -1.278260
     7  N    0.948347
     8  C   -1.122095
     9  N    0.881725
    10  C   -0.395619
    11  H    0.213264
    12  H    0.086326
    13  H    0.149577
    14  H   -0.055171
 Sum of Mulliken charges =  -1.00000

 Dipole moment (field-independent basis, Debye):
    X=             -4.8142    Y=             -2.6862    Z=              3.3005  Tot=              6.4254

 Test job not archived.
 1\1\GINC-SE367\SP\RHF\Aug-CC-pVDZ\C5H6Cl1N2(1-)\OHZDE\09-Apr-2025\0\\#
 t hf aug-cc-pvdz iop(5/13=1,5/36=2,99/5=2) pseudo=read geom=check gues
 s=(read,tcheck) scf=(maxcycle=1)\\title\\-1,1\C,0,-0.23715583,0.030770
 29,-0.26574131\C,0,-0.03004602,-0.06396761,1.16594561\Cl,0,1.16933356,
 0.75034492,-1.26886968\H,0,-2.05036445,0.97830803,1.05999708\H,0,-1.36
 123446,0.36770516,1.40961434\C,0,-0.5131834,-1.27293183,-0.84366878\N,
 0,-0.76491508,-2.33409449,-1.28669595\C,0,-1.45231873,1.00388211,-0.67
 964407\N,0,-1.97846716,1.49907711,-1.62599861\C,0,0.70198314,1.0804406

 Normal termination of Gaussian 16 at Wed Apr  9 03:01:12 2025.
