 Gaussian 16, Revision C.01,

 ----------------------------------------------------------------------
 #t hf aug-cc-pvdz symm=none int=(grid=ultrafine) guess=(read,tcheck) s
 table=(opt,rrhf)
 ----------------------------------------------------------------------
 -----
 title
 -----
 Symbolic Z-matrix:
 Charge = -1 Multiplicity = 1

 SCF Done:  E(RHF) =  -1083.65660072     A.U. after   16 cycles
 Normal termination of Gaussian 16 at Wed Apr  9 02:41:37 2025.
 Gaussian 16:  ES64L-G16RevC.01  3-Jul-2019

 ----------------------------------------------------------------------
 #t hf aug-cc-pvdz iop(5/13=1,5/36=2,99/5=2) pseudo=read geom=check gue
 ss=(read,tcheck) scf=(maxcycle=1)
 ----------------------------------------------------------------------
 -----
 title
 -----
 Structure from the checkpoint file:  "E2SN2_185_mol2.chk"
 Charge = -1 Multiplicity = 1

                         Standard orientation:
 ---------------------------------------------------------------------
 Center     Atomic      Atomic             Coordinates (Angstroms)
 Number     Number       Type             X           Y           Z
 ---------------------------------------------------------------------
      1          6           0        0.973185   -0.613104    0.259750
      2          6           0       -0.125601    0.145904   -0.446706
      3         17           0        2.515585    0.242012   -0.276140
      4          1           0        0.111571    0.293037   -1.501612
      5          1           0        0.849441   -0.460890    1.324429
      6          6           0        1.071038   -2.081210   -0.073934
      7          1           0        0.196650   -2.523484    0.399343
      8          1           0        1.984499   -2.482442    0.372202
      9          1           0        1.087405   -2.265654   -1.149835
     10          7           0       -0.278159    1.538351    0.094709
     11          8           0       -0.032553    1.751465    1.273605
     12          8           0       -0.655228    2.378014   -0.724328
     13          7           0       -1.501685   -0.476634   -0.467825
     14          8           0       -2.445875    0.187667   -0.075480
     15          8           0       -1.563856   -1.518152   -1.110305
     16          9           0       -0.940803   -1.245365    1.613230
 ---------------------------------------------------------------------

 SCF Done:  E(RHF) =  -1084.33010032     A.U. after    2 cycles

 The electronic state is 1-A.
 Alpha  occ. eigenvalues -- -105.44401 -26.09208 -20.48568 -20.47830 -20.46124
 Alpha  occ. eigenvalues --  -20.45550 -15.67823 -15.67280 -11.25642 -11.19791
 Alpha  occ. eigenvalues --  -11.10915 -10.49270  -7.66193  -7.65876  -7.65851
 Alpha  occ. eigenvalues --   -1.55510  -1.53630  -1.39252  -1.37879  -1.16192
 Alpha  occ. eigenvalues --   -1.08272  -0.98114  -0.88989  -0.86528  -0.77064
 Alpha  occ. eigenvalues --   -0.71600  -0.68870  -0.66933  -0.63271  -0.61173
 Alpha  occ. eigenvalues --   -0.60972  -0.58786  -0.50142  -0.48911  -0.46148
 Alpha  occ. eigenvalues --   -0.42508  -0.40608  -0.38787  -0.37507  -0.36360
 Alpha  occ. eigenvalues --   -0.35436  -0.34124  -0.33807  -0.33464  -0.31583
 Alpha  occ. eigenvalues --   -0.25869  -0.25488  -0.25384
 Alpha virt. eigenvalues --    0.12793   0.13325   0.14683   0.16416   0.16786
 Alpha virt. eigenvalues --    0.17444   0.17993   0.19944   0.21841   0.23113
 Alpha virt. eigenvalues --    0.23988   0.24589   0.25220   0.25989   0.26116

 Mulliken charges:
               1
     1  C   -0.388704
     2  C   -1.127554
     3  Cl  -0.251792
     4  H    0.159161
     5  H    0.460379
     6  C   -0.177471
     7  H    0.430892
     8  H    0.083142
     9  H    0.226859
    10  N    3.240259
    11  O   -1.482708
    12  O   -1.504462
    13  N    3.485316
    14  O   -1.565656
    15  O   -1.618645
    16  F   -0.969017
 Sum of Mulliken charges =  -1.00000

 Dipole moment (field-independent basis, Debye):
    X=              4.4458    Y=              1.0344    Z=             -4.4418  Tot=              6.3690

 Test job not archived.
 1\1\GINC-SE041\SP\RHF\Aug-CC-pVDZ\C3H5Cl1F1N2O4(1-)\OHZDE\09-Apr-2025\
 0\\#t hf aug-cc-pvdz iop(5/13=1,5/36=2,99/5=2) pseudo=read geom=check
 guess=(read,tcheck) scf=(maxcycle=1)\\title\\-1,1\C,0,-0.077704,-0.026
 485,0.005615\C,0,-0.385938,0.056453,-1.471076\Cl,0,1.727231,0.334794,0
 .10094\H,0,0.342908,-0.504273,-2.058523\H,0,-0.613629,0.772886,0.50141
 1\C,0,-0.35845,-1.357976,0.657204\H,0,-1.444498,-1.420905,0.683487\H,0
 ,0.042901,-1.342919,1.673633\H,0,0.083621,-2.193029,0.110295\N,0,-0.27
 1587,1.462475,-1.986184\O,0,-0.536823,2.395332,-1.241225\O,0,0.089621,

 Normal termination of Gaussian 16 at Wed Apr  9 02:41:48 2025.
