 Gaussian 16, Revision C.01,

 ----------------------------------------------------------------------
 #t hf aug-cc-pvdz symm=none int=(grid=ultrafine) guess=(read,tcheck) s
 table=(opt,rrhf)
 ----------------------------------------------------------------------
 -----
 title
 -----
 Symbolic Z-matrix:
 Charge = -1 Multiplicity = 1

 SCF Done:  E(RHF) =  -740.479444102     A.U. after   17 cycles
 Normal termination of Gaussian 16 at Wed Apr  9 02:39:48 2025.
 Gaussian 16:  ES64L-G16RevC.01  3-Jul-2019

 ----------------------------------------------------------------------
 #t hf aug-cc-pvdz iop(5/13=1,5/36=2,99/5=2) pseudo=read geom=check gue
 ss=(read,tcheck) scf=(maxcycle=1)
 ----------------------------------------------------------------------
 -----
 title
 -----
 Structure from the checkpoint file:  "E2SN2_182_mol1.chk"
 Charge = -1 Multiplicity = 1

                         Standard orientation:
 ---------------------------------------------------------------------
 Center     Atomic      Atomic             Coordinates (Angstroms)
 Number     Number       Type             X           Y           Z
 ---------------------------------------------------------------------
      1          6           0       -0.336203   -0.069548   -0.747960
      2          1           0        0.602621   -1.988648   -0.600591
      3         17           0        0.162867    1.771948    0.195100
      4          1           0       -1.314061   -1.370332   -1.482908
      5          6           0        0.761019   -0.994861   -0.181263
      6          1           0       -0.198590    0.264216   -1.771378
      7          6           0       -1.697132   -0.495647   -0.432539
      8          7           0       -2.700294   -0.484958    0.223653
      9          7           0        0.692131   -1.149240    1.272749
     10          1           0       -0.207779   -1.566545    1.497669
     11          1           0        0.662986   -0.213398    1.667277
     12          7           0        2.066085   -0.543284   -0.637276
     13          1           0        2.749794   -1.073879   -0.107795
     14          1           0        2.164725    0.428180   -0.362277
 ---------------------------------------------------------------------

 SCF Done:  E(RHF) =  -740.849109643     A.U. after    2 cycles

 The electronic state is 1-A.
 Alpha  occ. eigenvalues -- -105.36225 -15.36393 -15.35633 -15.28612 -11.19029
 Alpha  occ. eigenvalues --  -11.17371 -11.11612 -10.40994  -7.57836  -7.57648
 Alpha  occ. eigenvalues --   -7.57629  -1.10857  -1.01349  -1.00462  -0.89952
 Alpha  occ. eigenvalues --   -0.81558  -0.72325  -0.61303  -0.56482  -0.55415
 Alpha  occ. eigenvalues --   -0.51007  -0.49296  -0.45373  -0.40065  -0.38860
 Alpha  occ. eigenvalues --   -0.34178  -0.32244  -0.30253  -0.28308  -0.27885
 Alpha  occ. eigenvalues --   -0.27401  -0.14778
 Alpha virt. eigenvalues --    0.12847   0.14430   0.14896   0.15555   0.16176
 Alpha virt. eigenvalues --    0.16902   0.17461   0.20452   0.22298   0.23179
 Alpha virt. eigenvalues --    0.24271   0.25440   0.26143   0.26313   0.27343

 Mulliken charges:
               1
     1  C    0.558464
     2  H   -0.025975
     3  Cl  -0.521475
     4  H    0.116780
     5  C   -2.228733
     6  H    0.082913
     7  C   -2.067941
     8  N    0.904412
     9  N    0.565267
    10  H    0.244361
    11  H    0.265541
    12  N    0.701395
    13  H    0.188891
    14  H    0.216101
 Sum of Mulliken charges =  -1.00000

 Dipole moment (field-independent basis, Debye):
    X=              6.6135    Y=             -0.9058    Z=             -0.5927  Tot=              6.7015

 Test job not archived.
 1\1\GINC-SE333\SP\RHF\Aug-CC-pVDZ\C3H7Cl1N3(1-)\OHZDE\09-Apr-2025\0\\#
 t hf aug-cc-pvdz iop(5/13=1,5/36=2,99/5=2) pseudo=read geom=check gues
 s=(read,tcheck) scf=(maxcycle=1)\\title\\-1,1\C,0,0.51565304,0.0461900
 1,0.02454374\H,0,1.74442804,1.7903905,-0.15965486\Cl,0,-1.59914486,-0.
 1240669,0.19243072\H,0,2.25231835,-0.31238788,0.23384264\C,0,0.6788443
 9,1.57767475,-0.07121255\H,0,0.61951106,-0.50473712,-0.90465601\C,0,1.
 20602208,-0.557157,1.16144378\N,0,1.26357782,-0.97549729,2.28336792\N,
 0,0.21936441,2.28344656,1.12607445\H,0,0.78283231,1.96303936,1.9099201

 Normal termination of Gaussian 16 at Wed Apr  9 02:39:53 2025.
