 Gaussian 16, Revision C.01,

 ----------------------------------------------------------------------
 #t hf aug-cc-pvdz symm=none int=(grid=ultrafine) guess=(read,tcheck) s
 table=(opt,rrhf)
 ----------------------------------------------------------------------
 -----
 title
 -----
 Symbolic Z-matrix:
 Charge = -1 Multiplicity = 1

 SCF Done:  E(RHF) =  -627.824925506     A.U. after   16 cycles
 Normal termination of Gaussian 16 at Wed Apr  9 02:47:09 2025.
 Gaussian 16:  ES64L-G16RevC.01  3-Jul-2019

 ----------------------------------------------------------------------
 #t hf aug-cc-pvdz iop(5/13=1,5/36=2,99/5=2) pseudo=read geom=check gue
 ss=(read,tcheck) scf=(maxcycle=1)
 ----------------------------------------------------------------------
 -----
 title
 -----
 Structure from the checkpoint file:  "E2SN2_249_mol1.chk"
 Charge = -1 Multiplicity = 1

                         Standard orientation:
 ---------------------------------------------------------------------
 Center     Atomic      Atomic             Coordinates (Angstroms)
 Number     Number       Type             X           Y           Z
 ---------------------------------------------------------------------
      1          6           0        0.716898    0.357993    0.351739
      2          1           0       -0.367222    0.815243   -1.434531
      3          9           0        0.208720   -0.955529    1.366734
      4          9           0        1.303677    1.788060   -0.631056
      5          6           0       -0.349574    0.038108   -0.674528
      6          1           0        0.513333    1.072206    1.125704
      7          6           0        2.048817   -0.186236    0.194647
      8          7           0        3.124624   -0.650516    0.118007
      9          7           0       -1.715122    0.206027    0.038654
     10          8           0       -2.574332   -0.650470   -0.162981
     11          8           0       -1.892438    1.228915    0.690974
     12          7           0       -0.183633   -1.252172   -1.228117
     13          1           0       -0.969810   -1.489934   -1.815853
     14          1           0       -0.131648   -1.900418   -0.451325
 ---------------------------------------------------------------------

 SCF Done:  E(RHF) =  -628.425703991     A.U. after    2 cycles

 The electronic state is 1-A.
 Alpha  occ. eigenvalues --  -26.22050 -26.17480 -20.47109 -20.46955 -15.65749
 Alpha  occ. eigenvalues --  -15.38736 -15.37732 -11.25507 -11.22259 -11.16070
 Alpha  occ. eigenvalues --   -1.54004  -1.37983  -1.30951  -1.25633  -1.11765
 Alpha  occ. eigenvalues --   -1.08000  -0.95214  -0.87594  -0.74443  -0.67277
 Alpha  occ. eigenvalues --   -0.65211  -0.63230  -0.60798  -0.58589  -0.53150
 Alpha  occ. eigenvalues --   -0.48941  -0.47023  -0.44835  -0.41442  -0.39330
 Alpha  occ. eigenvalues --   -0.37767  -0.37187  -0.35602  -0.35302  -0.34656
 Alpha  occ. eigenvalues --   -0.33129  -0.32420  -0.31845  -0.29680
 Alpha virt. eigenvalues --    0.13008   0.14721   0.15418   0.16572   0.18528
 Alpha virt. eigenvalues --    0.19008   0.21519   0.22445   0.23920   0.24196
 Alpha virt. eigenvalues --    0.24888   0.25801   0.26148   0.26571   0.27702

 Mulliken charges:
               1
     1  C    2.346022
     2  H    0.091747
     3  F   -0.897936
     4  F   -0.896124
     5  C   -1.777901
     6  H   -0.037432
     7  C   -2.197235
     8  N    0.954063
     9  N    3.124185
    10  O   -1.475445
    11  O   -1.562330
    12  N    0.730904
    13  H    0.236375
    14  H    0.361106
 Sum of Mulliken charges =  -1.00000

 Dipole moment (field-independent basis, Debye):
    X=             -5.2399    Y=             -1.0965    Z=             -1.5555  Tot=              5.5748

 Test job not archived.
 1\1\GINC-SE024\SP\RHF\Aug-CC-pVDZ\C3H4F2N3O2(1-)\OHZDE\09-Apr-2025\0\\
 #t hf aug-cc-pvdz iop(5/13=1,5/36=2,99/5=2) pseudo=read geom=check gue
 ss=(read,tcheck) scf=(maxcycle=1)\\title\\-1,1\C,0,0.54656163,-0.02288
 816,-0.03880866\H,0,1.76018907,1.73202921,0.1112885\F,0,-1.18346441,0.
 11555532,-0.0793584\F,0,2.35943861,-0.27289266,0.04030603\C,0,0.712989
 ,1.48217493,-0.03970881\H,0,0.5106463,-0.55366206,0.89261469\C,0,0.587
 96211,-0.74921135,-1.29005231\N,0,0.57111825,-1.35931798,-2.29318574\N
 ,0,0.03243539,2.00382404,1.25113367\O,0,-0.66933238,3.00972709,1.16076

 Normal termination of Gaussian 16 at Wed Apr  9 02:47:15 2025.
