 Gaussian 16, Revision C.01,

 ----------------------------------------------------------------------
 #t hf aug-cc-pvdz symm=none int=(grid=ultrafine) guess=(read,tcheck) s
 table=(opt,rrhf)
 ----------------------------------------------------------------------
 -----
 title
 -----
 Symbolic Z-matrix:
 Charge = -1 Multiplicity = 1

 SCF Done:  E(RHF) =  -987.892204930     A.U. after   17 cycles
 Normal termination of Gaussian 16 at Wed Apr  9 02:45:26 2025.
 Gaussian 16:  ES64L-G16RevC.01  3-Jul-2019

 ----------------------------------------------------------------------
 #t hf aug-cc-pvdz iop(5/13=1,5/36=2,99/5=2) pseudo=read geom=check gue
 ss=(read,tcheck) scf=(maxcycle=1)
 ----------------------------------------------------------------------
 -----
 title
 -----
 Structure from the checkpoint file:  "E2SN2_238_mol1.chk"
 Charge = -1 Multiplicity = 1

                         Standard orientation:
 ---------------------------------------------------------------------
 Center     Atomic      Atomic             Coordinates (Angstroms)
 Number     Number       Type             X           Y           Z
 ---------------------------------------------------------------------
      1          6           0       -0.304372    0.053509    0.513051
      2          1           0        0.585333   -1.888778    0.857369
      3          9           0        0.898427    1.513143    0.932589
      4         17           0       -1.648030   -1.470967   -0.247138
      5          6           0        0.878677   -0.838771    0.861764
      6          1           0        1.133511   -0.550542    1.880989
      7          7           0       -0.361358    0.793658   -0.809870
      8          8           0        0.403950    0.443398   -1.694121
      9          8           0       -1.206731    1.673776   -0.893933
     10          7           0       -1.137191    0.474401    1.567926
     11          1           0       -2.095328    0.515983    1.253365
     12          1           0       -0.792501    1.396567    1.808685
     13          6           0        2.096937   -0.695310    0.070021
     14          7           0        3.140612   -0.716490   -0.466192
 ---------------------------------------------------------------------

 SCF Done:  E(RHF) =  -988.479940717     A.U. after    2 cycles

 The electronic state is 1-A.
 Alpha  occ. eigenvalues -- -105.38142 -26.17623 -20.45921 -20.45705 -15.66563
 Alpha  occ. eigenvalues --  -15.39194 -15.38213 -11.32442 -11.17632 -11.16423
 Alpha  occ. eigenvalues --  -10.42999  -7.59846  -7.59629  -7.59618  -1.53752
 Alpha  occ. eigenvalues --   -1.37720  -1.26364  -1.12149  -1.08903  -0.97516
 Alpha  occ. eigenvalues --   -0.91112  -0.84714  -0.72018  -0.68173  -0.62350
 Alpha  occ. eigenvalues --   -0.61910  -0.59573  -0.56713  -0.53540  -0.52523
 Alpha  occ. eigenvalues --   -0.47171  -0.41728  -0.38343  -0.37113  -0.36171
 Alpha  occ. eigenvalues --   -0.35479  -0.34381  -0.34040  -0.32810  -0.31899
 Alpha  occ. eigenvalues --   -0.29793  -0.29477  -0.28982
 Alpha virt. eigenvalues --    0.13400   0.14153   0.15037   0.16329   0.17781
 Alpha virt. eigenvalues --    0.18203   0.20114   0.22405   0.22804   0.23480
 Alpha virt. eigenvalues --    0.24233   0.24940   0.25786   0.26780   0.27625

 Mulliken charges:
               1
     1  C   -1.954152
     2  H    0.234259
     3  F   -0.898650
     4  Cl  -0.471175
     5  C    0.400574
     6  H    0.453734
     7  N    3.482771
     8  O   -1.599950
     9  O   -1.569793
    10  N    0.792979
    11  H    0.319905
    12  H    0.373778
    13  C   -1.409430
    14  N    0.845151
 Sum of Mulliken charges =  -1.00000

 Dipole moment (field-independent basis, Debye):
    X=             -3.3696    Y=             -1.1695    Z=              3.0684  Tot=              4.7049

 Test job not archived.
 1\1\GINC-SE273\SP\RHF\Aug-CC-pVDZ\C3H4Cl1F1N3O2(1-)\OHZDE\09-Apr-2025\
 0\\#t hf aug-cc-pvdz iop(5/13=1,5/36=2,99/5=2) pseudo=read geom=check
 guess=(read,tcheck) scf=(maxcycle=1)\\title\\-1,1\C,0,0.80846118,-0.06
 273074,0.01451383\H,0,1.66594676,1.91943904,0.14990171\F,0,-1.12258474
 ,-0.03439105,-0.13887263\Cl,0,2.96888868,-0.23137879,-0.09245791\C,0,0
 .69593779,1.45479033,-0.02833798\H,0,0.03523995,1.69271944,0.80455121\
 N,0,0.65988107,-0.89296977,-1.24636442\O,0,0.73384349,-0.31844651,-2.3
 2094806\O,0,0.50857332,-2.09534783,-1.0798614\N,0,0.67115526,-0.691880

 Normal termination of Gaussian 16 at Wed Apr  9 02:45:34 2025.
