 Gaussian 16, Revision C.01,

 ----------------------------------------------------------------------
 #t hf aug-cc-pvdz symm=none int=(grid=ultrafine) guess=(read,tcheck) s
 table=(opt,rrhf)
 ----------------------------------------------------------------------
 -----
 title
 -----
 Symbolic Z-matrix:
 Charge = -1 Multiplicity = 1

 SCF Done:  E(RHF) =  -516.066363856     A.U. after   16 cycles
 Normal termination of Gaussian 16 at Wed Apr  9 02:48:09 2025.
 Gaussian 16:  ES64L-G16RevC.01  3-Jul-2019

 ----------------------------------------------------------------------
 #t hf aug-cc-pvdz iop(5/13=1,5/36=2,99/5=2) pseudo=read geom=check gue
 ss=(read,tcheck) scf=(maxcycle=1)
 ----------------------------------------------------------------------
 -----
 title
 -----
 Structure from the checkpoint file:  "E2SN2_267_mol2.chk"
 Charge = -1 Multiplicity = 1

                         Standard orientation:
 ---------------------------------------------------------------------
 Center     Atomic      Atomic             Coordinates (Angstroms)
 Number     Number       Type             X           Y           Z
 ---------------------------------------------------------------------
      1          6           0       -0.245421    0.368834    0.321397
      2          6           0        0.608671   -0.502236    1.295954
      3          9           0       -0.721802    1.462125    1.099174
      4          1           0       -0.072948   -1.241984    1.723834
      5          1           0        0.902643    0.191277    2.090723
      6          6           0        0.586687    0.960264   -0.734037
      7          7           0        1.287382    1.617502   -1.411074
      8          6           0       -1.449527   -0.295257   -0.193609
      9          7           0       -2.576094   -0.607635   -0.335618
     10          7           0        1.769533   -1.176528    0.761635
     11          1           0        1.412898   -1.567720   -0.124317
     12          1           0        2.451022   -0.470744    0.502002
     13          9           0        0.159377   -1.343662   -1.258626
 ---------------------------------------------------------------------

 SCF Done:  E(RHF) =  -516.557770604     A.U. after    2 cycles

 The electronic state is 1-A.
 Alpha  occ. eigenvalues --  -26.35294 -26.13011 -15.39543 -15.37590 -15.34580
 Alpha  occ. eigenvalues --  -11.27783 -11.17482 -11.16685 -11.15941  -1.47111
 Alpha  occ. eigenvalues --   -1.20466  -1.10009  -1.08079  -1.05863  -0.93506
 Alpha  occ. eigenvalues --   -0.78539  -0.69805  -0.61261  -0.57539  -0.56655
 Alpha  occ. eigenvalues --   -0.50738  -0.49313  -0.47684  -0.46706  -0.45383
 Alpha  occ. eigenvalues --   -0.42215  -0.38865  -0.38036  -0.36975  -0.35858
 Alpha  occ. eigenvalues --   -0.32181  -0.28983  -0.28433  -0.27487
 Alpha virt. eigenvalues --    0.13093   0.14881   0.15064   0.17985   0.18695
 Alpha virt. eigenvalues --    0.19262   0.20266   0.21996   0.23350   0.24427
 Alpha virt. eigenvalues --    0.25034   0.25269   0.26027   0.26191   0.27051

 Mulliken charges:
               1
     1  C    2.093325
     2  C   -0.715327
     3  F   -0.988403
     4  H    0.153738
     5  H    0.153411
     6  C   -2.090171
     7  N    1.090180
     8  C   -1.604356
     9  N    0.980464
    10  N    0.259777
    11  H    0.231865
    12  H    0.301333
    13  F   -0.865837
 Sum of Mulliken charges =  -1.00000

 Dipole moment (field-independent basis, Debye):
    X=              1.5080    Y=              2.4609    Z=              5.1733  Tot=              5.9240

 Test job not archived.
 1\1\GINC-SE336\SP\RHF\Aug-CC-pVDZ\C4H4F2N3(1-)\OHZDE\09-Apr-2025\0\\#t
  hf aug-cc-pvdz iop(5/13=1,5/36=2,99/5=2) pseudo=read geom=check guess
 =(read,tcheck) scf=(maxcycle=1)\\title\\-1,1\C,0,-0.002622,-0.001507,-
 0.065583\C,0,-0.19973,-0.067347,-1.6131\F,0,1.404982,0.053375,0.1413\H
 ,0,-0.227454,-1.128495,-1.87408\H,0,0.721859,0.360738,-2.021087\C,0,-0
 .538128,1.248768,0.487752\N,0,-0.738552,2.339662,0.876461\C,0,-0.45524
 1,-1.196373,0.657985\N,0,-0.439859,-2.222846,1.235061\N,0,-1.354301,0.
 592776,-2.177877\H,0,-2.110441,0.309859,-1.534962\H,0,-1.237917,1.5928

 Normal termination of Gaussian 16 at Wed Apr  9 02:48:14 2025.
