 Gaussian 16, Revision C.01,

 ----------------------------------------------------------------------
 #t hf aug-cc-pvdz symm=none int=(grid=ultrafine) guess=(read,tcheck) s
 table=(opt,rrhf)
 ----------------------------------------------------------------------
 -----
 title
 -----
 Symbolic Z-matrix:
 Charge = -1 Multiplicity = 1

 SCF Done:  E(RHF) =  -907.308652183     A.U. after   17 cycles
 Normal termination of Gaussian 16 at Wed Apr  9 02:38:22 2025.
 Gaussian 16:  ES64L-G16RevC.01  3-Jul-2019

 ----------------------------------------------------------------------
 #t hf aug-cc-pvdz iop(5/13=1,5/36=2,99/5=2) pseudo=read geom=check gue
 ss=(read,tcheck) scf=(maxcycle=1)
 ----------------------------------------------------------------------
 -----
 title
 -----
 Structure from the checkpoint file:  "E2SN2_161_mol2.chk"
 Charge = -1 Multiplicity = 1

                         Standard orientation:
 ---------------------------------------------------------------------
 Center     Atomic      Atomic             Coordinates (Angstroms)
 Number     Number       Type             X           Y           Z
 ---------------------------------------------------------------------
      1          6           0       -0.892994    0.380937   -0.054744
      2          6           0        0.416215    0.330116    0.749509
      3         17           0       -1.214625   -1.320227   -0.728338
      4          1           0        0.521619    1.359787    1.106020
      5          7           0       -1.991295    0.730931    0.787648
      6          1           0       -1.949004    0.161529    1.627996
      7          1           0       -1.766014    1.713533    1.055526
      8          7           0       -0.730382    1.289443   -1.139311
      9          1           0       -0.517384    2.186736   -0.662979
     10          1           0       -1.655328    1.404334   -1.544918
     11          7           0        1.617408    0.080308   -0.149912
     12          8           0        2.141797    1.050794   -0.687439
     13          8           0        2.014212   -1.083663   -0.259680
     14          7           0        0.349702   -0.606137    1.822567
     15          1           0        0.432023   -1.544489    1.450471
     16          1           0        1.109629   -0.442629    2.469768
     17          1           0       -0.632342    3.139883    1.041285
 ---------------------------------------------------------------------

 SCF Done:  E(RHF) =  -907.843409981     A.U. after    2 cycles

 The electronic state is 1-A.
 Alpha  occ. eigenvalues -- -105.42391 -20.47010 -20.46662 -15.65649 -15.40278
 Alpha  occ. eigenvalues --  -15.36055 -15.35750 -11.24672 -11.20828 -10.47328
 Alpha  occ. eigenvalues --   -7.64238  -7.63915  -7.63896  -1.53609  -1.37569
 Alpha  occ. eigenvalues --   -1.15801  -1.10364  -1.01758  -0.94811  -0.91942
 Alpha  occ. eigenvalues --   -0.78515  -0.69939  -0.66329  -0.64051  -0.62801
 Alpha  occ. eigenvalues --   -0.60661  -0.58595  -0.56213  -0.54302  -0.49997
 Alpha  occ. eigenvalues --   -0.46680  -0.41998  -0.40433  -0.37038  -0.35998
 Alpha  occ. eigenvalues --   -0.34484  -0.33602  -0.33181  -0.31840  -0.31307
 Alpha  occ. eigenvalues --   -0.11606
 Alpha virt. eigenvalues --    0.12184   0.14404   0.14812   0.15036   0.17095
 Alpha virt. eigenvalues --    0.17988   0.18587   0.19880   0.20683   0.21085
 Alpha virt. eigenvalues --    0.22652   0.23494   0.23637   0.24527   0.26194

 Mulliken charges:
               1
     1  C   -4.008139
     2  C   -0.604468
     3  Cl  -0.028364
     4  H    0.203010
     5  N    0.962415
     6  H    0.267476
     7  H    0.239474
     8  N    1.036573
     9  H    0.340355
    10  H    0.239925
    11  N    2.912189
    12  O   -1.423018
    13  O   -1.498960
    14  N    0.483427
    15  H    0.385676
    16  H    0.287315
    17  H   -0.794886
 Sum of Mulliken charges =  -1.00000

 Dipole moment (field-independent basis, Debye):
    X=              1.3560    Y=             -8.1287    Z=              0.2780  Tot=              8.2457

 Test job not archived.
 1\1\GINC-SE435\SP\RHF\Aug-CC-pVDZ\C2H8Cl1N4O2(1-)\OHZDE\09-Apr-2025\0\
 \#t hf aug-cc-pvdz iop(5/13=1,5/36=2,99/5=2) pseudo=read geom=check gu
 ess=(read,tcheck) scf=(maxcycle=1)\\title\\-1,1\C,0,-0.237052,0.068003
 ,-1.407805\C,0,-0.003539,0.004997,0.110396\Cl,0,-2.067956,0.188224,-1.
 698447\H,0,1.086711,-0.059623,0.18531\N,0,0.370177,1.233652,-1.965406\
 H,0,0.119432,2.034626,-1.392902\H,0,1.386928,1.046911,-1.826258\N,0,0.
 25139,-1.132752,-1.997487\H,0,1.258414,-1.124105,-1.746044\H,0,0.21581
 ,-0.981901,-3.002086\N,0,-0.535132,-1.289876,0.706165\O,0,0.199396,-2.

 Normal termination of Gaussian 16 at Wed Apr  9 02:38:30 2025.
