 Gaussian 16, Revision C.01,

 ----------------------------------------------------------------------
 #t hf aug-cc-pvdz symm=none int=(grid=ultrafine) guess=(read,tcheck) s
 table=(opt,rrhf)
 ----------------------------------------------------------------------
 -----
 title
 -----
 Symbolic Z-matrix:
 Charge = -1 Multiplicity = 1

 SCF Done:  E(RHF) =  -627.816538640     A.U. after   16 cycles
 Normal termination of Gaussian 16 at Wed Apr  9 02:52:10 2025.
 Gaussian 16:  ES64L-G16RevC.01  3-Jul-2019

 ----------------------------------------------------------------------
 #t hf aug-cc-pvdz iop(5/13=1,5/36=2,99/5=2) pseudo=read geom=check gue
 ss=(read,tcheck) scf=(maxcycle=1)
 ----------------------------------------------------------------------
 -----
 title
 -----
 Structure from the checkpoint file:  "E2SN2_304_mol1.chk"
 Charge = -1 Multiplicity = 1

                         Standard orientation:
 ---------------------------------------------------------------------
 Center     Atomic      Atomic             Coordinates (Angstroms)
 Number     Number       Type             X           Y           Z
 ---------------------------------------------------------------------
      1          6           0       -0.707500   -0.296270    0.087332
      2          1           0        0.604271   -1.398370   -1.138545
      3          9           0        0.137998    0.761536    1.290651
      4          9           0       -1.616899   -1.158680   -1.112873
      5          6           0        0.484500   -0.357165   -0.855474
      6          1           0        0.306507    0.271441   -1.723695
      7          6           0       -1.653049    0.817915   -0.028048
      8          7           0       -2.451666    1.675026   -0.117763
      9          7           0       -0.865997   -1.329433    1.064746
     10          1           0       -1.768809   -1.755916    0.913516
     11          1           0       -0.800544   -0.887509    1.969643
     12          7           0        1.791165    0.069965   -0.281883
     13          8           0        2.233616    1.166322   -0.620457
     14          8           0        2.380190   -0.735214    0.433022
 ---------------------------------------------------------------------

 SCF Done:  E(RHF) =  -628.416026024     A.U. after    2 cycles

 The electronic state is 1-A.
 Alpha  occ. eigenvalues --  -26.22107 -26.18722 -20.45371 -20.45265 -15.65053
 Alpha  occ. eigenvalues --  -15.37790 -15.37596 -11.29758 -11.18308 -11.16013
 Alpha  occ. eigenvalues --   -1.52500  -1.36352  -1.31615  -1.27786  -1.08719
 Alpha  occ. eigenvalues --   -1.07139  -0.99711  -0.84668  -0.74496  -0.65876
 Alpha  occ. eigenvalues --   -0.63168  -0.61704  -0.59886  -0.59490  -0.50075
 Alpha  occ. eigenvalues --   -0.48646  -0.46967  -0.45792  -0.40467  -0.38534
 Alpha  occ. eigenvalues --   -0.37148  -0.36126  -0.35448  -0.35047  -0.34578
 Alpha  occ. eigenvalues --   -0.34062  -0.32847  -0.30909  -0.30772
 Alpha virt. eigenvalues --    0.13597   0.14247   0.15261   0.16446   0.18916
 Alpha virt. eigenvalues --    0.19690   0.21466   0.22123   0.23860   0.23941
 Alpha virt. eigenvalues --    0.24757   0.25769   0.26592   0.26838   0.27078

 Mulliken charges:
               1
     1  C    0.464471
     2  H    0.239929
     3  F   -0.912807
     4  F   -0.881132
     5  C   -0.097482
     6  H    0.152850
     7  C   -2.402862
     8  N    1.112381
     9  N    0.569730
    10  H    0.355260
    11  H    0.357459
    12  N    3.001781
    13  O   -1.472206
    14  O   -1.487372
 Sum of Mulliken charges =  -1.00000

 Dipole moment (field-independent basis, Debye):
    X=              1.3586    Y=             -3.3401    Z=             -0.8283  Tot=              3.6997

 Test job not archived.
 1\1\GINC-SE036\SP\RHF\Aug-CC-pVDZ\C3H4F2N3O2(1-)\OHZDE\09-Apr-2025\0\\
 #t hf aug-cc-pvdz iop(5/13=1,5/36=2,99/5=2) pseudo=read geom=check gue
 ss=(read,tcheck) scf=(maxcycle=1)\\title\\-1,1\C,0,0.75789002,-0.08821
 328,0.0889234\H,0,1.77793333,1.53047096,0.97069085\F,0,-1.03366506,-0.
 05041567,0.3548119\F,0,2.43639822,-0.14926375,-0.34711802\C,0,0.928336
 06,1.4075226,0.30612267\H,0,1.0937377,1.90658177,-0.6447815\C,0,0.4149
 0444,-0.58111865,-1.24830822\N,0,0.17858899,-1.01412887,-2.31467295\N,
 0,0.93284096,-0.97015661,1.20223118\H,0,1.66258478,-1.62498232,0.96035

 Normal termination of Gaussian 16 at Wed Apr  9 02:52:17 2025.
