 Gaussian 16, Revision C.01,

 ----------------------------------------------------------------------
 #t hf aug-cc-pvdz symm=none int=(grid=ultrafine) guess=(read,tcheck) s
 table=(opt,rrhf)
 ----------------------------------------------------------------------
 -----
 title
 -----
 Symbolic Z-matrix:
 Charge = -1 Multiplicity = 1

 SCF Done:  E(RHF) =  -1222.54130792     A.U. after   16 cycles
 Normal termination of Gaussian 16 at Wed Apr  9 02:54:50 2025.
 Gaussian 16:  ES64L-G16RevC.01  3-Jul-2019

 ----------------------------------------------------------------------
 #t hf aug-cc-pvdz iop(5/13=1,5/36=2,99/5=2) pseudo=read geom=check gue
 ss=(read,tcheck) scf=(maxcycle=1)
 ----------------------------------------------------------------------
 -----
 title
 -----
 Structure from the checkpoint file:  "E2SN2_341_mol1.chk"
 Charge = -1 Multiplicity = 1

                         Standard orientation:
 ---------------------------------------------------------------------
 Center     Atomic      Atomic             Coordinates (Angstroms)
 Number     Number       Type             X           Y           Z
 ---------------------------------------------------------------------
      1          6           0        0.141559   -0.112547   -0.332718
      2          1           0        0.757982    1.808504    0.216103
      3         17           0       -2.173488   -0.861222   -0.264628
      4         17           0        2.561143    0.173858   -0.162540
      5          6           0       -0.163720    1.237063    0.324094
      6          6           0        0.242237   -0.182678   -1.838488
      7          1           0       -0.746782   -0.123947   -2.283963
      8          1           0        0.836507    0.660480   -2.184868
      9          1           0        0.736158   -1.107399   -2.134146
     10          6           0        0.379280   -1.276939    0.479768
     11          7           0        0.563789   -2.224703    1.156062
     12          6           0       -0.456842    1.104345    1.814720
     13          1           0       -1.349880    0.499345    1.977467
     14          1           0        0.386615    0.644604    2.335653
     15          1           0       -0.618629    2.101889    2.236599
     16          7           0       -1.160895    1.961350   -0.462438
     17          1           0       -1.204413    2.911018   -0.111188
     18          1           0       -2.063029    1.518701   -0.329420
 ---------------------------------------------------------------------

 SCF Done:  E(RHF) =  -1223.01221703     A.U. after    2 cycles

 The electronic state is 1-A.
 Alpha  occ. eigenvalues -- -105.34194-105.33335 -15.38330 -15.37344 -11.26788
 Alpha  occ. eigenvalues --  -11.16757 -11.16640 -11.12323 -11.11121 -10.38995
 Alpha  occ. eigenvalues --  -10.38110  -7.55803  -7.55674  -7.55656  -7.54921
 Alpha  occ. eigenvalues --   -7.54784  -7.54778  -1.09796  -1.08010  -0.97542
 Alpha  occ. eigenvalues --   -0.88772  -0.81225  -0.80135  -0.77668  -0.73738
 Alpha  occ. eigenvalues --   -0.61079  -0.54492  -0.53129  -0.49784  -0.48658
 Alpha  occ. eigenvalues --   -0.47369  -0.46197  -0.44566  -0.40862  -0.40107
 Alpha  occ. eigenvalues --   -0.39738  -0.35835  -0.32420  -0.27913  -0.26540
 Alpha  occ. eigenvalues --   -0.26262  -0.25506  -0.24898  -0.24180
 Alpha virt. eigenvalues --    0.11459   0.12908   0.13762   0.14340   0.15581
 Alpha virt. eigenvalues --    0.15754   0.16309   0.16666   0.17450   0.17684
 Alpha virt. eigenvalues --    0.20375   0.21768   0.22975   0.23452   0.23705

 Mulliken charges:
               1
     1  C    0.325820
     2  H    0.073388
     3  Cl  -0.686284
     4  Cl  -0.662541
     5  C   -1.381072
     6  C    0.092559
     7  H    0.280418
     8  H    0.291246
     9  H    0.156437
    10  C   -2.336081
    11  N    1.089861
    12  C   -0.055972
    13  H    0.319780
    14  H    0.326963
    15  H    0.043328
    16  N    0.683576
    17  H    0.225005
    18  H    0.213569
 Sum of Mulliken charges =  -1.00000

 Dipole moment (field-independent basis, Debye):
    X=             -2.2470    Y=              5.5812    Z=             -0.8075  Tot=              6.0705

 Test job not archived.
 1\1\GINC-SE435\SP\RHF\Aug-CC-pVDZ\C5H9Cl2N2(1-)\OHZDE\09-Apr-2025\0\\#
 t hf aug-cc-pvdz iop(5/13=1,5/36=2,99/5=2) pseudo=read geom=check gues
 s=(read,tcheck) scf=(maxcycle=1)\\title\\-1,1\C,0,0.60619829,-0.031621
 4,-0.04714754\H,0,1.5636516,1.8114099,-0.28826252\Cl,0,-1.81182211,-0.
 29987698,0.0290644\Cl,0,3.02330997,-0.08347946,0.29962984\C,0,0.542824
 09,1.49858147,-0.06964943\C,0,0.76427913,-0.77255908,-1.35421201\H,0,-
 0.17055335,-0.76151138,-1.9074032\H,0,1.5300496,-0.27310866,-1.9442934
 8\H,0,1.07892955,-1.79775033,-1.16327133\C,0,0.56850228,-0.74041733,1.

 Normal termination of Gaussian 16 at Wed Apr  9 02:55:00 2025.
