 Gaussian 16, Revision C.01,

 ----------------------------------------------------------------------
 #t hf aug-cc-pvdz symm=none int=(grid=ultrafine) guess=(read,tcheck) s
 table=(opt,rrhf)
 ----------------------------------------------------------------------
 -----
 title
 -----
 Symbolic Z-matrix:
 Charge = -1 Multiplicity = 1

 SCF Done:  E(RHF) =  -1006.22657096     A.U. after   17 cycles
 Normal termination of Gaussian 16 at Wed Apr  9 02:50:38 2025.
 Gaussian 16:  ES64L-G16RevC.01  3-Jul-2019

 ----------------------------------------------------------------------
 #t hf aug-cc-pvdz iop(5/13=1,5/36=2,99/5=2) pseudo=read geom=check gue
 ss=(read,tcheck) scf=(maxcycle=1)
 ----------------------------------------------------------------------
 -----
 title
 -----
 Structure from the checkpoint file:  "E2SN2_28_mol1.chk"
 Charge = -1 Multiplicity = 1

                         Standard orientation:
 ---------------------------------------------------------------------
 Center     Atomic      Atomic             Coordinates (Angstroms)
 Number     Number       Type             X           Y           Z
 ---------------------------------------------------------------------
      1          6           0        0.275865   -0.031273    0.449815
      2          6           0       -1.036525   -0.362951   -0.075917
      3         17           0        1.745021   -1.365667   -0.459288
      4          9           0       -3.061449    1.043028    0.134751
      5          1           0       -1.836201    0.561126    0.137971
      6          7           0        0.938184    1.222432   -0.071144
      7          8           0        1.804996    1.721568    0.642575
      8          8           0        0.576444    1.668458   -1.153418
      9          7           0       -1.614864   -1.426679    0.749445
     10          1           0       -1.583755   -2.272058    0.187522
     11          1           0       -2.589328   -1.156595    0.848986
     12          7           0       -1.147873   -0.624954   -1.494982
     13          1           0       -0.252830   -0.533744   -1.955031
     14          1           0       -1.788434    0.062680   -1.872650
     15          7           0        0.424119   -0.122882    1.792979
     16          1           0        1.365761   -0.005823    2.129643
     17          1           0       -0.112033   -0.916794    2.127970
 ---------------------------------------------------------------------

 SCF Done:  E(RHF) =  -1006.84846961     A.U. after    2 cycles

 The electronic state is 1-A.
 Alpha  occ. eigenvalues -- -105.38818 -26.13932 -20.48674 -20.48393 -15.68427
 Alpha  occ. eigenvalues --  -15.41666 -15.35601 -15.34713 -11.29336 -11.13196
 Alpha  occ. eigenvalues --  -10.43571  -7.60418  -7.60201  -7.60196  -1.55887
 Alpha  occ. eigenvalues --   -1.39762  -1.21359  -1.17043  -1.08161  -1.00438
 Alpha  occ. eigenvalues --   -0.96787  -0.85181  -0.80871  -0.72655  -0.67148
 Alpha  occ. eigenvalues --   -0.64539  -0.63372  -0.61245  -0.59783  -0.55522
 Alpha  occ. eigenvalues --   -0.50823  -0.50009  -0.47493  -0.42311  -0.39987
 Alpha  occ. eigenvalues --   -0.38462  -0.35145  -0.34427  -0.31876  -0.31526
 Alpha  occ. eigenvalues --   -0.30594  -0.30387  -0.29940  -0.29802  -0.21532
 Alpha virt. eigenvalues --    0.12680   0.13913   0.14207   0.15157   0.15960
 Alpha virt. eigenvalues --    0.16604   0.17345   0.18586   0.19949   0.22462
 Alpha virt. eigenvalues --    0.23689   0.24834   0.25618   0.25922   0.26468

 Mulliken charges:
               1
     1  C   -2.108328
     2  C   -1.828054
     3  Cl  -0.350314
     4  F   -1.053293
     5  H    0.829850
     6  N    3.317579
     7  O   -1.536747
     8  O   -1.508864
     9  N    0.007708
    10  H    0.337914
    11  H    0.353320
    12  N    0.603325
    13  H    0.257726
    14  H    0.235445
    15  N    0.905471
    16  H    0.264613
    17  H    0.272648
 Sum of Mulliken charges =  -1.00000

 Dipole moment (field-independent basis, Debye):
    X=              4.3344    Y=             -2.1303    Z=              1.5121  Tot=              5.0608

 Test job not archived.
 1\1\GINC-SE368\SP\RHF\Aug-CC-pVDZ\C2H7Cl1F1N4O2(1-)\OHZDE\09-Apr-2025\
 0\\#t hf aug-cc-pvdz iop(5/13=1,5/36=2,99/5=2) pseudo=read geom=check
 guess=(read,tcheck) scf=(maxcycle=1)\\title\\-1,1\C,0,-0.38708653,0.10
 119001,-0.25821095\C,0,-0.35048255,0.15063755,1.19264669\Cl,0,1.591650
 63,-0.46846477,-0.98318439\F,0,-2.33054254,0.24017329,2.67346418\H,0,-
 1.50082567,0.13235386,1.65689284\N,0,-1.07609966,-1.08137361,-0.897464
 17\O,0,-1.47457475,-0.92667604,-2.04949781\O,0,-1.20370547,-2.10848356
 ,-0.24181669\N,0,0.09298616,1.48555085,1.60320526\H,0,1.04059374,1.376

 Normal termination of Gaussian 16 at Wed Apr  9 02:50:45 2025.
