 Gaussian 16, Revision C.01,

 ----------------------------------------------------------------------
 #t hf aug-cc-pvdz symm=none int=(grid=ultrafine) guess=(read,tcheck) s
 table=(opt,rrhf)
 ----------------------------------------------------------------------
 -----
 title
 -----
 Symbolic Z-matrix:
 Charge = -1 Multiplicity = 1

 SCF Done:  E(RHF) =  -364.445225583     A.U. after   15 cycles
 Normal termination of Gaussian 16 at Wed Apr  9 02:56:45 2025.
 Gaussian 16:  ES64L-G16RevC.01  3-Jul-2019

 ----------------------------------------------------------------------
 #t hf aug-cc-pvdz iop(5/13=1,5/36=2,99/5=2) pseudo=read geom=check gue
 ss=(read,tcheck) scf=(maxcycle=1)
 ----------------------------------------------------------------------
 -----
 title
 -----
 Structure from the checkpoint file:  "E2SN2_371_mol2.chk"
 Charge = -1 Multiplicity = 1

                         Standard orientation:
 ---------------------------------------------------------------------
 Center     Atomic      Atomic             Coordinates (Angstroms)
 Number     Number       Type             X           Y           Z
 ---------------------------------------------------------------------
      1          6           0       -1.036147    0.225526    0.016843
      2          6           0        0.396034    0.377524    0.535020
      3          9           0       -1.019975    0.354765   -1.383087
      4          1           0        0.236613    0.274824    1.631050
      5          1           0       -1.608283    1.066761    0.416903
      6          7           0       -1.696862   -0.971911    0.403739
      7          1           0       -1.075484   -1.760772    0.247095
      8          1           0       -1.789020   -0.854025    1.432028
      9          6           0        1.011024    1.734242    0.197803
     10          1           0        0.386601    2.519977    0.631140
     11          1           0        1.064015    1.881456   -0.882930
     12          1           0        2.015431    1.828783    0.617656
     13          6           0        1.234846   -0.716534    0.059319
     14          7           0        1.919769   -1.589389   -0.329699
     15          1           0       -1.244977    0.054668    2.982646
 ---------------------------------------------------------------------

 SCF Done:  E(RHF) =  -364.815628777     A.U. after    2 cycles

 The electronic state is 1-A.
 Alpha  occ. eigenvalues --  -26.31834 -15.39592 -15.34831 -11.21957 -11.16898
 Alpha  occ. eigenvalues --  -11.14520 -11.13288  -1.44135  -1.10413  -1.06632
 Alpha  occ. eigenvalues --   -0.96208  -0.80478  -0.74582  -0.61722  -0.58875
 Alpha  occ. eigenvalues --   -0.55728  -0.53628  -0.50043  -0.48689  -0.47259
 Alpha  occ. eigenvalues --   -0.45372  -0.43004  -0.42069  -0.40092  -0.37214
 Alpha  occ. eigenvalues --   -0.35735  -0.30999  -0.10168
 Alpha virt. eigenvalues --    0.12238   0.13638   0.14139   0.15450   0.16785
 Alpha virt. eigenvalues --    0.17621   0.19584   0.19902   0.22014   0.22255
 Alpha virt. eigenvalues --    0.23073   0.24289   0.24587   0.25260   0.26147

 Mulliken charges:
               1
     1  C    0.084040
     2  C   -0.489921
     3  F   -0.867735
     4  H    0.376523
     5  H    0.096197
     6  N    0.360730
     7  H    0.196650
     8  H    0.273671
     9  C   -0.058846
    10  H    0.171663
    11  H    0.269322
    12  H    0.136670
    13  C   -1.676703
    14  N    0.933197
    15  H   -0.805458
 Sum of Mulliken charges =  -1.00000

 Dipole moment (field-independent basis, Debye):
    X=              3.3897    Y=              3.4632    Z=             -7.4343  Tot=              8.8743

 Test job not archived.
 1\1\GINC-SE162\SP\RHF\Aug-CC-pVDZ\C4H8F1N2(1-)\OHZDE\09-Apr-2025\0\\#t
  hf aug-cc-pvdz iop(5/13=1,5/36=2,99/5=2) pseudo=read geom=check guess
 =(read,tcheck) scf=(maxcycle=1)\\title\\-1,1\C,0,-0.015357,0.010737,-0
 .007738\C,0,-0.478569,0.052446,-1.465973\F,0,1.390311,-0.009816,0.0132
 64\H,0,-1.583409,0.046479,-1.33738\H,0,-0.363112,-0.938787,0.407636\N,
 0,-0.515434,1.054515,0.81721\H,0,-0.404624,1.942299,0.335017\H,0,-1.53
 3228,0.847267,0.847412\C,0,-0.016572,-1.159132,-2.272972\H,0,-0.403413
 ,-2.064894,-1.798617\H,0,1.07354,-1.215193,-2.304208\H,0,-0.398637,-1.

 Normal termination of Gaussian 16 at Wed Apr  9 02:56:51 2025.
