 Gaussian 16, Revision C.01,

 ----------------------------------------------------------------------
 #t hf aug-cc-pvdz symm=none int=(grid=ultrafine) guess=(read,tcheck) s
 table=(opt,rrhf)
 ----------------------------------------------------------------------
 -----
 title
 -----
 Symbolic Z-matrix:
 Charge = -1 Multiplicity = 1

 SCF Done:  E(RHF) =  -1222.59903164     A.U. after   15 cycles
 Normal termination of Gaussian 16 at Wed Apr  9 03:03:38 2025.
 Gaussian 16:  ES64L-G16RevC.01  3-Jul-2019

 ----------------------------------------------------------------------
 #t hf aug-cc-pvdz iop(5/13=1,5/36=2,99/5=2) pseudo=read geom=check gue
 ss=(read,tcheck) scf=(maxcycle=1)
 ----------------------------------------------------------------------
 -----
 title
 -----
 Structure from the checkpoint file:  "E2SN2_8_mol2.chk"
 Charge = -1 Multiplicity = 1

                         Standard orientation:
 ---------------------------------------------------------------------
 Center     Atomic      Atomic             Coordinates (Angstroms)
 Number     Number       Type             X           Y           Z
 ---------------------------------------------------------------------
      1          6           0       -1.118103    0.053022    0.381978
      2          6           0        0.324053   -0.003097   -0.168997
      3         17           0       -2.157746   -1.146867   -0.498178
      4          1           0        0.897530    0.718311    0.432470
      5          6           0       -1.160346   -0.287721    1.864089
      6          1           0       -0.579206    0.457733    2.413859
      7          1           0       -2.187024   -0.294879    2.234720
      8          1           0       -0.691324   -1.261693    1.991264
      9          6           0       -1.718575    1.368302    0.149642
     10          7           0       -2.184084    2.436577   -0.003410
     11          6           0        0.440093    0.419746   -1.627714
     12          1           0       -0.059140   -0.302384   -2.281211
     13          1           0        1.504806    0.450056   -1.864928
     14          1           0        0.012734    1.410027   -1.811548
     15          7           0        0.887921   -1.310331    0.121542
     16          1           0        0.758084   -1.911737   -0.685036
     17          1           0        1.893570   -1.152634    0.228179
     18         17           0        3.741298    0.246982    0.199432
 ---------------------------------------------------------------------

 SCF Done:  E(RHF) =  -1223.07006756     A.U. after    2 cycles

 The electronic state is 1-A.
 Alpha  occ. eigenvalues -- -105.47135-105.27959 -15.43098 -15.35497 -11.24724
 Alpha  occ. eigenvalues --  -11.20044 -11.16307 -11.14996 -11.11091 -10.51988
 Alpha  occ. eigenvalues --  -10.32535  -7.68925  -7.68562  -7.68556  -7.49298
 Alpha  occ. eigenvalues --   -7.49267  -7.49262  -1.13895  -1.09301  -1.02665
 Alpha  occ. eigenvalues --   -0.91332  -0.88741  -0.80086  -0.73218  -0.72798
 Alpha  occ. eigenvalues --   -0.61486  -0.56265  -0.54158  -0.52565  -0.51807
 Alpha  occ. eigenvalues --   -0.49649  -0.46450  -0.45964  -0.44445  -0.41974
 Alpha  occ. eigenvalues --   -0.40254  -0.40128  -0.37823  -0.36264  -0.35896
 Alpha  occ. eigenvalues --   -0.31516  -0.20636  -0.20237  -0.20180
 Alpha virt. eigenvalues --    0.11529   0.12919   0.13442   0.14101   0.14630
 Alpha virt. eigenvalues --    0.15366   0.15890   0.17605   0.18390   0.19270
 Alpha virt. eigenvalues --    0.19965   0.20887   0.21908   0.23513   0.23647

 Mulliken charges:
               1
     1  C   -0.994075
     2  C   -1.322332
     3  Cl  -0.031540
     4  H    0.158497
     5  C    0.350216
     6  H    0.305430
     7  H    0.174285
     8  H    0.321222
     9  C   -1.581272
    10  N    1.006261
    11  C   -0.135675
    12  H    0.213003
    13  H    0.164588
    14  H    0.241997
    15  N    0.492769
    16  H    0.302634
    17  H    0.323503
    18  Cl  -0.989513
 Sum of Mulliken charges =  -1.00000

 Dipole moment (field-independent basis, Debye):
    X=            -10.6168    Y=             -3.3326    Z=             -0.3215  Tot=             11.1322

 Test job not archived.
 1\1\GINC-SE051\SP\RHF\Aug-CC-pVDZ\C5H9Cl2N2(1-)\OHZDE\09-Apr-2025\0\\#
 t hf aug-cc-pvdz iop(5/13=1,5/36=2,99/5=2) pseudo=read geom=check gues
 s=(read,tcheck) scf=(maxcycle=1)\\title\\-1,1\C,0,-0.469603,0.022613,-
 1.579357\C,0,0.141056,-0.054784,-0.162444\Cl,0,-2.25319,0.339243,-1.46
 1761\H,0,1.219802,-0.210399,-0.314623\C,0,0.153945,1.14713,-2.392494\H
 ,0,1.221201,0.943341,-2.515403\H,0,-0.316834,1.227674,-3.374007\H,0,0.
 035821,2.068276,-1.824768\C,0,-0.322228,-1.25186,-2.285407\N,0,-0.1681
 25,-2.26339,-2.863674\C,0,-0.379208,-1.221874,0.666618\H,0,-1.438584,-

 Normal termination of Gaussian 16 at Wed Apr  9 03:03:48 2025.
