 Gaussian 16, Revision C.01,

 ----------------------------------------------------------------------
 #t hf aug-cc-pvdz symm=none int=(grid=ultrafine) guess=(read,tcheck) s
 table=(opt,rrhf)
 ----------------------------------------------------------------------
 -----
 title
 -----
 Symbolic Z-matrix:
 Charge = -1 Multiplicity = 1

 SCF Done:  E(RHF) =  -614.143182233     A.U. after   16 cycles
 Normal termination of Gaussian 16 at Wed Apr  9 02:56:01 2025.
 Gaussian 16:  ES64L-G16RevC.01  3-Jul-2019

 ----------------------------------------------------------------------
 #t hf aug-cc-pvdz iop(5/13=1,5/36=2,99/5=2) pseudo=read geom=check gue
 ss=(read,tcheck) scf=(maxcycle=1)
 ----------------------------------------------------------------------
 -----
 title
 -----
 Structure from the checkpoint file:  "E2SN2_359_mol1.chk"
 Charge = -1 Multiplicity = 1

                         Standard orientation:
 ---------------------------------------------------------------------
 Center     Atomic      Atomic             Coordinates (Angstroms)
 Number     Number       Type             X           Y           Z
 ---------------------------------------------------------------------
      1          6           0       -0.902408   -0.095862    0.137893
      2          1           0        0.261606   -0.515481   -1.579697
      3          9           0       -0.613414    1.433005    1.135010
      4          9           0       -1.239765   -1.654778   -0.755260
      5          6           0        0.331625    0.173337   -0.742786
      6          6           0       -2.237134    0.431587   -0.362861
      7          1           0       -2.371022    1.472595   -0.079624
      8          1           0       -2.305718    0.307702   -1.444448
      9          1           0       -3.024032   -0.182939    0.077548
     10          7           0       -0.721213   -0.850564    1.344461
     11          1           0       -1.269437   -1.691698    1.251103
     12          1           0       -1.012174   -0.260904    2.108700
     13          7           0        1.557535   -0.290560   -0.015462
     14          8           0        1.910641   -1.454027   -0.206684
     15          8           0        2.152739    0.501646    0.711735
     16          6           0        0.530612    1.599269   -1.213149
     17          1           0       -0.370578    1.933303   -1.732686
     18          1           0        0.702947    2.244080   -0.359930
     19          1           0        1.369550    1.646229   -1.916694
 ---------------------------------------------------------------------

 SCF Done:  E(RHF) =  -614.748482573     A.U. after    2 cycles

 The electronic state is 1-A.
 Alpha  occ. eigenvalues --  -26.15508 -26.14901 -20.43443 -20.43317 -15.62775
 Alpha  occ. eigenvalues --  -15.33546 -11.23573 -11.15504 -11.10034 -11.08979
 Alpha  occ. eigenvalues --   -1.50423  -1.34158  -1.24920  -1.23313  -1.04010
 Alpha  occ. eigenvalues --   -0.98653  -0.86241  -0.82540  -0.73225  -0.66093
 Alpha  occ. eigenvalues --   -0.60707  -0.58660  -0.57711  -0.55827  -0.50516
 Alpha  occ. eigenvalues --   -0.47866  -0.46193  -0.45378  -0.42682  -0.41295
 Alpha  occ. eigenvalues --   -0.38337  -0.34281  -0.34012  -0.32664  -0.32200
 Alpha  occ. eigenvalues --   -0.31265  -0.30592  -0.30194  -0.29384  -0.28637
 Alpha  occ. eigenvalues --   -0.27697
 Alpha virt. eigenvalues --    0.12624   0.13216   0.14110   0.14481   0.15497
 Alpha virt. eigenvalues --    0.16179   0.16954   0.17580   0.18418   0.21327
 Alpha virt. eigenvalues --    0.22487   0.23572   0.24322   0.25142   0.25818

 Mulliken charges:
               1
     1  C   -0.357783
     2  H    0.269408
     3  F   -0.969514
     4  F   -0.941853
     5  C   -1.214049
     6  C   -0.395163
     7  H    0.322700
     8  H    0.273874
     9  H    0.098793
    10  N    0.438497
    11  H    0.331956
    12  H    0.305376
    13  N    3.206369
    14  O   -1.494310
    15  O   -1.542572
    16  C   -0.130754
    17  H    0.230879
    18  H    0.421867
    19  H    0.146278
 Sum of Mulliken charges =  -1.00000

 Dipole moment (field-independent basis, Debye):
    X=             -1.2494    Y=              1.9919    Z=             -2.1257  Tot=              3.1697

 Test job not archived.
 1\1\GINC-SE460\SP\RHF\Aug-CC-pVDZ\C4H9F2N2O2(1-)\OHZDE\09-Apr-2025\0\\
 #t hf aug-cc-pvdz iop(5/13=1,5/36=2,99/5=2) pseudo=read geom=check gue
 ss=(read,tcheck) scf=(maxcycle=1)\\title\\-1,1\C,0,0.68604349,-0.06450
 024,-0.03666095\H,0,1.60476151,1.81887418,-0.33662954\F,0,-1.15080434,
 -0.25215287,-0.11392925\F,0,2.50678104,0.02268798,0.10141774\C,0,0.594
 0018,1.46843648,-0.14861033\C,0,0.8627633,-0.8425343,-1.3304477\H,0,-0
 .09797265,-1.02265795,-1.80625141\H,0,1.53718146,-0.30649479,-1.999553
 45\H,0,1.34548095,-1.79006027,-1.08551778\N,0,0.63570848,-0.65185279,1

 Normal termination of Gaussian 16 at Wed Apr  9 02:56:11 2025.
