 Gaussian 16, Revision C.01,

 ----------------------------------------------------------------------
 #t hf aug-cc-pvdz symm=none int=(grid=ultrafine) guess=(read,tcheck) s
 table=(opt,rrhf)
 ----------------------------------------------------------------------
 -----
 title
 -----
 Symbolic Z-matrix:
 Charge = -1 Multiplicity = 1

 SCF Done:  E(RHF) =  -555.091326442     A.U. after   16 cycles
 Normal termination of Gaussian 16 at Wed Apr  9 02:58:52 2025.
 Gaussian 16:  ES64L-G16RevC.01  3-Jul-2019

 ----------------------------------------------------------------------
 #t hf aug-cc-pvdz iop(5/13=1,5/36=2,99/5=2) pseudo=read geom=check gue
 ss=(read,tcheck) scf=(maxcycle=1)
 ----------------------------------------------------------------------
 -----
 title
 -----
 Structure from the checkpoint file:  "E2SN2_392_mol1.chk"
 Charge = -1 Multiplicity = 1

                         Standard orientation:
 ---------------------------------------------------------------------
 Center     Atomic      Atomic             Coordinates (Angstroms)
 Number     Number       Type             X           Y           Z
 ---------------------------------------------------------------------
      1          6           0       -0.439825   -0.397438    0.104517
      2          1           0        0.739035    0.355670    1.673426
      3          9           0        0.210728   -0.411567   -1.569902
      4          9           0       -1.261949   -0.254427    1.675262
      5          6           0        0.726454    0.465724    0.587754
      6          7           0       -0.314123   -1.817034    0.229114
      7          1           0       -0.330401   -2.200899   -0.704766
      8          1           0       -1.089606   -2.140075    0.789240
      9          6           0       -1.630934    0.226398   -0.476996
     10          7           0       -2.602714    0.699001   -0.938993
     11          6           0        0.541687    1.936387    0.223792
     12          1           0        0.478213    2.031494   -0.860080
     13          1           0       -0.382303    2.301605    0.675542
     14          1           0        1.378978    2.534221    0.593227
     15          6           0        2.014861   -0.029407    0.092030
     16          7           0        3.115926   -0.324546   -0.190323
 ---------------------------------------------------------------------

 SCF Done:  E(RHF) =  -555.627673791     A.U. after    2 cycles

 The electronic state is 1-A.
 Alpha  occ. eigenvalues --  -26.20093 -26.19232 -15.37626 -15.37574 -15.37468
 Alpha  occ. eigenvalues --  -11.28834 -11.16069 -11.15856 -11.15554 -11.12126
 Alpha  occ. eigenvalues --   -1.29737  -1.27837  -1.08797  -1.08279  -1.06840
 Alpha  occ. eigenvalues --   -0.97109  -0.82327  -0.78158  -0.62210  -0.59777
 Alpha  occ. eigenvalues --   -0.58651  -0.54969  -0.48289  -0.47562  -0.44960
 Alpha  occ. eigenvalues --   -0.44678  -0.43623  -0.42905  -0.38189  -0.37349
 Alpha  occ. eigenvalues --   -0.36606  -0.35683  -0.35353  -0.34871  -0.33941
 Alpha  occ. eigenvalues --   -0.33593  -0.32254  -0.30445
 Alpha virt. eigenvalues --    0.12609   0.13626   0.14490   0.15226   0.16052
 Alpha virt. eigenvalues --    0.16669   0.18837   0.19221   0.21891   0.23577
 Alpha virt. eigenvalues --    0.23740   0.24500   0.24786   0.25258   0.25828

 Mulliken charges:
               1
     1  C    1.081374
     2  H    0.312865
     3  F   -0.891330
     4  F   -0.921440
     5  C   -0.214242
     6  N    0.599108
     7  H    0.351349
     8  H    0.337093
     9  C   -2.998034
    10  N    1.247701
    11  C    0.315344
    12  H    0.392912
    13  H    0.242612
    14  H    0.061394
    15  C   -2.006645
    16  N    1.089939
 Sum of Mulliken charges =  -1.00000

 Dipole moment (field-independent basis, Debye):
    X=              0.1332    Y=              0.6931    Z=              2.2368  Tot=              2.3455

 Test job not archived.
 1\1\GINC-SE109\SP\RHF\Aug-CC-pVDZ\C5H6F2N3(1-)\OHZDE\09-Apr-2025\0\\#t
  hf aug-cc-pvdz iop(5/13=1,5/36=2,99/5=2) pseudo=read geom=check guess
 =(read,tcheck) scf=(maxcycle=1)\\title\\-1,1\C,0,0.61121557,-0.0683308
 7,-0.03742752\H,0,1.60062677,1.76324815,-0.32853683\F,0,-1.17633436,-0
 .14931909,-0.19618364\F,0,2.34969542,-0.07257376,0.3384074\C,0,0.58116
 142,1.45996011,-0.08427966\N,0,0.81203263,-0.76857558,-1.26864916\H,0,
 -0.01987885,-1.31470582,-1.44015863\H,0,1.63257138,-1.34612848,-1.1563
 1588\C,0,0.42405654,-0.77357021,1.23287894\N,0,0.28625366,-1.3662063,2

 Normal termination of Gaussian 16 at Wed Apr  9 02:59:00 2025.
