 Gaussian 16, Revision C.01,

 ----------------------------------------------------------------------
 #t hf aug-cc-pvdz symm=none int=(grid=ultrafine) guess=(read,tcheck) s
 table=(opt,rrhf)
 ----------------------------------------------------------------------
 -----
 title
 -----
 Symbolic Z-matrix:
 Charge = -1 Multiplicity = 1

 SCF Done:  E(RHF) =  -627.866092699     A.U. after   16 cycles
 Normal termination of Gaussian 16 at Wed Apr  9 02:43:02 2025.
 Gaussian 16:  ES64L-G16RevC.01  3-Jul-2019

 ----------------------------------------------------------------------
 #t hf aug-cc-pvdz iop(5/13=1,5/36=2,99/5=2) pseudo=read geom=check gue
 ss=(read,tcheck) scf=(maxcycle=1)
 ----------------------------------------------------------------------
 -----
 title
 -----
 Structure from the checkpoint file:  "E2SN2_218_mol2.chk"
 Charge = -1 Multiplicity = 1

                         Standard orientation:
 ---------------------------------------------------------------------
 Center     Atomic      Atomic             Coordinates (Angstroms)
 Number     Number       Type             X           Y           Z
 ---------------------------------------------------------------------
      1          6           0        0.221751   -0.525422    0.487358
      2          6           0        0.457360    0.970956    0.220756
      3          9           0       -0.283218   -0.697905    1.748493
      4          1           0        1.004119    1.279762    1.116872
      5          1           0        1.226888   -0.987506    0.366281
      6          7           0       -0.776090   -1.097423   -0.469998
      7          8           0       -0.486496   -0.997271   -1.663402
      8          8           0       -1.796055   -1.622288   -0.034233
      9          6           0       -0.820026    1.701370    0.181465
     10          7           0       -1.847062    2.269471    0.139949
     11          7           0        1.304854    1.272694   -0.915006
     12          1           0        0.874005    0.864995   -1.737342
     13          1           0        2.142336    0.691499   -0.686448
     14          9           0        2.848399   -0.511750    0.240354
 ---------------------------------------------------------------------

 SCF Done:  E(RHF) =  -628.465943904     A.U. after    2 cycles

 The electronic state is 1-A.
 Alpha  occ. eigenvalues --  -26.36596 -26.12552 -20.48940 -20.48264 -15.67830
 Alpha  occ. eigenvalues --  -15.41155 -15.35629 -11.25991 -11.20321 -11.17986
 Alpha  occ. eigenvalues --   -1.55923  -1.49386  -1.39505  -1.19334  -1.12039
 Alpha  occ. eigenvalues --   -1.08131  -0.99483  -0.86968  -0.76048  -0.70080
 Alpha  occ. eigenvalues --   -0.65433  -0.64994  -0.61522  -0.58464  -0.57607
 Alpha  occ. eigenvalues --   -0.53046  -0.51672  -0.49631  -0.47382  -0.44652
 Alpha  occ. eigenvalues --   -0.39527  -0.39112  -0.38608  -0.37928  -0.34396
 Alpha  occ. eigenvalues --   -0.32778  -0.29036  -0.28500  -0.27786
 Alpha virt. eigenvalues --    0.14152   0.15423   0.15950   0.16872   0.18058
 Alpha virt. eigenvalues --    0.18243   0.21115   0.22038   0.22563   0.22894
 Alpha virt. eigenvalues --    0.24479   0.24995   0.26034   0.26248   0.27061

 Mulliken charges:
               1
     1  C    1.204535
     2  C   -1.080912
     3  F   -0.841570
     4  H    0.177085
     5  H    0.272057
     6  N    2.661173
     7  O   -1.500886
     8  O   -1.368001
     9  C   -1.571431
    10  N    0.915998
    11  N    0.614201
    12  H    0.247550
    13  H    0.263492
    14  F   -0.993292
 Sum of Mulliken charges =  -1.00000

 Dipole moment (field-independent basis, Debye):
    X=             -3.0521    Y=             -0.7744    Z=              0.3906  Tot=              3.1730

 Test job not archived.
 1\1\GINC-SE332\SP\RHF\Aug-CC-pVDZ\C3H4F2N3O2(1-)\OHZDE\09-Apr-2025\0\\
 #t hf aug-cc-pvdz iop(5/13=1,5/36=2,99/5=2) pseudo=read geom=check gue
 ss=(read,tcheck) scf=(maxcycle=1)\\title\\-1,1\C,0,-0.309917,0.075331,
 0.06318\C,0,-0.415989,-0.114553,-1.459459\F,0,0.545217,-0.856458,0.588
 27\H,0,-0.59963,-1.189961,-1.543736\H,0,-1.353052,-0.052674,0.429194\N
 ,0,0.241742,1.423618,0.405522\O,0,-0.399409,2.385045,-0.021902\O,0,1.2
 67609,1.502207,1.074195\C,0,0.866861,0.190114,-2.113857\N,0,1.892538,0
 .448587,-2.624194\N,0,-1.534713,0.5549,-2.091547\H,0,-1.449308,1.54649

 Normal termination of Gaussian 16 at Wed Apr  9 02:43:07 2025.
