 Gaussian 16, Revision C.01,

 ----------------------------------------------------------------------
 #t hf aug-cc-pvdz symm=none int=(grid=ultrafine) guess=(read,tcheck) s
 table=(opt,rrhf)
 ----------------------------------------------------------------------
 -----
 title
 -----
 Symbolic Z-matrix:
 Charge = -1 Multiplicity = 1

 SCF Done:  E(RHF) =  -931.151823383     A.U. after   16 cycles
 Normal termination of Gaussian 16 at Wed Apr  9 02:58:41 2025.
 Gaussian 16:  ES64L-G16RevC.01  3-Jul-2019

 ----------------------------------------------------------------------
 #t hf aug-cc-pvdz iop(5/13=1,5/36=2,99/5=2) pseudo=read geom=check gue
 ss=(read,tcheck) scf=(maxcycle=1)
 ----------------------------------------------------------------------
 -----
 title
 -----
 Structure from the checkpoint file:  "E2SN2_396_mol1.chk"
 Charge = -1 Multiplicity = 1

                         Standard orientation:
 ---------------------------------------------------------------------
 Center     Atomic      Atomic             Coordinates (Angstroms)
 Number     Number       Type             X           Y           Z
 ---------------------------------------------------------------------
      1          6           0        0.510389    0.026853    0.399413
      2          1           0       -0.504060   -1.668249    0.973338
      3         17           0       -0.617268    1.911045   -0.228916
      4          9           0        1.633243   -1.459103    0.760857
      5          6           0       -0.565668   -1.020910    0.090656
      6          7           0        0.622066    0.444148    1.761471
      7          1           0        0.696566    1.449615    1.805800
      8          1           0        1.455221   -0.007782    2.116761
      9          6           0        1.508267    0.367951   -0.601358
     10          7           0        2.374127    0.650334   -1.346178
     11          7           0       -0.229014   -1.704311   -1.152963
     12          1           0       -0.928782   -2.411545   -1.344784
     13          1           0        0.658055   -2.158539   -0.960212
     14          6           0       -1.960506   -0.564145    0.031236
     15          7           0       -3.129683   -0.449862    0.013850
 ---------------------------------------------------------------------

 SCF Done:  E(RHF) =  -931.689650307     A.U. after    2 cycles

 The electronic state is 1-A.
 Alpha  occ. eigenvalues -- -105.35176 -26.20326 -15.39514 -15.39444 -15.38857
 Alpha  occ. eigenvalues --  -15.38576 -11.30664 -11.20798 -11.17087 -11.16977
 Alpha  occ. eigenvalues --  -10.40025  -7.56850  -7.56677  -7.56662  -1.28953
 Alpha  occ. eigenvalues --   -1.12755  -1.10443  -1.08226  -1.08140  -0.91283
 Alpha  occ. eigenvalues --   -0.83518  -0.79930  -0.66491  -0.62925  -0.60549
 Alpha  occ. eigenvalues --   -0.56166  -0.54714  -0.52163  -0.48355  -0.47968
 Alpha  occ. eigenvalues --   -0.43358  -0.39654  -0.38597  -0.37966  -0.36439
 Alpha  occ. eigenvalues --   -0.35907  -0.35327  -0.34021  -0.33583  -0.27577
 Alpha  occ. eigenvalues --   -0.27177  -0.26442
 Alpha virt. eigenvalues --    0.12781   0.13407   0.14430   0.15838   0.16414
 Alpha virt. eigenvalues --    0.18418   0.19452   0.20309   0.21462   0.22171
 Alpha virt. eigenvalues --    0.23587   0.23809   0.24789   0.25431   0.25525

 Mulliken charges:
               1
     1  C   -0.482762
     2  H    0.419689
     3  Cl  -0.456567
     4  F   -0.903708
     5  C    0.053567
     6  N    0.689382
     7  H    0.284542
     8  H    0.321790
     9  C   -1.886463
    10  N    1.072080
    11  N    0.513357
    12  H    0.098696
    13  H    0.293505
    14  C   -2.067795
    15  N    1.050685
 Sum of Mulliken charges =  -1.00000

 Dipole moment (field-independent basis, Debye):
    X=              0.5008    Y=             -3.3607    Z=              2.8300  Tot=              4.4220

 Test job not archived.
 1\1\GINC-SE114\SP\RHF\Aug-CC-pVDZ\C4H5Cl1F1N4(1-)\OHZDE\09-Apr-2025\0\
 \#t hf aug-cc-pvdz iop(5/13=1,5/36=2,99/5=2) pseudo=read geom=check gu
 ess=(read,tcheck) scf=(maxcycle=1)\\title\\-1,1\C,0,0.48239795,-0.0796
 239,-0.03953628\H,0,1.50709647,1.58848,-0.67143212\Cl,0,-1.71813123,-0
 .37573995,-0.57486328\F,0,2.25859648,0.02994092,0.61820315\C,0,0.55866
 103,1.44851508,-0.13959435\N,0,0.94603074,-0.81689181,-1.17235964\H,0,
 0.28882174,-1.54951827,-1.39555104\H,0,1.84623524,-1.1927235,-0.902174
 96\C,0,0.19154934,-0.71600161,1.23485858\N,0,0.01305005,-1.29384594,2.

 Normal termination of Gaussian 16 at Wed Apr  9 02:58:49 2025.
