 Gaussian 16, Revision C.01,

 ----------------------------------------------------------------------
 #t hf aug-cc-pvdz symm=none int=(grid=ultrafine) guess=(read,tcheck) s
 table=(opt,rrhf)
 ----------------------------------------------------------------------
 -----
 title
 -----
 Symbolic Z-matrix:
 Charge = -1 Multiplicity = 1

 SCF Done:  E(RHF) =  -1000.70617761     A.U. after   17 cycles
 Normal termination of Gaussian 16 at Wed Apr  9 02:41:59 2025.
 Gaussian 16:  ES64L-G16RevC.01  3-Jul-2019

 ----------------------------------------------------------------------
 #t hf aug-cc-pvdz iop(5/13=1,5/36=2,99/5=2) pseudo=read geom=check gue
 ss=(read,tcheck) scf=(maxcycle=1)
 ----------------------------------------------------------------------
 -----
 title
 -----
 Structure from the checkpoint file:  "E2SN2_1_mol1.chk"
 Charge = -1 Multiplicity = 1

                         Standard orientation:
 ---------------------------------------------------------------------
 Center     Atomic      Atomic             Coordinates (Angstroms)
 Number     Number       Type             X           Y           Z
 ---------------------------------------------------------------------
      1          6           0        0.558250    0.418398    0.559302
      2          6           0       -0.933935    0.230597    0.594905
      3         17           0        1.144335    1.649900   -0.579298
      4          1           0       -1.235077    0.079390    3.014862
      5          1           0       -1.111072   -0.303760    1.636277
      6          1           0        0.812999    0.752111    1.571637
      7          7           0        1.327493   -0.879425    0.381391
      8          8           0        2.335724   -0.901462   -0.310386
      9          8           0        0.890039   -1.811708    1.044539
     10          7           0       -1.684325    1.417854    0.785154
     11          1           0       -1.210431    2.239579    0.436523
     12          1           0       -1.819932    1.469880    1.805240
     13          7           0       -1.430336   -0.560779   -0.549735
     14          8           0       -2.638987   -0.780833   -0.607644
     15          8           0       -0.602514   -1.008875   -1.358933
 ---------------------------------------------------------------------

 SCF Done:  E(RHF) =  -1001.31053929     A.U. after    2 cycles

 The electronic state is 1-A.
 Alpha  occ. eigenvalues -- -105.47829 -20.48536 -20.48170 -20.46130 -20.46041
 Alpha  occ. eigenvalues --  -15.68433 -15.65436 -15.37737 -11.26635 -11.19561
 Alpha  occ. eigenvalues --  -10.52693  -7.69650  -7.69257  -7.69234  -1.55975
 Alpha  occ. eigenvalues --   -1.52823  -1.39932  -1.36715  -1.12673  -1.04740
 Alpha  occ. eigenvalues --   -0.95300  -0.92553  -0.79331  -0.72217  -0.69032
 Alpha  occ. eigenvalues --   -0.65358  -0.64547  -0.63701  -0.61711  -0.60464
 Alpha  occ. eigenvalues --   -0.56533  -0.52844  -0.51004  -0.41738  -0.40255
 Alpha  occ. eigenvalues --   -0.39730  -0.37992  -0.36769  -0.36102  -0.35345
 Alpha  occ. eigenvalues --   -0.34392  -0.33514  -0.31805  -0.13100
 Alpha virt. eigenvalues --    0.13396   0.14388   0.16138   0.17314   0.17630
 Alpha virt. eigenvalues --    0.18421   0.19104   0.20017   0.21865   0.23201
 Alpha virt. eigenvalues --    0.23747   0.24711   0.25223   0.25887   0.26155

 Mulliken charges:
               1
     1  C   -0.224220
     2  C   -2.257104
     3  Cl   0.021357
     4  H   -0.550473
     5  H    0.247037
     6  H    0.301148
     7  N    3.096437
     8  O   -1.501743
     9  O   -1.524771
    10  N    0.816498
    11  H    0.230444
    12  H    0.342861
    13  N    2.940315
    14  O   -1.486297
    15  O   -1.451488
 Sum of Mulliken charges =  -1.00000

 Dipole moment (field-independent basis, Debye):
    X=              4.4009    Y=              3.4368    Z=             -5.1290  Tot=              7.5820

 Test job not archived.
 1\1\GINC-SE023\SP\RHF\Aug-CC-pVDZ\C2H5Cl1N3O4(1-)\OHZDE\09-Apr-2025\0\
 \#t hf aug-cc-pvdz iop(5/13=1,5/36=2,99/5=2) pseudo=read geom=check gu
 ess=(read,tcheck) scf=(maxcycle=1)\\title\\-1,1\C,0,-0.18742704,0.1094
 7986,-0.29813864\C,0,-0.11799772,0.12036689,1.2045976\Cl,0,1.34667056,
 -0.22515052,-1.12944272\H,0,-2.16326765,-1.12757931,1.6833926\H,0,-1.2
 4720217,-0.0328263,1.52522419\H,0,-0.87823441,-0.7088455,-0.5309742\N,
 0,-0.85035258,1.34519197,-0.88232708\O,0,-0.42551714,1.83278566,-1.920
 27604\O,0,-1.84795308,1.70975989,-0.27227246\N,0,0.47197853,-1.0292784

 Normal termination of Gaussian 16 at Wed Apr  9 02:42:07 2025.
