 Gaussian 16, Revision C.01,

 ----------------------------------------------------------------------
 #t hf aug-cc-pvdz symm=none int=(grid=ultrafine) guess=(read,tcheck) s
 table=(opt,rrhf)
 ----------------------------------------------------------------------
 -----
 title
 -----
 Symbolic Z-matrix:
 Charge = -1 Multiplicity = 1

 SCF Done:  E(RHF) =  -684.552544773     A.U. after   15 cycles
 Normal termination of Gaussian 16 at Wed Apr  9 02:41:59 2025.
 Gaussian 16:  ES64L-G16RevC.01  3-Jul-2019

 ----------------------------------------------------------------------
 #t hf aug-cc-pvdz iop(5/13=1,5/36=2,99/5=2) pseudo=read geom=check gue
 ss=(read,tcheck) scf=(maxcycle=1)
 ----------------------------------------------------------------------
 -----
 title
 -----
 Structure from the checkpoint file:  "E2SN2_211_mol1.chk"
 Charge = -1 Multiplicity = 1

                         Standard orientation:
 ---------------------------------------------------------------------
 Center     Atomic      Atomic             Coordinates (Angstroms)
 Number     Number       Type             X           Y           Z
 ---------------------------------------------------------------------
      1          6           0       -0.432686    0.331959   -0.323735
      2          1           0        0.795466    1.453763    1.024904
      3          9           0        0.108575   -1.240323   -0.834056
      4          9           0       -1.143899    1.836178    0.191377
      5          6           0        0.678423    0.430268    0.679617
      6          1           0       -0.361331    0.697046   -1.329537
      7          1           0        0.485839   -0.253888    1.498941
      8          7           0       -1.709504   -0.315355    0.061624
      9          8           0       -1.825206   -0.739562    1.207365
     10          8           0       -2.575744   -0.377018   -0.801468
     11          7           0        1.989691    0.046014    0.088736
     12          8           0        2.692318   -0.747665    0.711246
     13          8           0        2.328908    0.620796   -0.941895
 ---------------------------------------------------------------------

 SCF Done:  E(RHF) =  -685.201473162     A.U. after    2 cycles

 The electronic state is 1-A.
 Alpha  occ. eigenvalues --  -26.20885 -26.20665 -20.46897 -20.46583 -20.45237
 Alpha  occ. eigenvalues --  -20.45208 -15.66420 -15.65838 -11.28170 -11.18809
 Alpha  occ. eigenvalues --   -1.53963  -1.52970  -1.37773  -1.36664  -1.30350
 Alpha  occ. eigenvalues --   -1.29015  -1.02290  -0.95629  -0.79226  -0.72006
 Alpha  occ. eigenvalues --   -0.66257  -0.65774  -0.63293  -0.62333  -0.60491
 Alpha  occ. eigenvalues --   -0.59997  -0.51062  -0.49200  -0.43636  -0.39372
 Alpha  occ. eigenvalues --   -0.38793  -0.37651  -0.36723  -0.36192  -0.35049
 Alpha  occ. eigenvalues --   -0.35020  -0.34731  -0.32564  -0.31025  -0.30347
 Alpha virt. eigenvalues --    0.14333   0.15636   0.15671   0.18778   0.20186
 Alpha virt. eigenvalues --    0.21177   0.22276   0.23121   0.24352   0.25464
 Alpha virt. eigenvalues --    0.25749   0.26735   0.27367   0.28435   0.29719

 Mulliken charges:
               1
     1  C    0.613958
     2  H    0.254687
     3  F   -0.892349
     4  F   -0.912522
     5  C   -0.349111
     6  H   -0.087996
     7  H    0.240740
     8  N    3.464087
     9  O   -1.628359
    10  O   -1.599517
    11  N    2.756124
    12  O   -1.420271
    13  O   -1.439470
 Sum of Mulliken charges =  -1.00000

 Dipole moment (field-independent basis, Debye):
    X=              1.8383    Y=              1.1288    Z=              1.4785  Tot=              2.6152

 Test job not archived.
 1\1\GINC-SE460\SP\RHF\Aug-CC-pVDZ\C2H3F2N2O4(1-)\OHZDE\09-Apr-2025\0\\
 #t hf aug-cc-pvdz iop(5/13=1,5/36=2,99/5=2) pseudo=read geom=check gue
 ss=(read,tcheck) scf=(maxcycle=1)\\title\\-1,1\C,0,0.62292512,-0.07410
 095,0.02156071\H,0,1.90272169,1.57414718,0.5022129\F,0,-1.0895463,0.20
 615356,-0.09826457\F,0,2.31910861,-0.46948866,-0.00009993\C,0,0.893321
 47,1.39676378,0.14150572\H,0,0.47091241,-0.72250336,0.86208758\H,0,0.7
 1546793,1.8751979,-0.8155309\N,0,0.53958553,-0.69409369,-1.32247925\O,
 0,0.71372433,0.01985595,-2.30533903\O,0,0.30552539,-1.89533598,-1.3589

 Normal termination of Gaussian 16 at Wed Apr  9 02:42:04 2025.
