 Gaussian 16, Revision C.01,

 ----------------------------------------------------------------------
 #t hf aug-cc-pvdz symm=none int=(grid=ultrafine) guess=(read,tcheck) s
 table=(opt,rrhf)
 ----------------------------------------------------------------------
 -----
 title
 -----
 Symbolic Z-matrix:
 Charge = -1 Multiplicity = 1

 SCF Done:  E(RHF) =  -528.849050459     A.U. after   18 cycles
 Normal termination of Gaussian 16 at Wed Apr  9 03:01:21 2025.
 Gaussian 16:  ES64L-G16RevC.01  3-Jul-2019

 ----------------------------------------------------------------------
 #t hf aug-cc-pvdz iop(5/13=1,5/36=2,99/5=2) pseudo=read geom=check gue
 ss=(read,tcheck) scf=(maxcycle=1)
 ----------------------------------------------------------------------
 -----
 title
 -----
 Structure from the checkpoint file:  "E2SN2_61_mol1.chk"
 Charge = -1 Multiplicity = 1

                         Standard orientation:
 ---------------------------------------------------------------------
 Center     Atomic      Atomic             Coordinates (Angstroms)
 Number     Number       Type             X           Y           Z
 ---------------------------------------------------------------------
      1          6           0        0.072425   -0.090652    0.255432
      2          6           0        0.786983   -1.053093   -0.594445
      3          9           0        0.002930   -0.421238    1.625420
      4          1           0        1.507486   -0.070832   -2.727335
      5          1           0        0.868956   -0.571971   -1.757972
      6          1           0        0.249906   -2.006863   -0.583279
      7          6           0        0.633419    1.266073    0.204736
      8          7           0        1.133260    2.328650    0.228366
      9          7           0       -1.379959   -0.038139   -0.200184
     10          8           0       -2.091284   -0.969486    0.163561
     11          8           0       -1.712307    0.880806   -0.944523
     12          7           0        2.201822   -1.167473   -0.322566
     13          1           0        2.462413   -0.838114    0.597394
     14          1           0        2.670781   -0.606867   -1.043542
 ---------------------------------------------------------------------

 SCF Done:  E(RHF) =  -529.361026540     A.U. after    2 cycles

 The electronic state is 1-A.
 Alpha  occ. eigenvalues --  -26.37835 -20.49788 -20.49569 -15.69078 -15.43012
 Alpha  occ. eigenvalues --  -15.35803 -11.32069 -11.19449 -11.11677  -1.56820
 Alpha  occ. eigenvalues --   -1.49742  -1.40698  -1.12861  -1.07255  -1.01461
 Alpha  occ. eigenvalues --   -0.84210  -0.78144  -0.71657  -0.66714  -0.64031
 Alpha  occ. eigenvalues --   -0.62831  -0.58605  -0.55313  -0.53305  -0.52395
 Alpha  occ. eigenvalues --   -0.49145  -0.46635  -0.41863  -0.40632  -0.39449
 Alpha  occ. eigenvalues --   -0.38485  -0.38204  -0.34944  -0.30505  -0.10905
 Alpha virt. eigenvalues --    0.13936   0.14752   0.15720   0.17272   0.17570
 Alpha virt. eigenvalues --    0.18782   0.20283   0.20626   0.22128   0.22433
 Alpha virt. eigenvalues --    0.22841   0.23989   0.24784   0.25290   0.26189

 Mulliken charges:
               1
     1  C    1.666225
     2  C   -1.394831
     3  F   -0.986216
     4  H   -0.574804
     5  H    0.366341
     6  H   -0.049375
     7  C   -1.766116
     8  N    0.967531
     9  N    2.692754
    10  O   -1.416174
    11  O   -1.375174
    12  N    0.453850
    13  H    0.138229
    14  H    0.277760
 Sum of Mulliken charges =  -1.00000

 Dipole moment (field-independent basis, Debye):
    X=             -3.9996    Y=             -1.3145    Z=              7.7434  Tot=              8.8139

 Test job not archived.
 1\1\GINC-SE041\SP\RHF\Aug-CC-pVDZ\C3H5F1N3O2(1-)\OHZDE\09-Apr-2025\0\\
 #t hf aug-cc-pvdz iop(5/13=1,5/36=2,99/5=2) pseudo=read geom=check gue
 ss=(read,tcheck) scf=(maxcycle=1)\\title\\-1,1\C,0,-0.10732083,-0.0202
 5566,-0.3241171\C,0,-0.18718396,0.13905229,1.13445029\F,0,1.19410961,-
 0.15576087,-0.85222861\H,0,-2.41709135,-0.39045786,2.01780542\H,0,-1.4
 0359165,0.1298402,1.46950429\H,0,0.30833401,1.07262164,1.41934241\C,0,
 -0.86085916,-1.17531499,-0.83008713\N,0,-1.39317785,-2.14562116,-1.223
 29486\N,0,-0.65430871,1.24451159,-0.97290948\O,0,0.09976116,2.21248446

 Normal termination of Gaussian 16 at Wed Apr  9 03:01:28 2025.
