 Gaussian 16, Revision C.01,

 ----------------------------------------------------------------------
 #t hf aug-cc-pvdz symm=none int=(grid=ultrafine) guess=(read,tcheck) s
 table=(opt,rrhf)
 ----------------------------------------------------------------------
 -----
 title
 -----
 Symbolic Z-matrix:
 Charge = -1 Multiplicity = 1

 SCF Done:  E(RHF) =  -364.437719439     A.U. after   16 cycles
 Normal termination of Gaussian 16 at Wed Apr  9 02:40:47 2025.
 Gaussian 16:  ES64L-G16RevC.01  3-Jul-2019

 ----------------------------------------------------------------------
 #t hf aug-cc-pvdz iop(5/13=1,5/36=2,99/5=2) pseudo=read geom=check gue
 ss=(read,tcheck) scf=(maxcycle=1)
 ----------------------------------------------------------------------
 -----
 title
 -----
 Structure from the checkpoint file:  "E2SN2_190_mol2.chk"
 Charge = -1 Multiplicity = 1

                         Standard orientation:
 ---------------------------------------------------------------------
 Center     Atomic      Atomic             Coordinates (Angstroms)
 Number     Number       Type             X           Y           Z
 ---------------------------------------------------------------------
      1          6           0        1.003664    0.183849    0.100110
      2          6           0       -0.449326    0.472699    0.450469
      3          9           0        1.140317    0.151074   -1.305140
      4          1           0       -0.445368    0.612124    1.546686
      5          1           0        1.559605    1.050898    0.464966
      6          6           0        1.546976   -1.110031    0.655846
      7          1           0        1.493384   -1.086655    1.746938
      8          1           0        2.591514   -1.236639    0.360960
      9          1           0        0.972434   -1.962111    0.285233
     10          6           0       -1.316259   -0.653397    0.075012
     11          7           0       -1.982782   -1.574341   -0.223562
     12          7           0       -0.943466    1.730795   -0.081792
     13          1           0       -0.554578    2.408668    0.603656
     14          1           0       -0.500464    1.888740   -0.980551
     15          1           0        0.394026    2.511410    2.167235
 ---------------------------------------------------------------------

 SCF Done:  E(RHF) =  -364.807545389     A.U. after    2 cycles

 The electronic state is 1-A.
 Alpha  occ. eigenvalues --  -26.32840 -15.39073 -15.34863 -11.20073 -11.16624
 Alpha  occ. eigenvalues --  -11.16287 -11.12696  -1.44732  -1.10169  -1.06222
 Alpha  occ. eigenvalues --   -0.93861  -0.83190  -0.73376  -0.61934  -0.57931
 Alpha  occ. eigenvalues --   -0.56384  -0.54038  -0.50994  -0.48358  -0.46443
 Alpha  occ. eigenvalues --   -0.45219  -0.44148  -0.41786  -0.38793  -0.36924
 Alpha  occ. eigenvalues --   -0.35759  -0.31245  -0.10136
 Alpha virt. eigenvalues --    0.12025   0.13886   0.14350   0.15032   0.16869
 Alpha virt. eigenvalues --    0.17836   0.18858   0.19735   0.20995   0.22251
 Alpha virt. eigenvalues --    0.24155   0.24276   0.24732   0.25043   0.25963

 Mulliken charges:
               1
     1  C    1.453819
     2  C   -1.682915
     3  F   -0.890005
     4  H    0.153273
     5  H    0.122750
     6  C   -0.393589
     7  H    0.224414
     8  H    0.141762
     9  H    0.288538
    10  C   -1.814386
    11  N    0.897116
    12  N    0.758836
    13  H    0.285289
    14  H    0.226322
    15  H   -0.771224
 Sum of Mulliken charges =  -1.00000

 Dipole moment (field-independent basis, Debye):
    X=              3.0707    Y=             -6.2794    Z=             -5.2947  Tot=              8.7689

 Test job not archived.
 1\1\GINC-SE188\SP\RHF\Aug-CC-pVDZ\C4H8F1N2(1-)\OHZDE\09-Apr-2025\0\\#t
  hf aug-cc-pvdz iop(5/13=1,5/36=2,99/5=2) pseudo=read geom=check guess
 =(read,tcheck) scf=(maxcycle=1)\\title\\-1,1\C,0,-0.113537,-0.071019,0
 .043285\C,0,-0.657848,-0.191279,-1.37327\F,0,1.266592,0.222282,-0.0175
 16\H,0,-1.750726,-0.28714,-1.240693\H,0,-0.617393,0.801561,0.466012\C,
 0,-0.296044,-1.299253,0.901357\H,0,-1.362173,-1.517319,0.999931\H,0,0.
 11785,-1.126607,1.897817\H,0,0.208107,-2.160493,0.456846\C,0,-0.112376
 ,-1.377272,-2.048927\N,0,0.329537,-2.339566,-2.559067\N,0,-0.484997,1.

 Normal termination of Gaussian 16 at Wed Apr  9 02:40:53 2025.
