 Gaussian 16, Revision C.01,

 ----------------------------------------------------------------------
 #t hf aug-cc-pvdz symm=none int=(grid=ultrafine) guess=(read,tcheck) s
 table=(opt,rrhf)
 ----------------------------------------------------------------------
 -----
 title
 -----
 Symbolic Z-matrix:
 Charge = -1 Multiplicity = 1

 SCF Done:  E(RHF) =  -876.218077273     A.U. after   15 cycles
 Normal termination of Gaussian 16 at Wed Apr  9 02:57:51 2025.
 Gaussian 16:  ES64L-G16RevC.01  3-Jul-2019

 ----------------------------------------------------------------------
 #t hf aug-cc-pvdz iop(5/13=1,5/36=2,99/5=2) pseudo=read geom=check gue
 ss=(read,tcheck) scf=(maxcycle=1)
 ----------------------------------------------------------------------
 -----
 title
 -----
 Structure from the checkpoint file:  "E2SN2_383_mol2.chk"
 Charge = -1 Multiplicity = 1

                         Standard orientation:
 ---------------------------------------------------------------------
 Center     Atomic      Atomic             Coordinates (Angstroms)
 Number     Number       Type             X           Y           Z
 ---------------------------------------------------------------------
      1          6           0       -0.494206   -0.599609   -0.449231
      2          6           0       -0.243567    0.897949   -0.297777
      3          9           0       -1.570879   -0.766279   -1.340271
      4          1           0        0.577286    1.062668    0.408546
      5          1           0        0.110946    1.254779   -1.268158
      6          7           0        0.656990   -1.218150   -0.970838
      7          1           0        0.688679   -2.205730   -0.758355
      8          1           0        1.518177   -0.758069   -0.641316
      9          6           0       -0.989821   -1.191401    0.824194
     10          7           0       -1.348596   -1.701416    1.819806
     11          6           0       -1.450118    1.621401    0.085508
     12          7           0       -2.414607    2.219891    0.383427
     13         17           0        3.061917    0.474738    0.277576
 ---------------------------------------------------------------------

 SCF Done:  E(RHF) =  -876.699075280     A.U. after    2 cycles

 The electronic state is 1-A.
 Alpha  occ. eigenvalues -- -105.30243 -26.36691 -15.43621 -15.42261 -15.39754
 Alpha  occ. eigenvalues --  -11.31272 -11.19836 -11.19531 -11.18824 -10.34867
 Alpha  occ. eigenvalues --   -7.51642  -7.51603  -7.51585  -1.49364  -1.14532
 Alpha  occ. eigenvalues --   -1.12730  -1.11575  -0.97364  -0.83894  -0.75883
 Alpha  occ. eigenvalues --   -0.70415  -0.65189  -0.62680  -0.57505  -0.55855
 Alpha  occ. eigenvalues --   -0.53670  -0.52337  -0.50435  -0.48963  -0.47316
 Alpha  occ. eigenvalues --   -0.41899  -0.41273  -0.39206  -0.39028  -0.36781
 Alpha  occ. eigenvalues --   -0.23282  -0.22726  -0.22546
 Alpha virt. eigenvalues --    0.13137   0.14057   0.15670   0.17397   0.17708
 Alpha virt. eigenvalues --    0.18517   0.18835   0.21460   0.21585   0.23058
 Alpha virt. eigenvalues --    0.23323   0.23824   0.24624   0.25276   0.25433

 Mulliken charges:
               1
     1  C    0.426079
     2  C    0.635532
     3  F   -0.942648
     4  H    0.299195
     5  H    0.207756
     6  N    0.534897
     7  H    0.241916
     8  H    0.199641
     9  C   -1.806462
    10  N    0.914741
    11  C   -1.654338
    12  N    0.881100
    13  Cl  -0.937409
 Sum of Mulliken charges =  -1.00000

 Dipole moment (field-independent basis, Debye):
    X=             -4.4215    Y=             -2.1815    Z=             -3.4908  Tot=              6.0411

 Test job not archived.
 1\1\GINC-SE094\SP\RHF\Aug-CC-pVDZ\C4H4Cl1F1N3(1-)\OHZDE\09-Apr-2025\0\
 \#t hf aug-cc-pvdz iop(5/13=1,5/36=2,99/5=2) pseudo=read geom=check gu
 ess=(read,tcheck) scf=(maxcycle=1)\\title\\-1,1\C,0,0.040347,-0.050035
 ,0.017223\C,0,-0.565389,0.194913,-1.361734\F,0,1.412149,0.256054,-0.05
 6433\H,0,-1.631581,-0.055539,-1.343536\H,0,-0.50654,1.271379,-1.541746
 \N,0,-0.585167,0.786161,0.960317\H,0,-0.49812,0.430456,1.902317\H,0,-1
 .577903,0.941256,0.731575\C,0,0.015799,-1.498073,0.363698\N,0,-0.01809
 8,-2.626727,0.687843\C,0,0.148492,-0.522675,-2.411257\N,0,0.718692,-1.

 Normal termination of Gaussian 16 at Wed Apr  9 02:57:57 2025.
