 Gaussian 16, Revision C.01,

 ----------------------------------------------------------------------
 #t hf aug-cc-pvdz symm=none int=(grid=ultrafine) guess=(read,tcheck) s
 table=(opt,rrhf)
 ----------------------------------------------------------------------
 -----
 title
 -----
 Symbolic Z-matrix:
 Charge = -1 Multiplicity = 1

 SCF Done:  E(RHF) =  -891.288355395     A.U. after   17 cycles
 Normal termination of Gaussian 16 at Wed Apr  9 02:38:43 2025.
 Gaussian 16:  ES64L-G16RevC.01  3-Jul-2019

 ----------------------------------------------------------------------
 #t hf aug-cc-pvdz iop(5/13=1,5/36=2,99/5=2) pseudo=read geom=check gue
 ss=(read,tcheck) scf=(maxcycle=1)
 ----------------------------------------------------------------------
 -----
 title
 -----
 Structure from the checkpoint file:  "E2SN2_158_mol1.chk"
 Charge = -1 Multiplicity = 1

                         Standard orientation:
 ---------------------------------------------------------------------
 Center     Atomic      Atomic             Coordinates (Angstroms)
 Number     Number       Type             X           Y           Z
 ---------------------------------------------------------------------
      1          6           0       -0.843948    0.244085    0.305130
      2          6           0        0.488409   -0.401600    0.612813
      3         17           0       -1.352236   -0.200625   -1.448094
      4          1           0        0.340567   -0.296286    3.044696
      5          1           0        0.571669   -0.181479    1.866454
      6          7           0       -1.875804   -0.308888    1.162013
      7          1           0       -1.499297   -0.190397    2.111861
      8          1           0       -1.890023   -1.313029    1.013544
      9          6           0       -0.905300    1.751188    0.410381
     10          1           0       -1.946481    2.053142    0.285680
     11          1           0       -0.554496    2.034866    1.407205
     12          1           0       -0.275234    2.240517   -0.326462
     13          7           0        1.624082    0.203887   -0.088126
     14          8           0        2.344096   -0.488158   -0.816517
     15          8           0        1.843274    1.408324    0.129007
     16          7           0        0.540225   -1.815781    0.560172
     17          1           0       -0.024285   -2.227802   -0.170710
     18          1           0        0.312138   -2.186800    1.477066
 ---------------------------------------------------------------------

 SCF Done:  E(RHF) =  -891.808999284     A.U. after    2 cycles

 The electronic state is 1-A.
 Alpha  occ. eigenvalues -- -105.42088 -20.43750 -20.43142 -15.62951 -15.37218
 Alpha  occ. eigenvalues --  -15.36321 -11.22133 -11.15322 -11.10770 -10.46975
 Alpha  occ. eigenvalues --   -7.63879  -7.63576  -7.63565  -1.50064  -1.33684
 Alpha  occ. eigenvalues --   -1.12236  -1.06056  -0.95116  -0.91588  -0.86046
 Alpha  occ. eigenvalues --   -0.74286  -0.67609  -0.62931  -0.60436  -0.60118
 Alpha  occ. eigenvalues --   -0.57455  -0.56005  -0.53980  -0.49399  -0.43948
 Alpha  occ. eigenvalues --   -0.43192  -0.41554  -0.37418  -0.35987  -0.35192
 Alpha  occ. eigenvalues --   -0.33085  -0.32640  -0.31882  -0.31051  -0.29577
 Alpha  occ. eigenvalues --   -0.13092
 Alpha virt. eigenvalues --    0.13135   0.13617   0.14501   0.15470   0.15902
 Alpha virt. eigenvalues --    0.15985   0.17508   0.18226   0.20045   0.20682
 Alpha virt. eigenvalues --    0.21090   0.23292   0.25186   0.25506   0.25766

 Mulliken charges:
               1
     1  C   -1.980968
     2  C   -2.429677
     3  Cl  -0.195982
     4  H   -0.351257
     5  H    0.097592
     6  N    0.755788
     7  H    0.209067
     8  H    0.231868
     9  C    0.257623
    10  H    0.164535
    11  H    0.307321
    12  H    0.248130
    13  N    3.084473
    14  O   -1.441960
    15  O   -1.586726
    16  N    1.030113
    17  H    0.210941
    18  H    0.389121
 Sum of Mulliken charges =  -1.00000

 Dipole moment (field-independent basis, Debye):
    X=             -3.5237    Y=             -0.3098    Z=             -4.1206  Tot=              5.4306

 Test job not archived.
 1\1\GINC-SE250\SP\RHF\Aug-CC-pVDZ\C3H9Cl1N3O2(1-)\OHZDE\09-Apr-2025\0\
 \#t hf aug-cc-pvdz iop(5/13=1,5/36=2,99/5=2) pseudo=read geom=check gu
 ess=(read,tcheck) scf=(maxcycle=1)\\title\\-1,1\C,0,-0.24632065,0.0276
 9534,-0.31039349\C,0,-0.19203239,0.04233492,1.20076219\Cl,0,1.48961775
 ,-0.21868311,-0.98547303\H,0,-2.54362902,-0.45727986,1.60988681\H,0,-1
 .43587926,0.00204502,1.48044524\N,0,-1.00949493,-1.11696285,-0.7709124
 6\H,0,-1.9016998,-1.04009893,-0.26487859\H,0,-0.56912002,-1.94962725,-
 0.39238484\C,0,-0.80534205,1.26333259,-0.9788973\H,0,-0.89656405,1.054

 Normal termination of Gaussian 16 at Wed Apr  9 02:38:53 2025.
