 Gaussian 16, Revision C.01,

 ----------------------------------------------------------------------
 #t hf aug-cc-pvdz symm=none int=(grid=ultrafine) guess=(read,tcheck) s
 table=(opt,rrhf)
 ----------------------------------------------------------------------
 -----
 title
 -----
 Symbolic Z-matrix:
 Charge = -1 Multiplicity = 1

 SCF Done:  E(RHF) =  -852.266066504     A.U. after   16 cycles
 Normal termination of Gaussian 16 at Wed Apr  9 02:57:12 2025.
 Gaussian 16:  ES64L-G16RevC.01  3-Jul-2019

 ----------------------------------------------------------------------
 #t hf aug-cc-pvdz iop(5/13=1,5/36=2,99/5=2) pseudo=read geom=check gue
 ss=(read,tcheck) scf=(maxcycle=1)
 ----------------------------------------------------------------------
 -----
 title
 -----
 Structure from the checkpoint file:  "E2SN2_374_mol2.chk"
 Charge = -1 Multiplicity = 1

                         Standard orientation:
 ---------------------------------------------------------------------
 Center     Atomic      Atomic             Coordinates (Angstroms)
 Number     Number       Type             X           Y           Z
 ---------------------------------------------------------------------
      1          6           0        1.011610    0.204476    0.500719
      2          6           0       -0.439943   -0.159908    0.856372
      3         17           0        1.460348   -0.620959   -1.059320
      4          1           0       -0.658407    0.460502    1.729317
      5          1           0        1.576301   -0.276597    1.303166
      6          7           0        1.354886    1.589141    0.464216
      7          1           0        0.586145    2.125127    0.079733
      8          1           0        1.496495    1.862416    1.432462
      9          7           0       -0.671627   -1.515724    1.218208
     10          1           0       -0.181479   -2.132136    0.580515
     11          1           0       -0.225982   -1.566340    2.145117
     12          7           0       -1.357820    0.284622   -0.242986
     13          8           0       -1.486948    1.507446   -0.390872
     14          8           0       -1.886522   -0.557198   -0.960813
     15          1           0        0.860682   -0.292332    3.332996
 ---------------------------------------------------------------------

 SCF Done:  E(RHF) =  -852.741181275     A.U. after    2 cycles

 The electronic state is 1-A.
 Alpha  occ. eigenvalues -- -105.43771 -20.47999 -20.47082 -15.66363 -15.38272
 Alpha  occ. eigenvalues --  -15.36884 -11.21435 -11.20585 -10.48672  -7.65598
 Alpha  occ. eigenvalues --   -7.65255  -7.65246  -1.54348  -1.38203  -1.12864
 Alpha  occ. eigenvalues --   -1.08182  -0.95787  -0.93758  -0.79412  -0.72372
 Alpha  occ. eigenvalues --   -0.66123  -0.63675  -0.62932  -0.59430  -0.57081
 Alpha  occ. eigenvalues --   -0.54274  -0.51261  -0.45731  -0.42981  -0.38327
 Alpha  occ. eigenvalues --   -0.37587  -0.37287  -0.34571  -0.33894  -0.32785
 Alpha  occ. eigenvalues --   -0.30549  -0.11026
 Alpha virt. eigenvalues --    0.14021   0.14707   0.15650   0.16675   0.16990
 Alpha virt. eigenvalues --    0.17455   0.18390   0.19682   0.21441   0.22427
 Alpha virt. eigenvalues --    0.23719   0.24574   0.25706   0.26642   0.27039

 Mulliken charges:
               1
     1  C   -1.579730
     2  C   -1.658082
     3  Cl  -0.109800
     4  H    0.190739
     5  H    0.200907
     6  N    0.703282
     7  H    0.179473
     8  H    0.324153
     9  N    0.833047
    10  H    0.256270
    11  H    0.384993
    12  N    3.011086
    13  O   -1.535940
    14  O   -1.424501
    15  H   -0.775895
 Sum of Mulliken charges =  -1.00000

 Dipole moment (field-independent basis, Debye):
    X=             -1.2328    Y=              0.9497    Z=             -7.6434  Tot=              7.8003

 Test job not archived.
 1\1\GINC-SE127\SP\RHF\Aug-CC-pVDZ\C2H7Cl1N3O2(1-)\OHZDE\09-Apr-2025\0\
 \#t hf aug-cc-pvdz iop(5/13=1,5/36=2,99/5=2) pseudo=read geom=check gu
 ess=(read,tcheck) scf=(maxcycle=1)\\title\\-1,1\C,0,-0.097511,0.0857,0
 .015704\C,0,-0.580118,0.417832,-1.406635\Cl,0,1.686267,-0.277225,-0.03
 7714\H,0,-1.617832,0.730005,-1.263926\H,0,-0.618973,-0.851308,0.226232
 \N,0,-0.398675,1.021093,1.050502\H,0,-0.32221,1.966215,0.694175\H,0,-1
 .364867,0.84266,1.309089\N,0,-0.574552,-0.660081,-2.334489\H,0,0.28728
 6,-1.18602,-2.247975\H,0,-1.356747,-1.236547,-1.993638\N,0,0.17052,1.6

 Normal termination of Gaussian 16 at Wed Apr  9 02:57:18 2025.
