 Gaussian 16, Revision C.01,

 ----------------------------------------------------------------------
 #t hf aug-cc-pvdz symm=none int=(grid=ultrafine) guess=(read,tcheck) s
 table=(opt,rrhf)
 ----------------------------------------------------------------------
 -----
 title
 -----
 Symbolic Z-matrix:
 Charge = -1 Multiplicity = 1

 SCF Done:  E(RHF) =  -990.239266026     A.U. after   16 cycles
 Normal termination of Gaussian 16 at Wed Apr  9 02:36:54 2025.
 Gaussian 16:  ES64L-G16RevC.01  3-Jul-2019

 ----------------------------------------------------------------------
 #t hf aug-cc-pvdz iop(5/13=1,5/36=2,99/5=2) pseudo=read geom=check gue
 ss=(read,tcheck) scf=(maxcycle=1)
 ----------------------------------------------------------------------
 -----
 title
 -----
 Structure from the checkpoint file:  "E2SN2_133_mol2.chk"
 Charge = -1 Multiplicity = 1

                         Standard orientation:
 ---------------------------------------------------------------------
 Center     Atomic      Atomic             Coordinates (Angstroms)
 Number     Number       Type             X           Y           Z
 ---------------------------------------------------------------------
      1          6           0        0.593718    0.270840    0.296658
      2          6           0       -0.868718   -0.070040   -0.047196
      3         17           0        1.058841    1.803582   -0.488556
      4          1           0       -1.045373    0.183583   -1.093809
      5          7           0        0.903136    0.388308    1.689764
      6          1           0        0.744483   -0.513498    2.125977
      7          1           0        0.210330    1.045994    2.038797
      8          7           0        1.469711   -0.826834   -0.291990
      9          8           0        1.584931   -0.868444   -1.510795
     10          8           0        1.907885   -1.667213    0.491625
     11          7           0       -1.732687    0.786451    0.752688
     12          1           0       -2.649513    0.663079    0.213024
     13          1           0       -1.908366    0.284374    1.621912
     14          6           0       -1.211825   -1.549735    0.117138
     15          1           0       -2.280008   -1.563912   -0.123872
     16          1           0       -0.661931   -2.208729   -0.561892
     17          1           0       -1.050177   -1.888647    1.148556
     18          9           0       -3.651382   -0.079973   -0.684746
 ---------------------------------------------------------------------

 SCF Done:  E(RHF) =  -990.844995574     A.U. after    2 cycles

 The electronic state is 1-A.
 Alpha  occ. eigenvalues -- -105.45793 -26.09321 -20.49163 -20.49070 -15.68276
 Alpha  occ. eigenvalues --  -15.40668 -15.32488 -11.28004 -11.14375 -11.09292
 Alpha  occ. eigenvalues --  -10.50701  -7.67654  -7.67248  -7.67240  -1.56318
 Alpha  occ. eigenvalues --   -1.40277  -1.16298  -1.15121  -1.03924  -0.99618
 Alpha  occ. eigenvalues --   -0.92686  -0.85993  -0.76231  -0.71816  -0.66292
 Alpha  occ. eigenvalues --   -0.64679  -0.63583  -0.58737  -0.56980  -0.51466
 Alpha  occ. eigenvalues --   -0.48139  -0.46852  -0.44591  -0.42377  -0.40259
 Alpha  occ. eigenvalues --   -0.39302  -0.38051  -0.36573  -0.35097  -0.34224
 Alpha  occ. eigenvalues --   -0.33567  -0.30382  -0.25708  -0.25481  -0.24419
 Alpha virt. eigenvalues --    0.12555   0.13856   0.14642   0.15000   0.16085
 Alpha virt. eigenvalues --    0.16764   0.16945   0.18202   0.18907   0.19179
 Alpha virt. eigenvalues --    0.21195   0.24029   0.24255   0.24751   0.25019

 Mulliken charges:
               1
     1  C   -2.329599
     2  C   -1.239256
     3  Cl   0.077675
     4  H    0.080196
     5  N    0.871949
     6  H    0.320721
     7  H    0.322398
     8  N    3.231739
     9  O   -1.594379
    10  O   -1.493251
    11  N    0.725797
    12  H    0.290180
    13  H    0.257420
    14  C    0.003186
    15  H    0.181709
    16  H    0.157248
    17  H    0.139429
    18  F   -1.003163
 Sum of Mulliken charges =  -1.00000

 Dipole moment (field-independent basis, Debye):
    X=              8.1499    Y=             -0.5927    Z=              3.5163  Tot=              8.8959

 Test job not archived.
 1\1\GINC-SE455\SP\RHF\Aug-CC-pVDZ\C3H8Cl1F1N3O2(1-)\OHZDE\09-Apr-2025\
 0\\#t hf aug-cc-pvdz iop(5/13=1,5/36=2,99/5=2) pseudo=read geom=check
 guess=(read,tcheck) scf=(maxcycle=1)\\title\\-1,1\C,0,-0.711374,0.0309
 51,-1.553682\C,0,0.117676,0.0146,-0.25539\Cl,0,0.120076,-0.917756,-2.8
 1497\H,0,1.173232,0.100441,-0.51876\N,0,-2.050761,-0.465219,-1.452985\
 H,0,-2.563853,0.136435,-0.817804\H,0,-1.940459,-1.378679,-1.019651\N,0
 ,-0.775947,1.473544,-2.036915\O,0,0.251666,1.969094,-2.482936\O,0,-1.8
 2779,2.078835,-1.83808\N,0,-0.061195,-1.283649,0.378952\H,0,0.765635,-

 Normal termination of Gaussian 16 at Wed Apr  9 02:37:04 2025.
