 Gaussian 16, Revision C.01,

 ----------------------------------------------------------------------
 #t hf aug-cc-pvdz symm=none int=(grid=ultrafine) guess=(read,tcheck) s
 table=(opt,rrhf)
 ----------------------------------------------------------------------
 -----
 title
 -----
 Symbolic Z-matrix:
 Charge = -1 Multiplicity = 1

 SCF Done:  E(RHF) =  -461.049911987     A.U. after   15 cycles
 Normal termination of Gaussian 16 at Wed Apr  9 02:39:35 2025.
 Gaussian 16:  ES64L-G16RevC.01  3-Jul-2019

 ----------------------------------------------------------------------
 #t hf aug-cc-pvdz iop(5/13=1,5/36=2,99/5=2) pseudo=read geom=check gue
 ss=(read,tcheck) scf=(maxcycle=1)
 ----------------------------------------------------------------------
 -----
 title
 -----
 Structure from the checkpoint file:  "E2SN2_177_mol2.chk"
 Charge = -1 Multiplicity = 1

                         Standard orientation:
 ---------------------------------------------------------------------
 Center     Atomic      Atomic             Coordinates (Angstroms)
 Number     Number       Type             X           Y           Z
 ---------------------------------------------------------------------
      1          6           0        0.288627   -0.386367   -0.350454
      2          6           0       -0.629448    0.327720    0.625573
      3          9           0       -0.048998   -1.744155   -0.489702
      4          1           0       -0.246108    1.382488    0.442154
      5          1           0        0.221966    0.100541   -1.318323
      6          1           0       -0.451101   -0.008565    1.650248
      7          6           0        1.680921   -0.327415    0.117001
      8          7           0        2.776906   -0.469262    0.512518
      9          6           0       -2.028194    0.146039    0.282310
     10          7           0       -3.165658    0.024729    0.012596
     11          9           0        0.862894    2.086090   -0.454348
 ---------------------------------------------------------------------

 SCF Done:  E(RHF) =  -461.485425400     A.U. after    2 cycles

 The electronic state is 1-A.
 Alpha  occ. eigenvalues --  -26.34545 -26.10727 -15.39546 -15.39174 -11.24483
 Alpha  occ. eigenvalues --  -11.17239 -11.16646 -11.14198  -1.46560  -1.17417
 Alpha  occ. eigenvalues --   -1.10225  -1.09425  -0.96861  -0.82584  -0.64361
 Alpha  occ. eigenvalues --   -0.59851  -0.59293  -0.53669  -0.50453  -0.48655
 Alpha  occ. eigenvalues --   -0.47816  -0.44119  -0.43579  -0.38012  -0.37379
 Alpha  occ. eigenvalues --   -0.37076  -0.35263  -0.27214  -0.26939  -0.25337
 Alpha virt. eigenvalues --    0.13579   0.15340   0.16643   0.17737   0.19727
 Alpha virt. eigenvalues --    0.21087   0.21656   0.22867   0.24061   0.24396
 Alpha virt. eigenvalues --    0.24864   0.25557   0.26603   0.27700   0.27949

 Mulliken charges:
               1
     1  C    1.316251
     2  C   -0.077173
     3  F   -0.855657
     4  H    0.559257
     5  H    0.255005
     6  H    0.166158
     7  C   -1.708757
     8  N    0.905074
     9  C   -1.417371
    10  N    0.791169
    11  F   -0.933955
 Sum of Mulliken charges =  -1.00000

 Dipole moment (field-independent basis, Debye):
    X=             -1.7687    Y=             -4.2385    Z=              1.1006  Tot=              4.7228

 Test job not archived.
 1\1\GINC-SE126\SP\RHF\Aug-CC-pVDZ\C4H3F2N2(1-)\OHZDE\09-Apr-2025\0\\#t
  hf aug-cc-pvdz iop(5/13=1,5/36=2,99/5=2) pseudo=read geom=check guess
 =(read,tcheck) scf=(maxcycle=1)\\title\\-1,1\C,0,-0.044616,0.010958,0.
 022743\C,0,-0.543143,0.2858,-1.384859\F,0,1.356768,0.088651,0.10675\H,
 0,-1.654637,0.304786,-1.145382\H,0,-0.484947,0.735319,0.700757\H,0,-0.
 276295,-0.529614,-2.062166\C,0,-0.434396,-1.339999,0.451061\N,0,-0.558
 671,-2.457025,0.78951\C,0,-0.034782,1.543599,-1.901425\N,0,0.352743,2.
 56605,-2.332358\F,0,-2.58052,0.113884,0.133272\\Version=ES64L-G16RevC.

 Normal termination of Gaussian 16 at Wed Apr  9 02:39:40 2025.
