 Gaussian 16, Revision C.01,

 ----------------------------------------------------------------------
 #t hf aug-cc-pvdz symm=none int=(grid=ultrafine) guess=(read,tcheck) s
 table=(opt,rrhf)
 ----------------------------------------------------------------------
 -----
 title
 -----
 Symbolic Z-matrix:
 Charge = -1 Multiplicity = 1

 SCF Done:  E(RHF) =  -839.439797367     A.U. after   16 cycles
 Normal termination of Gaussian 16 at Wed Apr  9 02:42:00 2025.
 Gaussian 16:  ES64L-G16RevC.01  3-Jul-2019

 ----------------------------------------------------------------------
 #t hf aug-cc-pvdz iop(5/13=1,5/36=2,99/5=2) pseudo=read geom=check gue
 ss=(read,tcheck) scf=(maxcycle=1)
 ----------------------------------------------------------------------
 -----
 title
 -----
 Structure from the checkpoint file:  "E2SN2_207_mol1.chk"
 Charge = -1 Multiplicity = 1

                         Standard orientation:
 ---------------------------------------------------------------------
 Center     Atomic      Atomic             Coordinates (Angstroms)
 Number     Number       Type             X           Y           Z
 ---------------------------------------------------------------------
      1          6           0        0.387318   -0.424102   -0.355370
      2          1           0        0.040487    0.739075    1.408581
      3          9           0       -1.136095   -1.415542   -1.124049
      4         17           0        2.160655    0.861504    0.017982
      5          6           0       -0.564534    0.221849    0.662772
      6          1           0        0.413764   -0.083948   -1.375407
      7          7           0        0.968975   -1.658787    0.072983
      8          1           0        1.934872   -1.683246   -0.223064
      9          1           0        0.427620   -2.349375   -0.436159
     10          7           0       -1.435336   -0.716806    1.360133
     11          1           0       -0.808438   -1.327619    1.874727
     12          1           0       -1.811706   -1.280946    0.597977
     13          6           0       -1.375207    1.238613   -0.019861
     14          7           0       -2.017687    2.070195   -0.541852
 ---------------------------------------------------------------------

 SCF Done:  E(RHF) =  -839.898331310     A.U. after    2 cycles

 The electronic state is 1-A.
 Alpha  occ. eigenvalues -- -105.34766 -26.16174 -15.38265 -15.37432 -15.36119
 Alpha  occ. eigenvalues --  -11.24355 -11.18154 -11.15523 -10.39601  -7.56424
 Alpha  occ. eigenvalues --   -7.56269  -7.56253  -1.24296  -1.10467  -1.08293
 Alpha  occ. eigenvalues --   -1.05554  -0.88945  -0.81309  -0.72642  -0.62423
 Alpha  occ. eigenvalues --   -0.58792  -0.56588  -0.53562  -0.51907  -0.47784
 Alpha  occ. eigenvalues --   -0.45670  -0.37311  -0.36666  -0.35768  -0.34360
 Alpha  occ. eigenvalues --   -0.33562  -0.31776  -0.31672  -0.27230  -0.27006
 Alpha  occ. eigenvalues --   -0.25909
 Alpha virt. eigenvalues --    0.13231   0.14387   0.15432   0.16128   0.16556
 Alpha virt. eigenvalues --    0.17344   0.19476   0.20834   0.23263   0.24054
 Alpha virt. eigenvalues --    0.24341   0.25014   0.25801   0.27265   0.27620

 Mulliken charges:
               1
     1  C   -0.549255
     2  H    0.144207
     3  F   -0.924732
     4  Cl  -0.610770
     5  C   -0.431845
     6  H    0.064497
     7  N    0.413855
     8  H    0.227266
     9  H    0.270560
    10  N    0.509855
    11  H    0.258562
    12  H    0.283818
    13  C   -1.565186
    14  N    0.909168
 Sum of Mulliken charges =  -1.00000

 Dipole moment (field-independent basis, Debye):
    X=              2.1026    Y=             -3.3991    Z=              1.9719  Tot=              4.4568

 Test job not archived.
 1\1\GINC-SE412\SP\RHF\Aug-CC-pVDZ\C3H6Cl1F1N3(1-)\OHZDE\09-Apr-2025\0\
 \#t hf aug-cc-pvdz iop(5/13=1,5/36=2,99/5=2) pseudo=read geom=check gu
 ess=(read,tcheck) scf=(maxcycle=1)\\title\\-1,1\C,0,0.7872479,0.038908
 58,0.08559519\H,0,1.72181291,1.96375928,0.00599691\F,0,-1.16391557,-0.
 03090854,0.37316079\Cl,0,2.87452347,-0.20486154,-0.63603982\C,0,0.7047
 0031,1.56997267,-0.00882493\H,0,0.47953792,-0.5797601,-0.7386879\N,0,0
 .99568189,-0.46599344,1.40767248\H,0,1.64171319,-1.24169138,1.36145758
 \H,0,0.07191709,-0.79298064,1.67023689\N,0,-0.04103322,2.20544465,1.07

 Normal termination of Gaussian 16 at Wed Apr  9 02:42:06 2025.
