 Gaussian 16, Revision C.01,

 ----------------------------------------------------------------------
 #t hf aug-cc-pvdz symm=none int=(grid=ultrafine) guess=(read,tcheck) s
 table=(opt,rrhf)
 ----------------------------------------------------------------------
 -----
 title
 -----
 Symbolic Z-matrix:
 Charge = -1 Multiplicity = 1

 SCF Done:  E(RHF) =  -915.180790190     A.U. after   16 cycles
 Normal termination of Gaussian 16 at Wed Apr  9 03:02:51 2025.
 Gaussian 16:  ES64L-G16RevC.01  3-Jul-2019

 ----------------------------------------------------------------------
 #t hf aug-cc-pvdz iop(5/13=1,5/36=2,99/5=2) pseudo=read geom=check gue
 ss=(read,tcheck) scf=(maxcycle=1)
 ----------------------------------------------------------------------
 -----
 title
 -----
 Structure from the checkpoint file:  "E2SN2_87_mol1.chk"
 Charge = -1 Multiplicity = 1

                         Standard orientation:
 ---------------------------------------------------------------------
 Center     Atomic      Atomic             Coordinates (Angstroms)
 Number     Number       Type             X           Y           Z
 ---------------------------------------------------------------------
      1          6           0       -0.433604   -0.133007   -0.329436
      2          6           0        0.686260    0.338525    0.557149
      3         17           0       -0.727966   -1.969974   -0.179552
      4          9           0        0.471769    2.599848   -0.547155
      5          1           0        0.655477    1.641717    0.097921
      6          6           0       -1.702210    0.474811    0.107071
      7          7           0       -2.711751    0.952263    0.470882
      8          7           0       -0.256572    0.134393   -1.742902
      9          1           0        0.573014   -0.374435   -2.036255
     10          1           0       -0.025166    1.131811   -1.767146
     11          6           0        1.935964   -0.212046    0.115919
     12          7           0        2.978368   -0.627332   -0.249720
     13          6           0        0.456494    0.193193    2.052576
     14          1           0        0.330086   -0.852542    2.360828
     15          1           0        1.304323    0.610907    2.601958
     16          1           0       -0.435960    0.749340    2.351968
 ---------------------------------------------------------------------

 SCF Done:  E(RHF) =  -915.703399206     A.U. after    2 cycles

 The electronic state is 1-A.
 Alpha  occ. eigenvalues -- -105.44111 -26.19977 -15.40664 -15.38458 -15.37619
 Alpha  occ. eigenvalues --  -11.26301 -11.17713 -11.15518 -11.12051 -11.11187
 Alpha  occ. eigenvalues --  -10.48961  -7.65881  -7.65536  -7.65527  -1.28776
 Alpha  occ. eigenvalues --   -1.13430  -1.09805  -1.07977  -0.97175  -0.92088
 Alpha  occ. eigenvalues --   -0.82011  -0.77452  -0.61067  -0.59425  -0.56830
 Alpha  occ. eigenvalues --   -0.53199  -0.49915  -0.48658  -0.46071  -0.44743
 Alpha  occ. eigenvalues --   -0.44433  -0.43353  -0.39222  -0.38765  -0.37782
 Alpha  occ. eigenvalues --   -0.37167  -0.36472  -0.35774  -0.34009  -0.33926
 Alpha  occ. eigenvalues --   -0.33373  -0.22145
 Alpha virt. eigenvalues --    0.12890   0.14097   0.14635   0.15096   0.16962
 Alpha virt. eigenvalues --    0.17249   0.18374   0.18804   0.19993   0.22312
 Alpha virt. eigenvalues --    0.22609   0.23404   0.24411   0.24976   0.25406

 Mulliken charges:
               1
     1  C   -1.739230
     2  C   -0.268538
     3  Cl  -0.023645
     4  F   -1.067302
     5  H    1.190281
     6  C   -1.500876
     7  N    1.038297
     8  N    0.789100
     9  H    0.297644
    10  H    0.233819
    11  C   -1.681933
    12  N    0.949861
    13  C    0.160323
    14  H    0.250883
    15  H    0.142427
    16  H    0.228889
 Sum of Mulliken charges =  -1.00000

 Dipole moment (field-independent basis, Debye):
    X=             -0.8440    Y=             -3.2752    Z=              1.6412  Tot=              3.7594

 Test job not archived.
 1\1\GINC-SE459\SP\RHF\Aug-CC-pVDZ\C5H6Cl1F1N3(1-)\OHZDE\09-Apr-2025\0\
 \#t hf aug-cc-pvdz iop(5/13=1,5/36=2,99/5=2) pseudo=read geom=check gu
 ess=(read,tcheck) scf=(maxcycle=1)\\title\\-1,1\C,0,-0.14673911,0.0438
 3685,-0.33836116\C,0,-0.0682734,-0.01185667,1.16270908\Cl,0,1.54150663
 ,0.06707435,-1.13387748\F,0,-2.57457653,0.29776827,1.20330165\H,0,-1.4
 333955,0.08998071,1.35301884\C,0,-0.77185113,-1.18813095,-0.84907857\N
 ,0,-1.25773055,-2.17992511,-1.24877716\N,0,-0.86372756,1.18229265,-0.8
 7741268\H,0,-0.35552012,2.01341041,-0.58733694\H,0,-1.74754139,1.17102

 Normal termination of Gaussian 16 at Wed Apr  9 03:03:00 2025.
