 Gaussian 16, Revision C.01,

 ----------------------------------------------------------------------
 #t hf aug-cc-pvdz symm=none int=(grid=ultrafine) guess=(read,tcheck) s
 table=(opt,rrhf)
 ----------------------------------------------------------------------
 -----
 title
 -----
 Symbolic Z-matrix:
 Charge = -1 Multiplicity = 1

 SCF Done:  E(RHF) =  -935.191869146     A.U. after   16 cycles
 Normal termination of Gaussian 16 at Wed Apr  9 02:46:22 2025.
 Gaussian 16:  ES64L-G16RevC.01  3-Jul-2019

 ----------------------------------------------------------------------
 #t hf aug-cc-pvdz iop(5/13=1,5/36=2,99/5=2) pseudo=read geom=check gue
 ss=(read,tcheck) scf=(maxcycle=1)
 ----------------------------------------------------------------------
 -----
 title
 -----
 Structure from the checkpoint file:  "E2SN2_244_mol1.chk"
 Charge = -1 Multiplicity = 1

                         Standard orientation:
 ---------------------------------------------------------------------
 Center     Atomic      Atomic             Coordinates (Angstroms)
 Number     Number       Type             X           Y           Z
 ---------------------------------------------------------------------
      1          6           0       -0.131648   -0.163831    0.185396
      2          1           0       -1.143964    0.296848   -1.648329
      3          9           0        0.224272   -2.092243    0.329844
      4         17           0       -0.245223    2.031781    0.029957
      5          6           0       -1.170177   -0.469768   -0.875950
      6          1           0       -0.893700   -1.419404   -1.323758
      7          7           0        1.307136   -0.169976   -0.290689
      8          8           0        1.501474   -0.279395   -1.494335
      9          8           0        2.176358   -0.049427    0.563016
     10          7           0       -0.381578   -0.191381    1.572160
     11          1           0        0.113671    0.563712    2.022384
     12          1           0       -0.027514   -1.093448    1.868390
     13          6           0       -2.551438   -0.557541   -0.249166
     14          1           0       -2.569603   -1.362665    0.485390
     15          1           0       -2.808582    0.373977    0.256855
     16          1           0       -3.301953   -0.762187   -1.020217
 ---------------------------------------------------------------------

 SCF Done:  E(RHF) =  -935.742421441     A.U. after    2 cycles

 The electronic state is 1-A.
 Alpha  occ. eigenvalues -- -105.35690 -26.15454 -20.44430 -20.44333 -15.64761
 Alpha  occ. eigenvalues --  -15.36764 -11.29413 -11.10634 -11.09962 -10.40533
 Alpha  occ. eigenvalues --   -7.57374  -7.57175  -7.57166  -1.52033  -1.35954
 Alpha  occ. eigenvalues --   -1.23858  -1.09679  -0.95370  -0.89981  -0.82297
 Alpha  occ. eigenvalues --   -0.75311  -0.67874  -0.63998  -0.60393  -0.59842
 Alpha  occ. eigenvalues --   -0.57510  -0.50352  -0.50032  -0.42758  -0.39732
 Alpha  occ. eigenvalues --   -0.39494  -0.38509  -0.34290  -0.33419  -0.32433
 Alpha  occ. eigenvalues --   -0.31434  -0.31298  -0.30418  -0.27677  -0.27260
 Alpha  occ. eigenvalues --   -0.26864
 Alpha virt. eigenvalues --    0.12409   0.13880   0.14716   0.15074   0.16452
 Alpha virt. eigenvalues --    0.17106   0.17994   0.19175   0.21236   0.22073
 Alpha virt. eigenvalues --    0.24188   0.25103   0.25632   0.26580   0.27175

 Mulliken charges:
               1
     1  C   -2.614713
     2  H    0.186066
     3  F   -0.918640
     4  Cl  -0.512758
     5  C    0.378167
     6  H    0.286511
     7  N    3.625638
     8  O   -1.610935
     9  O   -1.603145
    10  N    0.787648
    11  H    0.343704
    12  H    0.456722
    13  C   -0.348188
    14  H    0.233952
    15  H    0.259732
    16  H    0.050239
 Sum of Mulliken charges =  -1.00000

 Dipole moment (field-independent basis, Debye):
    X=             -2.4954    Y=              0.3545    Z=              0.3157  Tot=              2.5401

 Test job not archived.
 1\1\GINC-SE113\SP\RHF\Aug-CC-pVDZ\C3H7Cl1F1N2O2(1-)\OHZDE\09-Apr-2025\
 0\\#t hf aug-cc-pvdz iop(5/13=1,5/36=2,99/5=2) pseudo=read geom=check
 guess=(read,tcheck) scf=(maxcycle=1)\\title\\-1,1\C,0,0.68402101,-0.03
 361,0.07627129\H,0,1.41860655,1.89924998,-0.49293461\F,0,-1.21228807,-
 0.23690786,-0.40226679\Cl,0,2.85894441,-0.02482392,0.43320693\C,0,0.52
 059132,1.46801763,-0.05411267\H,0,-0.3098334,1.63749226,-0.73267933\N,
 0,0.8538692,-0.7857293,-1.2284366\O,0,0.98399609,-0.12150911,-2.248428
 16\O,0,0.86428789,-2.00851602,-1.16864986\N,0,0.38192355,-0.76703141,1

 Normal termination of Gaussian 16 at Wed Apr  9 02:46:29 2025.
