 Gaussian 16, Revision C.01,

 ----------------------------------------------------------------------
 #t hf aug-cc-pvdz symm=none int=(grid=ultrafine) guess=(read,tcheck) s
 table=(opt,rrhf)
 ----------------------------------------------------------------------
 -----
 title
 -----
 Symbolic Z-matrix:
 Charge = -1 Multiplicity = 1

 SCF Done:  E(RHF) =  -722.143477937     A.U. after   15 cycles
 Normal termination of Gaussian 16 at Wed Apr  9 03:01:41 2025.
 Gaussian 16:  ES64L-G16RevC.01  3-Jul-2019

 ----------------------------------------------------------------------
 #t hf aug-cc-pvdz iop(5/13=1,5/36=2,99/5=2) pseudo=read geom=check gue
 ss=(read,tcheck) scf=(maxcycle=1)
 ----------------------------------------------------------------------
 -----
 title
 -----
 Structure from the checkpoint file:  "E2SN2_85_mol1.chk"
 Charge = -1 Multiplicity = 1

                         Standard orientation:
 ---------------------------------------------------------------------
 Center     Atomic      Atomic             Coordinates (Angstroms)
 Number     Number       Type             X           Y           Z
 ---------------------------------------------------------------------
      1          6           0       -0.459696   -0.137922    0.429517
      2          6           0        0.569514   -1.123834   -0.115296
      3         17           0       -0.175184    1.595155    0.040043
      4          1           0        0.029500   -2.188275    2.221545
      5          1           0        0.499657   -1.906122    0.743229
      6          1           0        0.286033   -1.544499   -1.081880
      7          6           0       -1.792462   -0.499010   -0.038658
      8          7           0       -2.858959   -0.786772   -0.437756
      9          6           0        1.916776   -0.598477   -0.174769
     10          7           0        3.028649   -0.220602   -0.233009
     11          1           0       -0.429677   -0.271661    1.526978
 ---------------------------------------------------------------------

 SCF Done:  E(RHF) =  -722.478966673     A.U. after    2 cycles

 The electronic state is 1-A.
 Alpha  occ. eigenvalues -- -105.46781 -15.41811 -15.39760 -11.23585 -11.19034
 Alpha  occ. eigenvalues --  -11.17415 -11.15786 -10.51615  -7.68562  -7.68177
 Alpha  occ. eigenvalues --   -7.68164  -1.12451  -1.10366  -1.03967  -0.92265
 Alpha  occ. eigenvalues --   -0.82124  -0.62375  -0.58708  -0.54654  -0.51078
 Alpha  occ. eigenvalues --   -0.49545  -0.47850  -0.45534  -0.39951  -0.38852
 Alpha  occ. eigenvalues --   -0.37713  -0.35849  -0.35576  -0.34571  -0.11298
 Alpha virt. eigenvalues --    0.13308   0.15393   0.16559   0.17619   0.18610
 Alpha virt. eigenvalues --    0.19368   0.20639   0.22035   0.23241   0.23481
 Alpha virt. eigenvalues --    0.23726   0.24377   0.25583   0.25864   0.26612

 Mulliken charges:
               1
     1  C   -0.379295
     2  C   -0.029456
     3  Cl  -0.033415
     4  H   -0.632714
     5  H    0.347197
     6  H    0.230018
     7  C   -1.059499
     8  N    0.795327
     9  C   -1.358286
    10  N    0.778020
    11  H    0.342104
 Sum of Mulliken charges =  -1.00000

 Dipole moment (field-independent basis, Debye):
    X=             -0.8723    Y=              6.0056    Z=             -5.9350  Tot=              8.4884

 Test job not archived.
 1\1\GINC-SE080\SP\RHF\Aug-CC-pVDZ\C4H4Cl1N2(1-)\OHZDE\09-Apr-2025\0\\#
 t hf aug-cc-pvdz iop(5/13=1,5/36=2,99/5=2) pseudo=read geom=check gues
 s=(read,tcheck) scf=(maxcycle=1)\\title\\-1,1\C,0,-0.21035022,-0.01168
 129,-0.3378203\C,0,-0.15699182,-0.03410235,1.18689839\Cl,0,1.3001698,0
 .49585696,-1.17264146\H,0,-2.60056891,0.82834202,0.77386314\H,0,-1.271
 97157,0.23562353,1.38180284\H,0,0.10772119,-1.01371009,1.58926502\C,0,
 -0.59265865,-1.32501948,-0.84261843\N,0,-0.88156779,-2.39206154,-1.239
 4229\C,0,0.68988703,0.98827283,1.76326428\N,0,1.35774345,1.80710931,2.

 Normal termination of Gaussian 16 at Wed Apr  9 03:01:46 2025.
