 Gaussian 16, Revision C.01,

 ----------------------------------------------------------------------
 #t hf aug-cc-pvdz symm=none int=(grid=ultrafine) guess=(read,tcheck) s
 table=(opt,rrhf)
 ----------------------------------------------------------------------
 -----
 title
 -----
 Symbolic Z-matrix:
 Charge = -1 Multiplicity = 1

 SCF Done:  E(RHF) =  -1044.69569314     A.U. after   15 cycles
 Normal termination of Gaussian 16 at Wed Apr  9 02:43:18 2025.
 Gaussian 16:  ES64L-G16RevC.01  3-Jul-2019

 ----------------------------------------------------------------------
 #t hf aug-cc-pvdz iop(5/13=1,5/36=2,99/5=2) pseudo=read geom=check gue
 ss=(read,tcheck) scf=(maxcycle=1)
 ----------------------------------------------------------------------
 -----
 title
 -----
 Structure from the checkpoint file:  "E2SN2_212_mol2.chk"
 Charge = -1 Multiplicity = 1

                         Standard orientation:
 ---------------------------------------------------------------------
 Center     Atomic      Atomic             Coordinates (Angstroms)
 Number     Number       Type             X           Y           Z
 ---------------------------------------------------------------------
      1          6           0       -0.196854   -0.639593   -0.393111
      2          6           0        0.725797   -0.080718    0.649438
      3          9           0        0.247193   -1.875424   -0.818982
      4          1           0        0.806920   -0.727318    1.517907
      5          1           0       -0.343088    0.023727   -1.237865
      6          1           0        0.364940    0.921610    0.907081
      7          7           0       -1.556615   -0.910000    0.193951
      8          8           0       -2.457630   -1.080677   -0.619360
      9          8           0       -1.650368   -1.038586    1.412663
     10          7           0        2.095231    0.065612    0.087590
     11          8           0        3.026151   -0.006850    0.888838
     12          8           0        2.214661    0.283945   -1.114976
     13         17           0       -1.121176    2.448865   -0.109551
 ---------------------------------------------------------------------

 SCF Done:  E(RHF) =  -1045.32998948     A.U. after    2 cycles

 The electronic state is 1-A.
 Alpha  occ. eigenvalues -- -105.29172 -26.39364 -20.49784 -20.49765 -20.49680
 Alpha  occ. eigenvalues --  -20.49405 -15.69160 -15.69072 -11.29983 -11.20693
 Alpha  occ. eigenvalues --  -10.33780  -7.50548  -7.50514  -7.50503  -1.57155
 Alpha  occ. eigenvalues --   -1.56575  -1.51779  -1.40835  -1.40574  -1.06620
 Alpha  occ. eigenvalues --   -0.98935  -0.82350  -0.75712  -0.74693  -0.70838
 Alpha  occ. eigenvalues --   -0.68975  -0.67751  -0.65434  -0.65175  -0.64116
 Alpha  occ. eigenvalues --   -0.59944  -0.57521  -0.54412  -0.48653  -0.46392
 Alpha  occ. eigenvalues --   -0.40767  -0.40151  -0.38644  -0.38327  -0.35308
 Alpha  occ. eigenvalues --   -0.34945  -0.22070  -0.21601  -0.21510
 Alpha virt. eigenvalues --    0.13301   0.15368   0.15653   0.16114   0.18158
 Alpha virt. eigenvalues --    0.19652   0.20368   0.21454   0.22806   0.23990
 Alpha virt. eigenvalues --    0.24197   0.25842   0.27051   0.27250   0.28503

 Mulliken charges:
               1
     1  C    0.946086
     2  C   -0.598839
     3  F   -0.893062
     4  H    0.167777
     5  H    0.127026
     6  H    0.256216
     7  N    2.873269
     8  O   -1.457353
     9  O   -1.449664
    10  N    2.804574
    11  O   -1.412645
    12  O   -1.391398
    13  Cl  -0.971988
 Sum of Mulliken charges =  -1.00000

 Dipole moment (field-independent basis, Debye):
    X=              3.2713    Y=             -7.4965    Z=              0.7368  Tot=              8.2123

 Test job not archived.
 1\1\GINC-SE108\SP\RHF\Aug-CC-pVDZ\C2H3Cl1F1N2O4(1-)\OHZDE\09-Apr-2025\
 0\\#t hf aug-cc-pvdz iop(5/13=1,5/36=2,99/5=2) pseudo=read geom=check
 guess=(read,tcheck) scf=(maxcycle=1)\\title\\-1,1\C,0,-0.063548,0.0034
 77,0.014263\C,0,-0.452713,0.12749,-1.429242\F,0,1.301123,-0.167353,0.1
 33901\H,0,0.03589,0.965062,-1.91776\H,0,-0.592728,-0.785737,0.535892\H
 ,0,-1.545594,0.198497,-1.471998\N,0,-0.34847,1.28517,0.751009\O,0,-0.3
 5101,1.201064,1.973855\O,0,-0.455963,2.321155,0.098504\N,0,-0.053106,-
 1.099752,-2.168583\O,0,0.187658,-0.962483,-3.367354\O,0,-0.023497,-2.1

 Normal termination of Gaussian 16 at Wed Apr  9 02:43:27 2025.
