 Gaussian 16, Revision C.01,

 ----------------------------------------------------------------------
 #t hf aug-cc-pvdz symm=none int=(grid=ultrafine) guess=(read,tcheck) s
 table=(opt,rrhf)
 ----------------------------------------------------------------------
 -----
 title
 -----
 Symbolic Z-matrix:
 Charge = -1 Multiplicity = 1

 SCF Done:  E(RHF) =  -836.223019784     A.U. after   17 cycles
 Normal termination of Gaussian 16 at Wed Apr  9 02:56:54 2025.
 Gaussian 16:  ES64L-G16RevC.01  3-Jul-2019

 ----------------------------------------------------------------------
 #t hf aug-cc-pvdz iop(5/13=1,5/36=2,99/5=2) pseudo=read geom=check gue
 ss=(read,tcheck) scf=(maxcycle=1)
 ----------------------------------------------------------------------
 -----
 title
 -----
 Structure from the checkpoint file:  "E2SN2_36_mol1.chk"
 Charge = -1 Multiplicity = 1

                         Standard orientation:
 ---------------------------------------------------------------------
 Center     Atomic      Atomic             Coordinates (Angstroms)
 Number     Number       Type             X           Y           Z
 ---------------------------------------------------------------------
      1          6           0       -0.137110   -0.202951    0.440535
      2          6           0       -0.206099    1.164276    0.992783
      3         17           0       -1.630493   -0.705045   -0.603492
      4          1           0        2.168348    1.761315    1.764048
      5          1           0        0.904979    1.362768    1.456651
      6          1           0       -0.906709    1.157785    1.835580
      7          7           0        1.020879   -0.292964   -0.533358
      8          8           0        1.974414   -1.001904   -0.212708
      9          8           0        0.973717    0.404024   -1.543647
     10          6           0        0.015848   -1.238315    1.524232
     11          1           0        0.145607   -2.238262    1.111475
     12          1           0        0.889713   -0.974634    2.125761
     13          1           0       -0.879174   -1.218714    2.147511
     14          7           0       -0.425405    2.284829    0.106869
     15          1           0       -0.883093    1.987303   -0.745538
     16          1           0        0.489509    2.650132   -0.145163
 ---------------------------------------------------------------------

 SCF Done:  E(RHF) =  -836.684387482     A.U. after    2 cycles

 The electronic state is 1-A.
 Alpha  occ. eigenvalues -- -105.44720 -20.47094 -20.46611 -15.66241 -15.34524
 Alpha  occ. eigenvalues --  -11.25242 -11.13484 -11.10914 -10.49523  -7.66438
 Alpha  occ. eigenvalues --   -7.66103  -7.66099  -1.53857  -1.37784  -1.07830
 Alpha  occ. eigenvalues --   -1.01776  -0.90532  -0.87175  -0.79352  -0.70412
 Alpha  occ. eigenvalues --   -0.62511  -0.61822  -0.60240  -0.55453  -0.51616
 Alpha  occ. eigenvalues --   -0.48644  -0.47336  -0.44148  -0.42221  -0.39069
 Alpha  occ. eigenvalues --   -0.36865  -0.36013  -0.34460  -0.34276  -0.32308
 Alpha  occ. eigenvalues --   -0.29246  -0.08949
 Alpha virt. eigenvalues --    0.12391   0.13354   0.14654   0.15738   0.15898
 Alpha virt. eigenvalues --    0.17060   0.17740   0.18849   0.20633   0.22500
 Alpha virt. eigenvalues --    0.22756   0.23969   0.24611   0.25178   0.25714

 Mulliken charges:
               1
     1  C   -0.937073
     2  C   -1.570656
     3  Cl  -0.194873
     4  H   -0.557972
     5  H   -0.062974
     6  H    0.023350
     7  N    3.180726
     8  O   -1.488571
     9  O   -1.530224
    10  C    0.212013
    11  H    0.196311
    12  H    0.406692
    13  H    0.217562
    14  N    0.616893
    15  H    0.153177
    16  H    0.335619
 Sum of Mulliken charges =  -1.00000

 Dipole moment (field-independent basis, Debye):
    X=             -7.2012    Y=             -6.6710    Z=             -3.2927  Tot=             10.3538

 Test job not archived.
 1\1\GINC-SE105\SP\RHF\Aug-CC-pVDZ\C3H8Cl1N2O2(1-)\OHZDE\09-Apr-2025\0\
 \#t hf aug-cc-pvdz iop(5/13=1,5/36=2,99/5=2) pseudo=read geom=check gu
 ess=(read,tcheck) scf=(maxcycle=1)\\title\\-1,1\C,0,-0.18528704,0.0599
 8108,-0.28577714\C,0,-0.2163275,0.08876498,1.18977494\Cl,0,1.52740611,
 -0.23116843,-1.0302227\H,0,-2.67754615,-0.1639056,1.87377858\H,0,-1.40
 390617,0.09009819,1.47034866\H,0,0.19054844,1.0507706,1.5217404\N,0,-0
 .99172554,-1.12375618,-0.78169069\O,0,-2.03398897,-0.88183171,-1.38980
 38\O,0,-0.5998418,-2.24850938,-0.48159767\C,0,-0.71825066,1.33641489,-

 Normal termination of Gaussian 16 at Wed Apr  9 02:57:01 2025.
