 Gaussian 16, Revision C.01,

 ----------------------------------------------------------------------
 #t hf aug-cc-pvdz symm=none int=(grid=ultrafine) guess=(read,tcheck) s
 table=(opt,rrhf)
 ----------------------------------------------------------------------
 -----
 title
 -----
 Symbolic Z-matrix:
 Charge = -1 Multiplicity = 1

 SCF Done:  E(RHF) =  -1000.68206794     A.U. after   16 cycles
 Normal termination of Gaussian 16 at Wed Apr  9 02:52:30 2025.
 Gaussian 16:  ES64L-G16RevC.01  3-Jul-2019

 ----------------------------------------------------------------------
 #t hf aug-cc-pvdz iop(5/13=1,5/36=2,99/5=2) pseudo=read geom=check gue
 ss=(read,tcheck) scf=(maxcycle=1)
 ----------------------------------------------------------------------
 -----
 title
 -----
 Structure from the checkpoint file:  "E2SN2_30_mol2.chk"
 Charge = -1 Multiplicity = 1

                         Standard orientation:
 ---------------------------------------------------------------------
 Center     Atomic      Atomic             Coordinates (Angstroms)
 Number     Number       Type             X           Y           Z
 ---------------------------------------------------------------------
      1          6           0        0.004878   -0.213894    0.050514
      2          6           0       -0.994142   -1.037649   -0.733013
      3         17           0        0.089165   -0.684890    1.740176
      4          1           0       -0.878344   -0.806030   -1.800803
      5          1           0       -0.723216   -2.091490   -0.593826
      6          7           0        1.434125   -0.299637   -0.480171
      7          8           0        2.194130    0.615049   -0.182052
      8          8           0        1.718927   -1.298408   -1.129836
      9          7           0       -0.356995    1.260878   -0.087586
     10          8           0       -0.704847    1.895225    0.891399
     11          8           0       -0.254345    1.665843   -1.238162
     12          7           0       -2.319821   -0.641830   -0.334680
     13          1           0       -2.896508   -0.774866   -1.235554
     14          1           0       -2.679273   -1.298574    0.349356
     15          1           0       -3.334956   -1.134194   -2.620916
 ---------------------------------------------------------------------

 SCF Done:  E(RHF) =  -1001.28359653     A.U. after    2 cycles

 The electronic state is 1-A.
 Alpha  occ. eigenvalues -- -105.51358 -20.52631 -20.52219 -20.51045 -20.50384
 Alpha  occ. eigenvalues --  -15.72211 -15.70847 -15.34363 -11.33931 -11.17032
 Alpha  occ. eigenvalues --  -10.56231  -7.73201  -7.72758  -7.72746  -1.59887
 Alpha  occ. eigenvalues --   -1.58103  -1.43773  -1.42558  -1.14762  -1.04739
 Alpha  occ. eigenvalues --   -0.97707  -0.92430  -0.83923  -0.75545  -0.73464
 Alpha  occ. eigenvalues --   -0.68256  -0.67563  -0.66024  -0.64105  -0.61887
 Alpha  occ. eigenvalues --   -0.55538  -0.52711  -0.50453  -0.44931  -0.44261
 Alpha  occ. eigenvalues --   -0.42081  -0.41371  -0.40201  -0.39648  -0.38123
 Alpha  occ. eigenvalues --   -0.37638  -0.35634  -0.31888  -0.10160
 Alpha virt. eigenvalues --    0.12166   0.13524   0.14389   0.15264   0.15573
 Alpha virt. eigenvalues --    0.17737   0.19042   0.20944   0.21630   0.21986
 Alpha virt. eigenvalues --    0.22469   0.23559   0.24645   0.25583   0.25806

 Mulliken charges:
               1
     1  C   -1.377090
     2  C   -0.656873
     3  Cl   0.143951
     4  H    0.278614
     5  H    0.178950
     6  N    3.229966
     7  O   -1.560762
     8  O   -1.472390
     9  N    3.297508
    10  O   -1.450365
    11  O   -1.555746
    12  N    0.391752
    13  H    0.088104
    14  H    0.260734
    15  H   -0.796354
 Sum of Mulliken charges =  -1.00000

 Dipole moment (field-independent basis, Debye):
    X=             10.2241    Y=              0.6273    Z=              9.6855  Tot=             14.0973

 Test job not archived.
 1\1\GINC-SE114\SP\RHF\Aug-CC-pVDZ\C2H5Cl1N3O4(1-)\OHZDE\09-Apr-2025\0\
 \#t hf aug-cc-pvdz iop(5/13=1,5/36=2,99/5=2) pseudo=read geom=check gu
 ess=(read,tcheck) scf=(maxcycle=1)\\title\\-1,1\C,0,-0.475883,0.129846
 ,-1.493725\C,0,0.107592,0.105953,-0.097475\Cl,0,-2.231677,0.162623,-1.
 490051\H,0,1.1943,0.251292,-0.169406\H,0,-0.304817,0.969096,0.439422\N
 ,0,-0.036172,1.328599,-2.331203\O,0,-0.118819,1.216656,-3.549304\O,0,0
 .327292,2.323668,-1.716018\N,0,0.045854,-1.076909,-2.266066\O,0,-0.726
 339,-1.943472,-2.632938\O,0,1.257151,-1.03877,-2.438302\N,0,-0.129028,

 Normal termination of Gaussian 16 at Wed Apr  9 02:52:38 2025.
