 Gaussian 16, Revision C.01,

 ----------------------------------------------------------------------
 #t hf aug-cc-pvdz symm=none int=(grid=ultrafine) guess=(read,tcheck) s
 table=(opt,rrhf)
 ----------------------------------------------------------------------
 -----
 title
 -----
 Symbolic Z-matrix:
 Charge = -1 Multiplicity = 1

 SCF Done:  E(RHF) =  -536.122123918     A.U. after   15 cycles
 Normal termination of Gaussian 16 at Wed Apr  9 02:43:57 2025.
 Gaussian 16:  ES64L-G16RevC.01  3-Jul-2019

 ----------------------------------------------------------------------
 #t hf aug-cc-pvdz iop(5/13=1,5/36=2,99/5=2) pseudo=read geom=check gue
 ss=(read,tcheck) scf=(maxcycle=1)
 ----------------------------------------------------------------------
 -----
 title
 -----
 Structure from the checkpoint file:  "E2SN2_222_mol2.chk"
 Charge = -1 Multiplicity = 1

                         Standard orientation:
 ---------------------------------------------------------------------
 Center     Atomic      Atomic             Coordinates (Angstroms)
 Number     Number       Type             X           Y           Z
 ---------------------------------------------------------------------
      1          6           0       -0.051974   -0.148258   -0.234383
      2          6           0        0.701560   -0.337183    1.074514
      3          9           0       -0.119616   -1.345763   -0.910976
      4          1           0        0.647031    0.612292    1.608575
      5          1           0        0.504167    0.613447   -0.822845
      6          1           0        0.197182   -1.112488    1.668206
      7          7           0       -1.458572    0.283608    0.038340
      8          8           0       -2.396379   -0.438837   -0.294995
      9          8           0       -1.576893    1.367230    0.611719
     10          7           0        2.099448   -0.667348    0.847904
     11          1           0        2.122177   -1.539775    0.329352
     12          1           0        2.394232    0.075017    0.177271
     13          9           0        2.068253    1.292783   -0.948894
 ---------------------------------------------------------------------

 SCF Done:  E(RHF) =  -536.641755283     A.U. after    2 cycles

 The electronic state is 1-A.
 Alpha  occ. eigenvalues --  -26.33914 -26.10162 -20.47098 -20.46644 -15.65943
 Alpha  occ. eigenvalues --  -15.32881 -11.22571 -11.13608  -1.54013  -1.46568
 Alpha  occ. eigenvalues --   -1.37621  -1.16706  -1.04414  -0.97377  -0.80288
 Alpha  occ. eigenvalues --   -0.71768  -0.66364  -0.63506  -0.61931  -0.57660
 Alpha  occ. eigenvalues --   -0.54654  -0.53303  -0.48025  -0.45889  -0.41678
 Alpha  occ. eigenvalues --   -0.39529  -0.37434  -0.36176  -0.32793  -0.30292
 Alpha  occ. eigenvalues --   -0.26546  -0.26060  -0.25138
 Alpha virt. eigenvalues --    0.13912   0.15528   0.16029   0.17301   0.18585
 Alpha virt. eigenvalues --    0.19587   0.21952   0.22741   0.22946   0.23554
 Alpha virt. eigenvalues --    0.26447   0.26697   0.27982   0.29089   0.31497

 Mulliken charges:
               1
     1  C    0.886194
     2  C   -0.842304
     3  F   -0.864430
     4  H    0.190361
     5  H    0.243274
     6  H    0.090917
     7  N    2.577617
     8  O   -1.353852
     9  O   -1.464712
    10  N    0.131506
    11  H    0.218040
    12  H    0.203396
    13  F   -1.016008
 Sum of Mulliken charges =  -1.00000

 Dipole moment (field-independent basis, Debye):
    X=             -4.5106    Y=             -3.7746    Z=              1.9172  Tot=              6.1862

 Test job not archived.
 1\1\GINC-SE049\SP\RHF\Aug-CC-pVDZ\C2H5F2N2O2(1-)\OHZDE\09-Apr-2025\0\\
 #t hf aug-cc-pvdz iop(5/13=1,5/36=2,99/5=2) pseudo=read geom=check gue
 ss=(read,tcheck) scf=(maxcycle=1)\\title\\-1,1\C,0,-0.391944,0.077197,
 0.144551\C,0,-0.467673,0.342175,-1.352369\F,0,0.567367,-0.87673,0.4016
 83\H,0,-1.171661,1.16368,-1.491033\H,0,-1.398222,-0.27021,0.464687\H,0
 ,0.523451,0.654462,-1.710302\N,0,0.018765,1.321082,0.868065\O,0,1.0788
 53,1.345248,1.491083\O,0,-0.759638,2.270591,0.770488\N,0,-0.95365,-0.8
 18893,-2.080517\H,0,-0.295825,-1.574289,-1.915644\H,0,-1.816273,-1.065

 Normal termination of Gaussian 16 at Wed Apr  9 02:44:02 2025.
