 Gaussian 16, Revision C.01,

 ----------------------------------------------------------------------
 #t hf aug-cc-pvdz symm=none int=(grid=ultrafine) guess=(read,tcheck) s
 table=(opt,rrhf)
 ----------------------------------------------------------------------
 -----
 title
 -----
 Symbolic Z-matrix:
 Charge = -1 Multiplicity = 1

 SCF Done:  E(RHF) =  -500.062152435     A.U. after   17 cycles
 Normal termination of Gaussian 16 at Wed Apr  9 02:48:45 2025.
 Gaussian 16:  ES64L-G16RevC.01  3-Jul-2019

 ----------------------------------------------------------------------
 #t hf aug-cc-pvdz iop(5/13=1,5/36=2,99/5=2) pseudo=read geom=check gue
 ss=(read,tcheck) scf=(maxcycle=1)
 ----------------------------------------------------------------------
 -----
 title
 -----
 Structure from the checkpoint file:  "E2SN2_269_mol2.chk"
 Charge = -1 Multiplicity = 1

                         Standard orientation:
 ---------------------------------------------------------------------
 Center     Atomic      Atomic             Coordinates (Angstroms)
 Number     Number       Type             X           Y           Z
 ---------------------------------------------------------------------
      1          6           0        0.159861   -0.257304    0.294353
      2          6           0       -0.638610   -1.088201   -0.707662
      3          9           0        0.048443   -0.920406    1.551207
      4          1           0       -0.370114   -2.134193   -0.516948
      5          1           0       -0.300655   -0.778256   -1.691734
      6          6           0        1.593000   -0.259227   -0.034024
      7          7           0        2.747876   -0.439291   -0.155433
      8          6           0       -0.357425    1.104952    0.489005
      9          7           0       -0.902130    1.993952    1.042310
     10          6           0       -2.137046   -0.870247   -0.556117
     11          1           0       -2.456552   -1.006856    0.480132
     12          1           0       -2.692832   -1.573636   -1.183571
     13          1           0       -2.388794    0.144826   -0.866540
     14          9           0        0.348229    1.218811   -1.478185
 ---------------------------------------------------------------------

 SCF Done:  E(RHF) =  -500.539837058     A.U. after    2 cycles

 The electronic state is 1-A.
 Alpha  occ. eigenvalues --  -26.34269 -26.11771 -15.38708 -15.35943 -11.26890
 Alpha  occ. eigenvalues --  -11.16639 -11.15898 -11.12452 -11.11570  -1.46061
 Alpha  occ. eigenvalues --   -1.18930  -1.09038  -1.06657  -0.97580  -0.87419
 Alpha  occ. eigenvalues --   -0.74388  -0.67997  -0.60880  -0.55454  -0.50830
 Alpha  occ. eigenvalues --   -0.49743  -0.47844  -0.46903  -0.45066  -0.42146
 Alpha  occ. eigenvalues --   -0.39922  -0.39219  -0.37804  -0.37174  -0.35710
 Alpha  occ. eigenvalues --   -0.34103  -0.27810  -0.27593  -0.25373
 Alpha virt. eigenvalues --    0.11660   0.13498   0.13881   0.16422   0.16906
 Alpha virt. eigenvalues --    0.18832   0.20153   0.20574   0.23012   0.23719
 Alpha virt. eigenvalues --    0.24400   0.24882   0.25453   0.25829   0.26344

 Mulliken charges:
               1
     1  C    1.992496
     2  C   -0.193820
     3  F   -1.002874
     4  H    0.166932
     5  H    0.299257
     6  C   -2.004473
     7  N    1.054783
     8  C   -1.604574
     9  N    0.931178
    10  C   -0.306343
    11  H    0.223883
    12  H    0.057603
    13  H    0.244198
    14  F   -0.858245
 Sum of Mulliken charges =  -1.00000

 Dipole moment (field-independent basis, Debye):
    X=             -3.7815    Y=             -6.3536    Z=              0.9528  Tot=              7.4549

 Test job not archived.
 1\1\GINC-SE024\SP\RHF\Aug-CC-pVDZ\C5H5F2N2(1-)\OHZDE\09-Apr-2025\0\\#t
  hf aug-cc-pvdz iop(5/13=1,5/36=2,99/5=2) pseudo=read geom=check guess
 =(read,tcheck) scf=(maxcycle=1)\\title\\-1,1\C,0,-0.044162,-0.003295,-
 0.014965\C,0,-0.373176,-0.087087,-1.503826\F,0,1.374218,-0.094854,0.09
 2808\H,0,0.344602,0.568941,-2.010761\H,0,-1.383911,0.294767,-1.610032\
 C,0,-0.403923,1.311065,0.53708\N,0,-0.476366,2.416879,0.928011\C,0,-0.
 599734,-1.105453,0.783662\N,0,-0.594613,-2.102703,1.415039\C,0,-0.2755
 43,-1.513451,-2.025107\H,0,0.682197,-1.969183,-1.761288\H,0,-0.377475,

 Normal termination of Gaussian 16 at Wed Apr  9 02:48:51 2025.
