 Gaussian 16, Revision C.01,

 ----------------------------------------------------------------------
 #t hf aug-cc-pvdz symm=none int=(grid=ultrafine) guess=(read,tcheck) s
 table=(opt,rrhf)
 ----------------------------------------------------------------------
 -----
 title
 -----
 Symbolic Z-matrix:
 Charge = -1 Multiplicity = 1

 SCF Done:  E(RHF) =  -860.116469068     A.U. after   16 cycles
 Normal termination of Gaussian 16 at Wed Apr  9 03:01:19 2025.
 Gaussian 16:  ES64L-G16RevC.01  3-Jul-2019

 ----------------------------------------------------------------------
 #t hf aug-cc-pvdz iop(5/13=1,5/36=2,99/5=2) pseudo=read geom=check gue
 ss=(read,tcheck) scf=(maxcycle=1)
 ----------------------------------------------------------------------
 -----
 title
 -----
 Structure from the checkpoint file:  "E2SN2_66_mol2.chk"
 Charge = -1 Multiplicity = 1

                         Standard orientation:
 ---------------------------------------------------------------------
 Center     Atomic      Atomic             Coordinates (Angstroms)
 Number     Number       Type             X           Y           Z
 ---------------------------------------------------------------------
      1          6           0       -0.170506    0.097433   -0.054463
      2          6           0        0.648440   -0.100197   -1.338118
      3         17           0       -0.162986    1.924945    0.310090
      4          1           0        0.362920   -1.098313   -1.686725
      5          1           0        0.331286    0.666486   -2.052331
      6          6           0       -1.574667   -0.250765   -0.266215
      7          7           0       -2.724645   -0.334221   -0.495539
      8          6           0        0.401076   -0.561416    1.123425
      9          7           0        0.961099   -0.687812    2.154220
     10          6           0        2.145583   -0.042187   -1.083093
     11          1           0        2.438239    0.881264   -0.577180
     12          1           0        2.437068   -0.889559   -0.460983
     13          1           0        2.691474   -0.103334   -2.029363
     14          9           0       -0.204995   -2.209287   -0.040549
 ---------------------------------------------------------------------

 SCF Done:  E(RHF) =  -860.579548049     A.U. after    2 cycles

 The electronic state is 1-A.
 Alpha  occ. eigenvalues -- -105.45158 -26.11875 -15.38757 -15.36243 -11.25808
 Alpha  occ. eigenvalues --  -11.17120 -11.16463 -11.13103 -11.11700 -10.49953
 Alpha  occ. eigenvalues --   -7.66883  -7.66521  -7.66517  -1.19146  -1.09878
 Alpha  occ. eigenvalues --   -1.07446  -1.02234  -0.91739  -0.85267  -0.74047
 Alpha  occ. eigenvalues --   -0.66874  -0.55117  -0.52382  -0.48551  -0.47329
 Alpha  occ. eigenvalues --   -0.46056  -0.43626  -0.41128  -0.40036  -0.38510
 Alpha  occ. eigenvalues --   -0.36889  -0.35272  -0.34343  -0.34175  -0.33819
 Alpha  occ. eigenvalues --   -0.27841  -0.27612  -0.25665
 Alpha virt. eigenvalues --    0.11661   0.13498   0.13834   0.16229   0.16832
 Alpha virt. eigenvalues --    0.18292   0.18948   0.20190   0.23089   0.23410
 Alpha virt. eigenvalues --    0.23521   0.24303   0.24653   0.25664   0.26014

 Mulliken charges:
               1
     1  C   -0.875449
     2  C    0.162845
     3  Cl  -0.024090
     4  H    0.342935
     5  H    0.173330
     6  C   -1.201504
     7  N    0.994388
     8  C   -0.918937
     9  N    0.918702
    10  C   -0.321051
    11  H    0.242368
    12  H    0.275196
    13  H    0.066941
    14  F   -0.835675
 Sum of Mulliken charges =  -1.00000

 Dipole moment (field-independent basis, Debye):
    X=              3.4160    Y=              5.9766    Z=             -4.0507  Tot=              7.9873

 Test job not archived.
 1\1\GINC-SE340\SP\RHF\Aug-CC-pVDZ\C5H5Cl1F1N2(1-)\OHZDE\09-Apr-2025\0\
 \#t hf aug-cc-pvdz iop(5/13=1,5/36=2,99/5=2) pseudo=read geom=check gu
 ess=(read,tcheck) scf=(maxcycle=1)\\title\\-1,1\C,0,-0.096948,-0.00898
 7,-1.416425\C,0,-0.082573,0.08645,0.115954\Cl,0,-1.881154,0.098734,-1.
 943453\H,0,0.95557,0.336589,0.358797\H,0,-0.755734,0.901215,0.401438\C
 ,0,0.557927,1.149098,-2.022828\N,0,0.897907,2.167726,-2.501173\C,0,0.4
 12196,-1.280465,-1.938274\N,0,0.405629,-2.357963,-2.418997\C,0,-0.4756
 58,-1.222796,0.780184\H,0,-1.443283,-1.586385,0.425415\H,0,0.282272,-1

 Normal termination of Gaussian 16 at Wed Apr  9 03:01:25 2025.
