 Gaussian 16, Revision C.01,

 ----------------------------------------------------------------------
 #t hf aug-cc-pvdz symm=none int=(grid=ultrafine) guess=(read,tcheck) s
 table=(opt,rrhf)
 ----------------------------------------------------------------------
 -----
 title
 -----
 Symbolic Z-matrix:
 Charge = -1 Multiplicity = 1

 SCF Done:  E(RHF) =  -591.806905155     A.U. after   16 cycles
 Normal termination of Gaussian 16 at Wed Apr  9 02:48:48 2025.
 Gaussian 16:  ES64L-G16RevC.01  3-Jul-2019

 ----------------------------------------------------------------------
 #t hf aug-cc-pvdz iop(5/13=1,5/36=2,99/5=2) pseudo=read geom=check gue
 ss=(read,tcheck) scf=(maxcycle=1)
 ----------------------------------------------------------------------
 -----
 title
 -----
 Structure from the checkpoint file:  "E2SN2_268_mol2.chk"
 Charge = -1 Multiplicity = 1

                         Standard orientation:
 ---------------------------------------------------------------------
 Center     Atomic      Atomic             Coordinates (Angstroms)
 Number     Number       Type             X           Y           Z
 ---------------------------------------------------------------------
      1          6           0       -0.289217    0.198163   -0.359656
      2          6           0        0.732753   -0.554881    0.517579
      3          9           0        0.206309    0.190885   -1.683501
      4          1           0        0.449979   -0.267809    1.533936
      5          6           0       -1.602383   -0.458547   -0.394439
      6          7           0       -2.529111   -1.045894   -0.826279
      7          6           0       -0.394977    1.608223    0.040106
      8          7           0       -0.362706    2.770737    0.206715
      9          6           0        2.088348   -0.114159    0.187035
     10          7           0        3.197957    0.196990   -0.041669
     11          6           0        0.587194   -2.068297    0.365660
     12          1           0        0.620498   -2.365513   -0.685083
     13          1           0        1.388635   -2.580795    0.902645
     14          1           0       -0.372036   -2.354180    0.797140
     15          9           0       -1.424126    0.081610    1.677088
 ---------------------------------------------------------------------

 SCF Done:  E(RHF) =  -592.363907148     A.U. after    2 cycles

 The electronic state is 1-A.
 Alpha  occ. eigenvalues --  -26.37027 -26.13658 -15.41584 -15.40954 -15.38817
 Alpha  occ. eigenvalues --  -11.30406 -11.18711 -11.18575 -11.18424 -11.18177
 Alpha  occ. eigenvalues --  -11.14442  -1.49172  -1.20945  -1.12180  -1.11020
 Alpha  occ. eigenvalues --   -1.09289  -1.02053  -0.91175  -0.80879  -0.70929
 Alpha  occ. eigenvalues --   -0.64452  -0.63057  -0.57505  -0.52352  -0.51298
 Alpha  occ. eigenvalues --   -0.50189  -0.50023  -0.48491  -0.46499  -0.44808
 Alpha  occ. eigenvalues --   -0.43690  -0.40064  -0.39827  -0.39347  -0.38275
 Alpha  occ. eigenvalues --   -0.37505  -0.36207  -0.29696  -0.29568  -0.27914
 Alpha virt. eigenvalues --    0.11933   0.13620   0.14968   0.15588   0.17552
 Alpha virt. eigenvalues --    0.18399   0.19464   0.20054   0.21772   0.22885
 Alpha virt. eigenvalues --    0.23027   0.23470   0.24051   0.24221   0.24995

 Mulliken charges:
               1
     1  C    2.284063
     2  C   -0.105902
     3  F   -1.021255
     4  H    0.384821
     5  C   -1.597637
     6  N    0.999363
     7  C   -2.003511
     8  N    1.105099
     9  C   -2.038452
    10  N    1.096224
    11  C    0.088485
    12  H    0.300703
    13  H    0.082218
    14  H    0.285500
    15  F   -0.859720
 Sum of Mulliken charges =  -1.00000

 Dipole moment (field-independent basis, Debye):
    X=              3.4328    Y=             -4.0455    Z=             -1.5367  Tot=              5.5237

 Test job not archived.
 1\1\GINC-SE069\SP\RHF\Aug-CC-pVDZ\C6H4F2N3(1-)\OHZDE\09-Apr-2025\0\\#t
  hf aug-cc-pvdz iop(5/13=1,5/36=2,99/5=2) pseudo=read geom=check guess
 =(read,tcheck) scf=(maxcycle=1)\\title\\-1,1\C,0,-0.03217,-0.012726,-0
 .007729\C,0,-0.429712,-0.082625,-1.497062\F,0,1.379518,0.03244,0.04938
 8\H,0,-1.474737,-0.402136,-1.462579\C,0,-0.522823,1.202159,0.655745\N,
 0,-0.495417,2.251665,1.192469\C,0,-0.441533,-1.228641,0.708677\N,0,-0.
 581969,-2.255524,1.261875\C,0,0.413041,-1.058477,-2.188881\N,0,1.06448
 9,-1.824739,-2.796178\C,0,-0.347721,1.291925,-2.159317\H,0,0.629529,1.

 Normal termination of Gaussian 16 at Wed Apr  9 02:48:56 2025.
