 Gaussian 16, Revision C.01,

 ----------------------------------------------------------------------
 #t hf aug-cc-pvdz symm=none int=(grid=ultrafine) guess=(read,tcheck) s
 table=(opt,rrhf)
 ----------------------------------------------------------------------
 -----
 title
 -----
 Symbolic Z-matrix:
 Charge = -1 Multiplicity = 1

 SCF Done:  E(RHF) =  -1043.01138322     A.U. after   16 cycles
 Normal termination of Gaussian 16 at Wed Apr  9 02:53:13 2025.
 Gaussian 16:  ES64L-G16RevC.01  3-Jul-2019

 ----------------------------------------------------------------------
 #t hf aug-cc-pvdz iop(5/13=1,5/36=2,99/5=2) pseudo=read geom=check gue
 ss=(read,tcheck) scf=(maxcycle=1)
 ----------------------------------------------------------------------
 -----
 title
 -----
 Structure from the checkpoint file:  "E2SN2_308_mol2.chk"
 Charge = -1 Multiplicity = 1

                         Standard orientation:
 ---------------------------------------------------------------------
 Center     Atomic      Atomic             Coordinates (Angstroms)
 Number     Number       Type             X           Y           Z
 ---------------------------------------------------------------------
      1          6           0       -0.171756    0.848999   -0.494920
      2          6           0       -0.443819   -0.170675    0.615022
      3          9           0       -1.416536    1.332393   -0.942764
      4          1           0        0.498912   -0.679691    0.848375
      5          6           0        0.489076    2.046700    0.089400
      6          7           0        1.032330    3.032633    0.425336
      7          7           0        0.518306    0.260581   -1.574806
      8          1           0        0.923695    0.975047   -2.166385
      9          1           0        1.272065   -0.336668   -1.210917
     10          7           0       -1.363446   -1.238190    0.006377
     11          8           0       -2.569409   -1.131417    0.239951
     12          8           0       -0.845784   -2.128173   -0.655547
     13          7           0       -1.027228    0.462137    1.742797
     14          1           0       -1.033682   -0.166350    2.534151
     15          1           0       -1.978501    0.733759    1.528274
     16         17           0        2.766302   -1.200658    0.283600
 ---------------------------------------------------------------------

 SCF Done:  E(RHF) =  -1043.65575310     A.U. after    2 cycles

 The electronic state is 1-A.
 Alpha  occ. eigenvalues -- -105.29635 -26.37160 -20.48843 -20.48344 -15.67477
 Alpha  occ. eigenvalues --  -15.42652 -15.41997 -15.39597 -11.31060 -11.23748
 Alpha  occ. eigenvalues --  -11.19164 -10.34252  -7.51029  -7.50996  -7.50970
 Alpha  occ. eigenvalues --   -1.55512  -1.49793  -1.39560  -1.15884  -1.12672
 Alpha  occ. eigenvalues --   -1.10859  -0.96791  -0.88186  -0.76978  -0.74982
 Alpha  occ. eigenvalues --   -0.70268  -0.68561  -0.67122  -0.64691  -0.62612
 Alpha  occ. eigenvalues --   -0.61017  -0.59228  -0.54759  -0.52957  -0.51691
 Alpha  occ. eigenvalues --   -0.49627  -0.46423  -0.43306  -0.40738  -0.40030
 Alpha  occ. eigenvalues --   -0.38247  -0.37402  -0.35715  -0.33860  -0.22620
 Alpha  occ. eigenvalues --   -0.22167  -0.21878
 Alpha virt. eigenvalues --    0.11799   0.13687   0.13973   0.16328   0.17125
 Alpha virt. eigenvalues --    0.17665   0.18808   0.20125   0.21389   0.21928
 Alpha virt. eigenvalues --    0.22227   0.23223   0.23634   0.24230   0.25274

 Mulliken charges:
               1
     1  C    0.394598
     2  C   -1.473472
     3  F   -0.992979
     4  H   -0.012985
     5  C   -1.488062
     6  N    0.911692
     7  N    0.654153
     8  H    0.228795
     9  H    0.243305
    10  N    3.025172
    11  O   -1.500556
    12  O   -1.454873
    13  N    0.831143
    14  H    0.250686
    15  H    0.329582
    16  Cl  -0.946200
 Sum of Mulliken charges =  -1.00000

 Dipole moment (field-independent basis, Debye):
    X=             -8.1569    Y=              2.0909    Z=             -0.0022  Tot=              8.4206

 Test job not archived.
 1\1\GINC-SE127\SP\RHF\Aug-CC-pVDZ\C3H5Cl1F1N4O2(1-)\OHZDE\09-Apr-2025\
 0\\#t hf aug-cc-pvdz iop(5/13=1,5/36=2,99/5=2) pseudo=read geom=check
 guess=(read,tcheck) scf=(maxcycle=1)\\title\\-1,1\C,0,0.019176,-0.0086
 19,0.021186\C,0,-0.493368,-0.067922,-1.420863\F,0,1.413437,-0.20474,-0
 .01464\H,0,-1.5892,-0.092681,-1.392032\C,0,-0.135048,1.376579,0.540858
 \N,0,-0.225614,2.420897,1.071177\N,0,-0.574261,-1.008926,0.818553\H,0,
 -0.444018,-0.801294,1.800741\H,0,-1.581982,-1.049269,0.618192\N,0,-0.0
 52523,-1.426988,-1.981529\O,0,0.966803,-1.437741,-2.675188\O,0,-0.7413

 Normal termination of Gaussian 16 at Wed Apr  9 02:53:22 2025.
