 Gaussian 16, Revision C.01,

 ----------------------------------------------------------------------
 #t hf aug-cc-pvdz symm=none int=(grid=ultrafine) guess=(read,tcheck) s
 table=(opt,rrhf)
 ----------------------------------------------------------------------
 -----
 title
 -----
 Symbolic Z-matrix:
 Charge = -1 Multiplicity = 1

 SCF Done:  E(RHF) =  -1144.49150122     A.U. after   15 cycles
 Normal termination of Gaussian 16 at Wed Apr  9 02:38:37 2025.
 Gaussian 16:  ES64L-G16RevC.01  3-Jul-2019

 ----------------------------------------------------------------------
 #t hf aug-cc-pvdz iop(5/13=1,5/36=2,99/5=2) pseudo=read geom=check gue
 ss=(read,tcheck) scf=(maxcycle=1)
 ----------------------------------------------------------------------
 -----
 title
 -----
 Structure from the checkpoint file:  "E2SN2_166_mol1.chk"
 Charge = -1 Multiplicity = 1

                         Standard orientation:
 ---------------------------------------------------------------------
 Center     Atomic      Atomic             Coordinates (Angstroms)
 Number     Number       Type             X           Y           Z
 ---------------------------------------------------------------------
      1          6           0       -0.430300   -0.625176   -0.120566
      2          1           0       -0.906449    1.246938    0.740556
      3         17           0        1.723793   -1.474030   -0.324350
      4         17           0       -2.715559   -0.199979   -0.203298
      5          6           0       -0.002101    0.675387    0.528735
      6          1           0       -0.658949   -1.453670    0.522302
      7          1           0       -0.486685   -0.718062   -1.186791
      8          6           0        0.788576    1.501466   -0.412115
      9          7           0        1.394758    2.253332   -1.081132
     10          7           0        0.657710    0.436414    1.805612
     11          1           0        0.897983    1.326250    2.225723
     12          1           0        1.509792   -0.081588    1.620546
 ---------------------------------------------------------------------

 SCF Done:  E(RHF) =  -1144.87782372     A.U. after    2 cycles

 The electronic state is 1-A.
 Alpha  occ. eigenvalues -- -105.34473-105.33844 -15.40156 -15.39209 -11.22473
 Alpha  occ. eigenvalues --  -11.20649 -11.17269 -10.39254 -10.38596  -7.56067
 Alpha  occ. eigenvalues --   -7.55941  -7.55914  -7.55409  -7.55277  -7.55263
 Alpha  occ. eigenvalues --   -1.12101  -1.08978  -0.93471  -0.82179  -0.80634
 Alpha  occ. eigenvalues --   -0.74682  -0.63216  -0.61383  -0.53660  -0.51001
 Alpha  occ. eigenvalues --   -0.48877  -0.47912  -0.39275  -0.37523  -0.35432
 Alpha  occ. eigenvalues --   -0.31906  -0.27124  -0.26865  -0.26069  -0.25785
 Alpha  occ. eigenvalues --   -0.23295
 Alpha virt. eigenvalues --    0.12529   0.14857   0.15711   0.16101   0.16742
 Alpha virt. eigenvalues --    0.18591   0.19877   0.21811   0.23045   0.23707
 Alpha virt. eigenvalues --    0.24816   0.25104   0.25481   0.26333   0.27263

 Mulliken charges:
               1
     1  C    0.382305
     2  H    0.209580
     3  Cl  -0.705474
     4  Cl  -0.725257
     5  C   -0.429038
     6  H    0.077880
     7  H    0.018203
     8  C   -1.585697
     9  N    0.908021
    10  N    0.441457
    11  H    0.153201
    12  H    0.254819
 Sum of Mulliken charges =  -1.00000

 Dipole moment (field-independent basis, Debye):
    X=              0.9596    Y=              1.3335    Z=              3.2406  Tot=              3.6333

 Test job not archived.
 1\1\GINC-SE127\SP\RHF\Aug-CC-pVDZ\C3H5Cl2N2(1-)\OHZDE\09-Apr-2025\0\\#
 t hf aug-cc-pvdz iop(5/13=1,5/36=2,99/5=2) pseudo=read geom=check gues
 s=(read,tcheck) scf=(maxcycle=1)\\title\\-1,1\C,0,0.63914643,-0.006423
 05,-0.01674207\H,0,1.70152637,1.82234538,-0.01294133\Cl,0,-1.67782014,
 -0.18613605,-0.0563626\Cl,0,2.9371345,-0.35028282,0.08839741\C,0,0.656
 97583,1.50884422,-0.00914415\H,0,0.65945721,-0.50213192,-0.96848885\H,
 0,0.59128792,-0.56298803,0.89790912\C,0,0.07919881,2.03864923,1.247142
 36\N,0,-0.32539729,2.56851398,2.21455546\N,0,0.04692474,2.05056923,-1.

 Normal termination of Gaussian 16 at Wed Apr  9 02:38:42 2025.
