 Gaussian 16, Revision C.01,

 ----------------------------------------------------------------------
 #t hf aug-cc-pvdz symm=none int=(grid=ultrafine) guess=(read,tcheck) s
 table=(opt,rrhf)
 ----------------------------------------------------------------------
 -----
 title
 -----
 Symbolic Z-matrix:
 Charge = -1 Multiplicity = 1

 SCF Done:  E(RHF) =  -555.083308148     A.U. after   16 cycles
 Normal termination of Gaussian 16 at Wed Apr  9 02:49:34 2025.
 Gaussian 16:  ES64L-G16RevC.01  3-Jul-2019

 ----------------------------------------------------------------------
 #t hf aug-cc-pvdz iop(5/13=1,5/36=2,99/5=2) pseudo=read geom=check gue
 ss=(read,tcheck) scf=(maxcycle=1)
 ----------------------------------------------------------------------
 -----
 title
 -----
 Structure from the checkpoint file:  "E2SN2_282_mol1.chk"
 Charge = -1 Multiplicity = 1

                         Standard orientation:
 ---------------------------------------------------------------------
 Center     Atomic      Atomic             Coordinates (Angstroms)
 Number     Number       Type             X           Y           Z
 ---------------------------------------------------------------------
      1          6           0        0.433992    0.332241    0.097045
      2          1           0       -0.605853    0.033871   -1.725546
      3          9           0       -0.074940   -0.558688    1.558418
      4          9           0        1.105958    1.127509   -1.436189
      5          6           0       -0.682440   -0.338008   -0.705212
      6          6           0        1.728467   -0.319089    0.174885
      7          7           0        2.783809   -0.819901    0.299740
      8          6           0        0.229657    1.703780    0.700591
      9          1           0        1.202269    2.156978    0.888718
     10          1           0       -0.291144    2.331689   -0.020795
     11          1           0       -0.335708    1.623654    1.626688
     12          6           0       -1.995448    0.082637   -0.162008
     13          7           0       -3.087471    0.352669    0.178346
     14          7           0       -0.513485   -1.784199   -0.705698
     15          1           0       -1.298344   -2.216440   -1.178530
     16          1           0       -0.515719   -2.058491    0.270883
 ---------------------------------------------------------------------

 SCF Done:  E(RHF) =  -555.618039772     A.U. after    2 cycles

 The electronic state is 1-A.
 Alpha  occ. eigenvalues --  -26.20457 -26.17364 -15.39823 -15.38127 -15.36840
 Alpha  occ. eigenvalues --  -11.26061 -11.19452 -11.16980 -11.15331 -11.11232
 Alpha  occ. eigenvalues --   -1.29427  -1.25666  -1.11243  -1.08283  -1.07066
 Alpha  occ. eigenvalues --   -0.94610  -0.84506  -0.78148  -0.61883  -0.61265
 Alpha  occ. eigenvalues --   -0.57395  -0.51735  -0.49281  -0.48493  -0.47247
 Alpha  occ. eigenvalues --   -0.45999  -0.43342  -0.42172  -0.39466  -0.37742
 Alpha  occ. eigenvalues --   -0.36713  -0.35723  -0.34937  -0.34388  -0.33588
 Alpha  occ. eigenvalues --   -0.32579  -0.31329  -0.29777
 Alpha virt. eigenvalues --    0.12731   0.13788   0.14442   0.15678   0.15733
 Alpha virt. eigenvalues --    0.16795   0.18158   0.19785   0.21101   0.22083
 Alpha virt. eigenvalues --    0.22908   0.23535   0.25298   0.25567   0.26066

 Mulliken charges:
               1
     1  C    2.196945
     2  H    0.119999
     3  F   -0.868572
     4  F   -0.882244
     5  C   -0.888525
     6  C   -3.194218
     7  N    1.240214
     8  C   -0.035297
     9  H    0.121777
    10  H    0.312809
    11  H    0.321130
    12  C   -1.538756
    13  N    0.986683
    14  N    0.682724
    15  H    0.111104
    16  H    0.314227
 Sum of Mulliken charges =  -1.00000

 Dipole moment (field-independent basis, Debye):
    X=             -3.2828    Y=              0.1488    Z=             -0.7605  Tot=              3.3730

 Test job not archived.
 1\1\GINC-SE073\SP\RHF\Aug-CC-pVDZ\C5H6F2N3(1-)\OHZDE\09-Apr-2025\0\\#t
  hf aug-cc-pvdz iop(5/13=1,5/36=2,99/5=2) pseudo=read geom=check guess
 =(read,tcheck) scf=(maxcycle=1)\\title\\-1,1\C,0,0.6443499,-0.02426897
 ,0.02210733\H,0,1.67890503,1.82268368,0.12508178\F,0,-1.13189729,-0.03
 07864,-0.16032061\F,0,2.49739832,-0.05598359,0.02140905\C,0,0.64182784
 ,1.50517207,0.03074366\C,0,0.75748825,-0.71722349,-1.24792059\N,0,0.81
 111762,-1.3278536,-2.2501198\C,0,0.64670274,-0.80007696,1.32028118\H,0
 ,1.02095612,-1.80565002,1.13184012\H,0,1.33269461,-0.31948336,2.016230

 Normal termination of Gaussian 16 at Wed Apr  9 02:49:42 2025.
