 Gaussian 16, Revision C.01,

 ----------------------------------------------------------------------
 #t hf aug-cc-pvdz symm=none int=(grid=ultrafine) guess=(read,tcheck) s
 table=(opt,rrhf)
 ----------------------------------------------------------------------
 -----
 title
 -----
 Symbolic Z-matrix:
 Charge = -1 Multiplicity = 1

 SCF Done:  E(RHF) =  -739.594752169     A.U. after   16 cycles
 Normal termination of Gaussian 16 at Wed Apr  9 02:45:44 2025.
 Gaussian 16:  ES64L-G16RevC.01  3-Jul-2019

 ----------------------------------------------------------------------
 #t hf aug-cc-pvdz iop(5/13=1,5/36=2,99/5=2) pseudo=read geom=check gue
 ss=(read,tcheck) scf=(maxcycle=1)
 ----------------------------------------------------------------------
 -----
 title
 -----
 Structure from the checkpoint file:  "E2SN2_236_mol1.chk"
 Charge = -1 Multiplicity = 1

                         Standard orientation:
 ---------------------------------------------------------------------
 Center     Atomic      Atomic             Coordinates (Angstroms)
 Number     Number       Type             X           Y           Z
 ---------------------------------------------------------------------
      1          6           0       -0.449090    0.432239    0.050460
      2          1           0        0.543326   -0.862512    1.423228
      3          9           0        0.218112   -0.362022   -1.394829
      4          9           0       -1.271032    0.962461    1.460985
      5          6           0        0.745463    0.067527    0.903601
      6          1           0        0.920478    0.889499    1.590606
      7          7           0       -1.558710   -0.606135   -0.092358
      8          8           0       -1.428963   -1.684731    0.470221
      9          8           0       -2.529285   -0.271662   -0.760220
     10          7           0       -0.554043    1.673298   -0.601090
     11          1           0       -1.412563    2.109793   -0.300825
     12          1           0       -0.548098    1.494726   -1.593430
     13          7           0        2.021961   -0.122996    0.160480
     14          8           0        2.558326    0.880214   -0.300843
     15          8           0        2.503728   -1.254223    0.127270
 ---------------------------------------------------------------------

 SCF Done:  E(RHF) =  -740.301970556     A.U. after    2 cycles

 The electronic state is 1-A.
 Alpha  occ. eigenvalues --  -26.22832 -26.19860 -20.45513 -20.45335 -20.45072
 Alpha  occ. eigenvalues --  -20.44969 -15.65364 -15.65181 -15.37684 -11.32034
 Alpha  occ. eigenvalues --  -11.18163  -1.52808  -1.52595  -1.36598  -1.36410
 Alpha  occ. eigenvalues --   -1.32578  -1.29185  -1.09006  -1.00136  -0.92616
 Alpha  occ. eigenvalues --   -0.78826  -0.70431  -0.66978  -0.64011  -0.62333
 Alpha  occ. eigenvalues --   -0.61441  -0.61158  -0.59615  -0.58835  -0.50251
 Alpha  occ. eigenvalues --   -0.49014  -0.43905  -0.41379  -0.39310  -0.38849
 Alpha  occ. eigenvalues --   -0.36951  -0.36427  -0.35519  -0.34845  -0.34523
 Alpha  occ. eigenvalues --   -0.33178  -0.31202  -0.31029  -0.30812
 Alpha virt. eigenvalues --    0.13802   0.14430   0.15688   0.16513   0.19569
 Alpha virt. eigenvalues --    0.20730   0.21187   0.22392   0.22495   0.25205
 Alpha virt. eigenvalues --    0.25567   0.26322   0.26838   0.27189   0.27747

 Mulliken charges:
               1
     1  C   -1.476029
     2  H    0.228808
     3  F   -0.978070
     4  F   -0.963512
     5  C   -0.188103
     6  H    0.243502
     7  N    3.830153
     8  O   -1.723665
     9  O   -1.656181
    10  N    0.868832
    11  H    0.389932
    12  H    0.393986
    13  N    2.962088
    14  O   -1.468557
    15  O   -1.463184
 Sum of Mulliken charges =  -1.00000

 Dipole moment (field-independent basis, Debye):
    X=              0.0724    Y=              1.6763    Z=              1.3938  Tot=              2.1813

 Test job not archived.
 1\1\GINC-SE149\SP\RHF\Aug-CC-pVDZ\C2H4F2N3O4(1-)\OHZDE\09-Apr-2025\0\\
 #t hf aug-cc-pvdz iop(5/13=1,5/36=2,99/5=2) pseudo=read geom=check gue
 ss=(read,tcheck) scf=(maxcycle=1)\\title\\-1,1\C,0,0.72085782,-0.05844
 319,-0.08718355\H,0,1.52007966,1.36602636,-1.45754564\F,0,-0.89498785,
 -0.07374351,-0.83127872\F,0,2.36072393,-0.20747868,0.39751414\C,0,0.99
 266838,1.36812302,-0.51008734\H,0,1.57136435,1.83887649,0.27842145\N,0
 ,1.01670599,-1.16348772,-1.09774135\O,0,1.44151012,-0.85082266,-2.2015
 8913\O,0,0.82009177,-2.31082878,-0.71710947\N,0,0.20990387,-0.37957619

 Normal termination of Gaussian 16 at Wed Apr  9 02:45:52 2025.
