 Gaussian 16, Revision C.01,

 ----------------------------------------------------------------------
 #t hf aug-cc-pvdz symm=none int=(grid=ultrafine) guess=(read,tcheck) s
 table=(opt,rrhf)
 ----------------------------------------------------------------------
 -----
 title
 -----
 Symbolic Z-matrix:
 Charge = -1 Multiplicity = 1

 SCF Done:  E(RHF) =  -915.160775149     A.U. after   16 cycles
 Normal termination of Gaussian 16 at Wed Apr  9 02:59:44 2025.
 Gaussian 16:  ES64L-G16RevC.01  3-Jul-2019

 ----------------------------------------------------------------------
 #t hf aug-cc-pvdz iop(5/13=1,5/36=2,99/5=2) pseudo=read geom=check gue
 ss=(read,tcheck) scf=(maxcycle=1)
 ----------------------------------------------------------------------
 -----
 title
 -----
 Structure from the checkpoint file:  "E2SN2_403_mol1.chk"
 Charge = -1 Multiplicity = 1

                         Standard orientation:
 ---------------------------------------------------------------------
 Center     Atomic      Atomic             Coordinates (Angstroms)
 Number     Number       Type             X           Y           Z
 ---------------------------------------------------------------------
      1          6           0        0.865688   -0.053834   -0.018902
      2          1           0       -0.052757    0.700881   -1.738040
      3         17           0       -0.340828   -0.784972    1.784675
      4          9           0        1.822191    0.565432   -1.609231
      5          6           0       -0.424095    0.341138   -0.772183
      6          7           0        1.362239   -1.357343   -0.315595
      7          1           0        1.600436   -1.839520    0.538776
      8          1           0        2.161020   -1.207160   -0.917713
      9          6           0        1.604643    0.960548    0.832314
     10          1           0        2.316089    1.481001    0.196465
     11          1           0        0.915715    1.666851    1.294212
     12          1           0        2.122545    0.436909    1.635769
     13          6           0       -1.167178    1.437493   -0.151397
     14          7           0       -1.745102    2.371607    0.263868
     15          6           0       -1.310097   -0.793033   -1.038137
     16          7           0       -2.057489   -1.633865   -1.373422
 ---------------------------------------------------------------------

 SCF Done:  E(RHF) =  -915.684031157     A.U. after    2 cycles

 The electronic state is 1-A.
 Alpha  occ. eigenvalues -- -105.34189 -26.17676 -15.41146 -15.39928 -15.37884
 Alpha  occ. eigenvalues --  -11.28304 -11.20931 -11.18741 -11.17801 -11.11846
 Alpha  occ. eigenvalues --  -10.39077  -7.55897  -7.55752  -7.55734  -1.26201
 Alpha  occ. eigenvalues --   -1.12209  -1.10447  -1.09284  -0.98544  -0.89159
 Alpha  occ. eigenvalues --   -0.80931  -0.71951  -0.66513  -0.59856  -0.58393
 Alpha  occ. eigenvalues --   -0.55393  -0.51995  -0.50048  -0.48627  -0.47779
 Alpha  occ. eigenvalues --   -0.43685  -0.39897  -0.39607  -0.38048  -0.36979
 Alpha  occ. eigenvalues --   -0.35068  -0.33556  -0.33366  -0.32445  -0.27065
 Alpha  occ. eigenvalues --   -0.26917  -0.26328
 Alpha virt. eigenvalues --    0.12921   0.13574   0.14173   0.14882   0.16136
 Alpha virt. eigenvalues --    0.16703   0.18457   0.19096   0.21104   0.22502
 Alpha virt. eigenvalues --    0.23250   0.23681   0.24204   0.24651   0.25028

 Mulliken charges:
               1
     1  C   -1.779847
     2  H    0.496281
     3  Cl  -0.598940
     4  F   -0.920100
     5  C    0.412766
     6  N    0.788429
     7  H    0.288064
     8  H    0.361362
     9  C   -0.034343
    10  H    0.297069
    11  H    0.271943
    12  H    0.130547
    13  C   -1.327545
    14  N    0.947520
    15  C   -1.326460
    16  N    0.993254
 Sum of Mulliken charges =  -1.00000

 Dipole moment (field-independent basis, Debye):
    X=              4.1956    Y=              0.6986    Z=              0.1538  Tot=              4.2562

 Test job not archived.
 1\1\GINC-SE094\SP\RHF\Aug-CC-pVDZ\C5H6Cl1F1N3(1-)\OHZDE\09-Apr-2025\0\
 \#t hf aug-cc-pvdz iop(5/13=1,5/36=2,99/5=2) pseudo=read geom=check gu
 ess=(read,tcheck) scf=(maxcycle=1)\\title\\-1,1\C,0,0.5536841,-0.11367
 668,0.01641617\H,0,1.72108543,1.61718825,-0.08283562\Cl,0,-1.73456531,
 -0.0381831,0.05313863\F,0,2.50902952,-0.09397457,-0.04498728\C,0,0.643
 85954,1.42826726,-0.01895876\N,0,0.59140148,-0.74945738,-1.25954912\H,
 0,-0.1344998,-1.44851314,-1.31930388\H,0,1.52102061,-1.141072,-1.33437
 179\C,0,0.5930634,-0.85982285,1.33600327\H,0,1.63269931,-1.06625876,1.

 Normal termination of Gaussian 16 at Wed Apr  9 02:59:52 2025.
