 Gaussian 16, Revision C.01,

 ----------------------------------------------------------------------
 #t hf aug-cc-pvdz symm=none int=(grid=ultrafine) guess=(read,tcheck) s
 table=(opt,rrhf)
 ----------------------------------------------------------------------
 -----
 title
 -----
 Symbolic Z-matrix:
 Charge = -1 Multiplicity = 1

 SCF Done:  E(RHF) =  -380.379112854     A.U. after   16 cycles
 Normal termination of Gaussian 16 at Wed Apr  9 02:50:51 2025.
 Gaussian 16:  ES64L-G16RevC.01  3-Jul-2019

 ----------------------------------------------------------------------
 #t hf aug-cc-pvdz iop(5/13=1,5/36=2,99/5=2) pseudo=read geom=check gue
 ss=(read,tcheck) scf=(maxcycle=1)
 ----------------------------------------------------------------------
 -----
 title
 -----
 Structure from the checkpoint file:  "E2SN2_300_mol1.chk"
 Charge = -1 Multiplicity = 1

                         Standard orientation:
 ---------------------------------------------------------------------
 Center     Atomic      Atomic             Coordinates (Angstroms)
 Number     Number       Type             X           Y           Z
 ---------------------------------------------------------------------
      1          6           0       -0.220391   -0.384500   -0.227527
      2          1           0        1.360965   -0.297144   -1.699850
      3          9           0        0.083294   -0.450754    1.406328
      4          1           0       -0.765673   -0.096569   -2.024637
      5          6           0        1.249464   -0.318453   -0.620513
      6          1           0        1.656875   -1.263809   -0.233126
      7          6           0       -1.020184    0.819990   -0.249240
      8          7           0       -1.681966    1.770582   -0.007342
      9          7           0       -0.868256   -1.681749   -0.281620
     10          1           0       -1.506547   -1.660776   -1.062503
     11          1           0       -1.374446   -1.772257    0.593091
     12          7           0        1.870374    0.879114   -0.050176
     13          1           0        2.868689    0.844004   -0.221170
     14          1           0        1.716098    0.825490    0.948895
 ---------------------------------------------------------------------

 SCF Done:  E(RHF) =  -380.761856295     A.U. after    2 cycles

 The electronic state is 1-A.
 Alpha  occ. eigenvalues --  -26.22343 -15.35573 -15.34897 -15.33292 -11.23803
 Alpha  occ. eigenvalues --  -11.12785 -11.12228  -1.31604  -1.06730  -1.04017
 Alpha  occ. eigenvalues --   -1.03131  -0.84716  -0.73598  -0.59709  -0.57572
 Alpha  occ. eigenvalues --   -0.56658  -0.48400  -0.46251  -0.45905  -0.43463
 Alpha  occ. eigenvalues --   -0.41009  -0.37787  -0.36744  -0.33431  -0.31913
 Alpha  occ. eigenvalues --   -0.31080  -0.29879  -0.11857
 Alpha virt. eigenvalues --    0.12769   0.14107   0.15202   0.15464   0.16997
 Alpha virt. eigenvalues --    0.17310   0.19615   0.20488   0.23116   0.23998
 Alpha virt. eigenvalues --    0.24875   0.26178   0.26900   0.27609   0.28477

 Mulliken charges:
               1
     1  C   -0.541724
     2  H    0.075866
     3  F   -0.915768
     4  H   -0.374351
     5  C   -0.063933
     6  H    0.174040
     7  C   -2.135536
     8  N    1.036334
     9  N    0.749995
    10  H    0.246639
    11  H    0.271106
    12  N    0.145333
    13  H    0.117833
    14  H    0.214163
 Sum of Mulliken charges =  -1.00000

 Dipole moment (field-independent basis, Debye):
    X=              4.4737    Y=             -3.7278    Z=              2.3516  Tot=              6.2802

 Test job not archived.
 1\1\GINC-SE453\SP\RHF\Aug-CC-pVDZ\C3H7F1N3(1-)\OHZDE\09-Apr-2025\0\\#t
  hf aug-cc-pvdz iop(5/13=1,5/36=2,99/5=2) pseudo=read geom=check guess
 =(read,tcheck) scf=(maxcycle=1)\\title\\-1,1\C,0,0.56459567,-0.0183417
 8,0.00503724\H,0,1.7341379,1.80012399,0.0425367\F,0,-1.09846267,-0.010
 35942,-0.01134718\H,0,2.44218275,-0.22705319,-0.19731885\C,0,0.6922330
 3,1.4992102,0.00082836\H,0,0.19182739,1.79702997,0.93391329\C,0,0.7884
 5971,-0.75717237,-1.21764558\N,0,0.71601874,-1.41605046,-2.19781212\N,
 0,0.66850957,-0.69348437,1.28523041\H,0,1.5506724,-1.18276546,1.290351

 Normal termination of Gaussian 16 at Wed Apr  9 02:50:55 2025.
