 Gaussian 16, Revision C.01,

 ----------------------------------------------------------------------
 #t hf aug-cc-pvdz symm=none int=(grid=ultrafine) guess=(read,tcheck) s
 table=(opt,rrhf)
 ----------------------------------------------------------------------
 -----
 title
 -----
 Symbolic Z-matrix:
 Charge = -1 Multiplicity = 1

 SCF Done:  E(RHF) =  -591.120880824     A.U. after   15 cycles
 Normal termination of Gaussian 16 at Wed Apr  9 02:41:04 2025.
 Gaussian 16:  ES64L-G16RevC.01  3-Jul-2019

 ----------------------------------------------------------------------
 #t hf aug-cc-pvdz iop(5/13=1,5/36=2,99/5=2) pseudo=read geom=check gue
 ss=(read,tcheck) scf=(maxcycle=1)
 ----------------------------------------------------------------------
 -----
 title
 -----
 Structure from the checkpoint file:  "E2SN2_194_mol1.chk"
 Charge = -1 Multiplicity = 1

                         Standard orientation:
 ---------------------------------------------------------------------
 Center     Atomic      Atomic             Coordinates (Angstroms)
 Number     Number       Type             X           Y           Z
 ---------------------------------------------------------------------
      1          6           0        1.069043   -0.348710    0.155645
      2          1           0        0.130035    0.405635   -1.617079
      3          9           0        0.144741   -1.318564    1.331470
      4          9           0        2.161073    0.463448   -1.070598
      5          6           0       -0.141925   -0.206820   -0.763112
      6          1           0        1.677569   -1.219779   -0.022554
      7          7           0        1.365486    0.648295    1.132226
      8          1           0        2.231743    1.073565    0.839874
      9          1           0        1.446750    0.177730    2.020421
     10          7           0       -1.222058    0.636673   -0.068962
     11          8           0       -2.225103    0.075321    0.373038
     12          8           0       -1.044555    1.851754   -0.054709
     13          7           0       -0.623586   -1.490775   -1.141386
     14          1           0       -1.490494   -1.405041   -1.655116
     15          1           0       -0.792270   -1.978829   -0.268378
 ---------------------------------------------------------------------

 SCF Done:  E(RHF) =  -591.699797354     A.U. after    2 cycles

 The electronic state is 1-A.
 Alpha  occ. eigenvalues --  -26.17519 -26.15203 -20.43952 -20.43941 -15.62636
 Alpha  occ. eigenvalues --  -15.36283 -15.33939 -11.22463 -11.18439  -1.50779
 Alpha  occ. eigenvalues --   -1.34686  -1.26641  -1.23458  -1.08780  -1.03759
 Alpha  occ. eigenvalues --   -0.91376  -0.78513  -0.68991  -0.62906  -0.60587
 Alpha  occ. eigenvalues --   -0.59621  -0.57016  -0.56182  -0.52976  -0.49340
 Alpha  occ. eigenvalues --   -0.44399  -0.37978  -0.37858  -0.34687  -0.34413
 Alpha  occ. eigenvalues --   -0.33606  -0.32251  -0.32221  -0.30602  -0.29572
 Alpha  occ. eigenvalues --   -0.28738  -0.27473
 Alpha virt. eigenvalues --    0.13637   0.14617   0.15190   0.15971   0.16943
 Alpha virt. eigenvalues --    0.17435   0.20924   0.22916   0.23086   0.24712
 Alpha virt. eigenvalues --    0.25727   0.26119   0.27630   0.28179   0.29587

 Mulliken charges:
               1
     1  C   -0.323223
     2  H    0.184385
     3  F   -0.946121
     4  F   -0.955880
     5  C   -1.387889
     6  H    0.037933
     7  N    0.551926
     8  H    0.293588
     9  H    0.256062
    10  N    2.968759
    11  O   -1.442087
    12  O   -1.475517
    13  N    0.666684
    14  H    0.211816
    15  H    0.359563
 Sum of Mulliken charges =  -1.00000

 Dipole moment (field-independent basis, Debye):
    X=             -1.6449    Y=             -0.9886    Z=             -0.5609  Tot=              1.9994

 Test job not archived.
 1\1\GINC-SE419\SP\RHF\Aug-CC-pVDZ\C2H6F2N3O2(1-)\OHZDE\09-Apr-2025\0\\
 #t hf aug-cc-pvdz iop(5/13=1,5/36=2,99/5=2) pseudo=read geom=check gue
 ss=(read,tcheck) scf=(maxcycle=1)\\title\\-1,1\C,0,0.64138183,-0.03091
 068,0.00159523\H,0,1.78625185,1.77048666,0.19540803\F,0,-1.12572183,0.
 03491516,-0.22319054\F,0,2.46381164,-0.21461627,0.0299479\C,0,0.750197
 76,1.4915883,0.03069052\H,0,0.70824697,-0.47462673,-0.97792687\N,0,0.5
 1220397,-0.77697719,1.21085435\H,0,1.36218529,-1.31234753,1.29823312\H
 ,0,-0.3038046,-1.36124938,1.11245711\N,0,0.04726359,2.03673418,1.28317

 Normal termination of Gaussian 16 at Wed Apr  9 02:41:11 2025.
