 Gaussian 16, Revision C.01,

 ----------------------------------------------------------------------
 #t hf aug-cc-pvdz symm=none int=(grid=ultrafine) guess=(read,tcheck) s
 table=(opt,rrhf)
 ----------------------------------------------------------------------
 -----
 title
 -----
 Symbolic Z-matrix:
 Charge = -1 Multiplicity = 1

 SCF Done:  E(RHF) =  -943.975805785     A.U. after   18 cycles
 Normal termination of Gaussian 16 at Wed Apr  9 02:36:28 2025.
 Gaussian 16:  ES64L-G16RevC.01  3-Jul-2019

 ----------------------------------------------------------------------
 #t hf aug-cc-pvdz iop(5/13=1,5/36=2,99/5=2) pseudo=read geom=check gue
 ss=(read,tcheck) scf=(maxcycle=1)
 ----------------------------------------------------------------------
 -----
 title
 -----
 Structure from the checkpoint file:  "E2SN2_130_mol1.chk"
 Charge = -1 Multiplicity = 1

                         Standard orientation:
 ---------------------------------------------------------------------
 Center     Atomic      Atomic             Coordinates (Angstroms)
 Number     Number       Type             X           Y           Z
 ---------------------------------------------------------------------
      1          6           0       -0.289297   -0.486525    0.204041
      2          6           0        1.100899    0.026027    0.508229
      3         17           0       -0.424368   -1.187339   -1.472855
      4          1           0        1.117615   -0.446883    2.889373
      5          1           0        1.041395    0.141199    1.749780
      6          7           0       -0.759495   -1.449440    1.141090
      7          1           0       -0.281711   -1.242441    2.033450
      8          1           0       -0.477977   -2.371624    0.839403
      9          7           0       -1.245599    0.722067    0.275137
     10          8           0       -1.597518    1.291585   -0.750835
     11          8           0       -1.533755    1.056302    1.419034
     12          7           0        2.134868   -0.976056    0.458112
     13          1           0        1.953801   -1.675651   -0.251014
     14          1           0        2.151367   -1.400982    1.390619
     15          6           0        1.454713    1.235379   -0.196466
     16          7           0        1.750520    2.238967   -0.739125
 ---------------------------------------------------------------------

 SCF Done:  E(RHF) =  -944.532984212     A.U. after    2 cycles

 The electronic state is 1-A.
 Alpha  occ. eigenvalues -- -105.46537 -20.47884 -20.47632 -15.66993 -15.39362
 Alpha  occ. eigenvalues --  -15.38373 -15.37839 -11.29377 -11.16337 -11.15671
 Alpha  occ. eigenvalues --  -10.51417  -7.68350  -7.67978  -7.67971  -1.54958
 Alpha  occ. eigenvalues --   -1.39017  -1.15544  -1.09174  -1.06620  -0.98810
 Alpha  occ. eigenvalues --   -0.92511  -0.84904  -0.72942  -0.66511  -0.64373
 Alpha  occ. eigenvalues --   -0.64208  -0.62516  -0.59251  -0.56455  -0.54017
 Alpha  occ. eigenvalues --   -0.49095  -0.47504  -0.42979  -0.40021  -0.39571
 Alpha  occ. eigenvalues --   -0.37955  -0.36975  -0.35851  -0.35035  -0.34655
 Alpha  occ. eigenvalues --   -0.32872  -0.32779  -0.14388
 Alpha virt. eigenvalues --    0.12601   0.14007   0.15465   0.16991   0.17210
 Alpha virt. eigenvalues --    0.17660   0.17974   0.19073   0.20614   0.22284
 Alpha virt. eigenvalues --    0.23041   0.23976   0.24482   0.25192   0.25376

 Mulliken charges:
               1
     1  C   -1.959356
     2  C   -0.693526
     3  Cl   0.056236
     4  H   -0.396240
     5  H    0.389817
     6  N    0.816776
     7  H    0.303191
     8  H    0.258869
     9  N    3.053437
    10  O   -1.460658
    11  O   -1.460994
    12  N    0.831290
    13  H    0.170315
    14  H    0.260669
    15  C   -2.133391
    16  N    0.963565
 Sum of Mulliken charges =  -1.00000

 Dipole moment (field-independent basis, Debye):
    X=             -2.8379    Y=             -5.4123    Z=             -4.3239  Tot=              7.4862

 Test job not archived.
 1\1\GINC-SE367\SP\RHF\Aug-CC-pVDZ\C3H6Cl1N4O2(1-)\OHZDE\09-Apr-2025\0\
 \#t hf aug-cc-pvdz iop(5/13=1,5/36=2,99/5=2) pseudo=read geom=check gu
 ess=(read,tcheck) scf=(maxcycle=1)\\title\\-1,1\C,0,-0.14967298,-0.081
 0091,-0.30653298\C,0,-0.14777954,0.06661835,1.19881981\Cl,0,1.51608767
 ,-0.3834296,-0.98117789\H,0,-2.34371927,-0.87473839,1.62947736\H,0,-1.
 36391555,-0.06388892,1.4482925\N,0,-1.02565316,-1.09905467,-0.77833116
 \H,0,-1.78051638,-1.17923088,-0.07748373\H,0,-0.52827022,-1.97793822,-
 0.80773747\N,0,-0.64752258,1.25576731,-0.89427253\O,0,0.15388904,2.081

 Normal termination of Gaussian 16 at Wed Apr  9 02:36:35 2025.
