 Gaussian 16, Revision C.01,

 ----------------------------------------------------------------------
 #t hf aug-cc-pvdz symm=none int=(grid=ultrafine) guess=(read,tcheck) s
 table=(opt,rrhf)
 ----------------------------------------------------------------------
 -----
 title
 -----
 Symbolic Z-matrix:
 Charge = -1 Multiplicity = 1

 SCF Done:  E(RHF) =  -528.900424407     A.U. after   16 cycles
 Normal termination of Gaussian 16 at Wed Apr  9 02:36:02 2025.
 Gaussian 16:  ES64L-G16RevC.01  3-Jul-2019

 ----------------------------------------------------------------------
 #t hf aug-cc-pvdz iop(5/13=1,5/36=2,99/5=2) pseudo=read geom=check gue
 ss=(read,tcheck) scf=(maxcycle=1)
 ----------------------------------------------------------------------
 -----
 title
 -----
 Structure from the checkpoint file:  "E2SN2_135_mol1.chk"
 Charge = -1 Multiplicity = 1

                         Standard orientation:
 ---------------------------------------------------------------------
 Center     Atomic      Atomic             Coordinates (Angstroms)
 Number     Number       Type             X           Y           Z
 ---------------------------------------------------------------------
      1          6           0       -0.095954    0.128604    0.302447
      2          6           0        0.806334   -0.295468   -0.827112
      3          9           0        0.057759   -0.651809    1.434239
      4          1           0        0.334829    1.853356   -2.114212
      5          1           0        0.615371    0.633124   -1.622218
      6          1           0        0.538277   -1.272316   -1.232325
      7          7           0       -0.019817    1.491849    0.668842
      8          1           0       -0.020768    2.013362   -0.224011
      9          1           0        0.893176    1.627765    1.092000
     10          6           0        2.188427   -0.243397   -0.430089
     11          7           0        3.324549   -0.162974   -0.129554
     12          7           0       -1.529865   -0.166131   -0.171956
     13          8           0       -1.808078   -1.357188   -0.303661
     14          8           0       -2.279125    0.773858   -0.402613
 ---------------------------------------------------------------------

 SCF Done:  E(RHF) =  -529.414931115     A.U. after    2 cycles

 The electronic state is 1-A.
 Alpha  occ. eigenvalues --  -26.36530 -20.48443 -20.47526 -15.66747 -15.39263
 Alpha  occ. eigenvalues --  -15.38473 -11.31128 -11.17089 -11.13593  -1.55158
 Alpha  occ. eigenvalues --   -1.49463  -1.38968  -1.12339  -1.09539  -0.96867
 Alpha  occ. eigenvalues --   -0.90194  -0.73933  -0.68920  -0.65269  -0.64523
 Alpha  occ. eigenvalues --   -0.60054  -0.58895  -0.55455  -0.55024  -0.51854
 Alpha  occ. eigenvalues --   -0.49408  -0.47896  -0.45291  -0.38705  -0.38016
 Alpha  occ. eigenvalues --   -0.37303  -0.35789  -0.34374  -0.33174  -0.12633
 Alpha virt. eigenvalues --    0.13937   0.14688   0.17125   0.17328   0.18255
 Alpha virt. eigenvalues --    0.18308   0.19837   0.20525   0.22339   0.23505
 Alpha virt. eigenvalues --    0.24063   0.24947   0.25379   0.26120   0.27028

 Mulliken charges:
               1
     1  C   -0.257490
     2  C   -0.274258
     3  F   -1.032048
     4  H   -0.516803
     5  H    0.246998
     6  H    0.162551
     7  N    0.520940
     8  H    0.329212
     9  H    0.291891
    10  C   -1.261436
    11  N    0.776091
    12  N    2.859805
    13  O   -1.472430
    14  O   -1.373023
 Sum of Mulliken charges =  -1.00000

 Dipole moment (field-independent basis, Debye):
    X=             -2.3189    Y=             -4.0826    Z=              4.4285  Tot=              6.4542

 Test job not archived.
 1\1\GINC-SE073\SP\RHF\Aug-CC-pVDZ\C3H5F1N3O2(1-)\OHZDE\09-Apr-2025\0\\
 #t hf aug-cc-pvdz iop(5/13=1,5/36=2,99/5=2) pseudo=read geom=check gue
 ss=(read,tcheck) scf=(maxcycle=1)\\title\\-1,1\C,0,-0.15038337,-0.0590
 8056,-0.34182758\C,0,-0.10635053,0.03788421,1.16101052\F,0,1.10636187,
 -0.16638696,-0.90989594\H,0,-2.6130076,-0.38763181,1.33987485\H,0,-1.3
 1186036,-0.05630809,1.42334254\H,0,0.33868057,0.97198233,1.50697571\N,
 0,-0.9814777,-1.07531196,-0.86626625\H,0,-1.85809518,-1.01741827,-0.32
 09647\H,0,-0.54199879,-1.95978082,-0.63033002\C,0,0.54831286,-1.108987

 Normal termination of Gaussian 16 at Wed Apr  9 02:36:08 2025.
