 Gaussian 16, Revision C.01,

 ----------------------------------------------------------------------
 #t hf aug-cc-pvdz symm=none int=(grid=ultrafine) guess=(read,tcheck) s
 table=(opt,rrhf)
 ----------------------------------------------------------------------
 -----
 title
 -----
 Symbolic Z-matrix:
 Charge = -1 Multiplicity = 1

 SCF Done:  E(RHF) =  -888.944439361     A.U. after   17 cycles
 Normal termination of Gaussian 16 at Wed Apr  9 02:35:06 2025.
 Gaussian 16:  ES64L-G16RevC.01  3-Jul-2019

 ----------------------------------------------------------------------
 #t hf aug-cc-pvdz iop(5/13=1,5/36=2,99/5=2) pseudo=read geom=check gue
 ss=(read,tcheck) scf=(maxcycle=1)
 ----------------------------------------------------------------------
 -----
 title
 -----
 Structure from the checkpoint file:  "E2SN2_118_mol1.chk"
 Charge = -1 Multiplicity = 1

                         Standard orientation:
 ---------------------------------------------------------------------
 Center     Atomic      Atomic             Coordinates (Angstroms)
 Number     Number       Type             X           Y           Z
 ---------------------------------------------------------------------
      1          6           0        0.679970   -0.156800    0.266608
      2          6           0       -0.477176   -0.877857   -0.385470
      3         17           0        0.640582    1.702490   -0.146668
      4          1           0       -0.421913   -2.750197    1.372909
      5          1           0       -0.531563   -1.893885    0.244433
      6          1           0       -0.338141   -1.025911   -1.452501
      7          7           0        0.701538   -0.361861    1.650475
      8          1           0        1.631512   -0.286804    2.039247
      9          1           0        0.270212   -1.295608    1.845239
     10          7           0       -1.778609   -0.256180   -0.200715
     11          8           0       -2.059819    0.198291    0.908575
     12          8           0       -2.563170   -0.303401   -1.158801
     13          6           0        1.912374   -0.585343   -0.422461
     14          7           0        2.904628   -0.971822   -0.922077
 ---------------------------------------------------------------------

 SCF Done:  E(RHF) =  -889.443543707     A.U. after    2 cycles

 The electronic state is 1-A.
 Alpha  occ. eigenvalues -- -105.44575 -20.46053 -20.45674 -15.65647 -15.42770
 Alpha  occ. eigenvalues --  -15.38472 -11.28386 -11.19653 -11.17147 -10.49396
 Alpha  occ. eigenvalues --   -7.66303  -7.65964  -7.65953  -1.52722  -1.36527
 Alpha  occ. eigenvalues --   -1.15136  -1.11374  -1.00957  -0.94547  -0.84606
 Alpha  occ. eigenvalues --   -0.74066  -0.66467  -0.64537  -0.62560  -0.61356
 Alpha  occ. eigenvalues --   -0.57396  -0.52360  -0.51185  -0.47867  -0.44643
 Alpha  occ. eigenvalues --   -0.41024  -0.39648  -0.36792  -0.36002  -0.34914
 Alpha  occ. eigenvalues --   -0.34507  -0.32996  -0.31735  -0.13662
 Alpha virt. eigenvalues --    0.13394   0.14530   0.16934   0.17172   0.17928
 Alpha virt. eigenvalues --    0.18659   0.19637   0.20738   0.21284   0.22270
 Alpha virt. eigenvalues --    0.23152   0.23445   0.24385   0.24709   0.25234

 Mulliken charges:
               1
     1  C   -1.499003
     2  C   -0.434567
     3  Cl  -0.074727
     4  H   -0.476211
     5  H    0.233221
     6  H    0.027504
     7  N    0.735630
     8  H    0.208999
     9  H    0.220403
    10  N    2.951962
    11  O   -1.431157
    12  O   -1.472643
    13  C   -0.847923
    14  N    0.858513
 Sum of Mulliken charges =  -1.00000

 Dipole moment (field-independent basis, Debye):
    X=              1.8071    Y=              5.6271    Z=             -1.9172  Tot=              6.2133

 Test job not archived.
 1\1\GINC-SE112\SP\RHF\Aug-CC-pVDZ\C3H5Cl1N3O2(1-)\OHZDE\09-Apr-2025\0\
 \#t hf aug-cc-pvdz iop(5/13=1,5/36=2,99/5=2) pseudo=read geom=check gu
 ess=(read,tcheck) scf=(maxcycle=1)\\title\\-1,1\C,0,-0.25820868,-0.098
 35082,-0.33837612\C,0,-0.14984029,-0.02164534,1.16711013\Cl,0,1.459998
 8,-0.31470103,-1.1322682\H,0,-2.56194431,-0.8506003,1.47564716\H,0,-1.
 26894354,-0.26297286,1.51556127\H,0,0.22582276,0.93537877,1.5175213\N,
 0,-1.12807799,-1.11733937,-0.74160582\H,0,-1.55321853,-0.93162618,-1.6
 3960146\H,0,-1.84409249,-1.24718197,0.01093744\N,0,0.66281921,-1.05772

 Normal termination of Gaussian 16 at Wed Apr  9 02:35:12 2025.
