 Gaussian 16, Revision C.01,

 ----------------------------------------------------------------------
 #t hf aug-cc-pvdz symm=none int=(grid=ultrafine) guess=(read,tcheck) s
 table=(opt,rrhf)
 ----------------------------------------------------------------------
 -----
 title
 -----
 Symbolic Z-matrix:
 Charge = -1 Multiplicity = 1

 SCF Done:  E(RHF) =  -987.891697157     A.U. after   17 cycles
 Normal termination of Gaussian 16 at Wed Apr  9 02:37:25 2025.
 Gaussian 16:  ES64L-G16RevC.01  3-Jul-2019

 ----------------------------------------------------------------------
 #t hf aug-cc-pvdz iop(5/13=1,5/36=2,99/5=2) pseudo=read geom=check gue
 ss=(read,tcheck) scf=(maxcycle=1)
 ----------------------------------------------------------------------
 -----
 title
 -----
 Structure from the checkpoint file:  "E2SN2_142_mol2.chk"
 Charge = -1 Multiplicity = 1

                         Standard orientation:
 ---------------------------------------------------------------------
 Center     Atomic      Atomic             Coordinates (Angstroms)
 Number     Number       Type             X           Y           Z
 ---------------------------------------------------------------------
      1          6           0        0.538091   -0.292530   -0.361087
      2          6           0       -0.594902   -0.466576    0.647148
      3         17           0        1.962410   -1.080720    0.423741
      4          1           0       -0.356229    0.255090    1.428903
      5          1           0       -0.649502   -1.497089    0.997300
      6          7           0        0.375175   -0.938062   -1.654760
      7          1           0        0.058611   -1.889287   -1.496501
      8          1           0       -0.350533   -0.433015   -2.151721
      9          6           0        0.884187    1.114994   -0.618367
     10          7           0        1.196985    2.135928   -1.108845
     11          7           0       -1.905517   -0.149979    0.071948
     12          8           0       -2.894668   -0.653258    0.609853
     13          8           0       -1.966229    0.632622   -0.883054
     14          9           0        0.465900    1.403456    1.893272
 ---------------------------------------------------------------------

 SCF Done:  E(RHF) =  -988.474681042     A.U. after    2 cycles

 The electronic state is 1-A.
 Alpha  occ. eigenvalues -- -105.45484 -26.10308 -20.47680 -20.47612 -15.67184
 Alpha  occ. eigenvalues --  -15.41128 -15.38292 -11.27112 -11.16176 -11.16122
 Alpha  occ. eigenvalues --  -10.50342  -7.67286  -7.66896  -7.66875  -1.54559
 Alpha  occ. eigenvalues --   -1.38329  -1.17358  -1.14562  -1.07857  -1.01742
 Alpha  occ. eigenvalues --   -0.96625  -0.83144  -0.75791  -0.67732  -0.64296
 Alpha  occ. eigenvalues --   -0.63875  -0.62385  -0.57780  -0.53119  -0.48873
 Alpha  occ. eigenvalues --   -0.47899  -0.45646  -0.39697  -0.38626  -0.37245
 Alpha  occ. eigenvalues --   -0.36659  -0.35405  -0.34407  -0.34224  -0.33505
 Alpha  occ. eigenvalues --   -0.26724  -0.26431  -0.24922
 Alpha virt. eigenvalues --    0.11951   0.13768   0.15120   0.17160   0.17455
 Alpha virt. eigenvalues --    0.19067   0.19754   0.21529   0.22689   0.22946
 Alpha virt. eigenvalues --    0.23408   0.24725   0.25257   0.25828   0.27104

 Mulliken charges:
               1
     1  C   -1.373508
     2  C    0.137860
     3  Cl   0.056646
     4  H    0.441068
     5  H    0.051401
     6  N    0.569972
     7  H    0.171299
     8  H    0.232607
     9  C   -1.341924
    10  N    1.077564
    11  N    2.803485
    12  O   -1.460680
    13  O   -1.387213
    14  F   -0.978578
 Sum of Mulliken charges =  -1.00000

 Dipole moment (field-independent basis, Debye):
    X=             -1.5867    Y=             -8.2309    Z=             -3.5118  Tot=              9.0883

 Test job not archived.
 1\1\GINC-SE344\SP\RHF\Aug-CC-pVDZ\C3H4Cl1F1N3O2(1-)\OHZDE\09-Apr-2025\
 0\\#t hf aug-cc-pvdz iop(5/13=1,5/36=2,99/5=2) pseudo=read geom=check
 guess=(read,tcheck) scf=(maxcycle=1)\\title\\-1,1\C,0,-0.448807,-0.005
 377,-1.354504\C,0,-0.035304,-0.042626,0.114554\Cl,0,-0.034322,-1.64966
 2,-1.979333\H,0,1.053024,0.012202,0.076564\H,0,-0.41688,-0.93852,0.603
 755\N,0,-1.861817,0.195115,-1.637433\H,0,-2.39613,-0.424916,-1.037301\
 H,0,-2.082793,1.15412,-1.39213\C,0,0.298059,0.982853,-2.149923\N,0,0.6
 22818,1.80958,-2.919191\N,0,-0.557227,1.100724,0.868972\O,0,-0.672134,

 Normal termination of Gaussian 16 at Wed Apr  9 02:37:32 2025.
