 Gaussian 16, Revision C.01,

 ----------------------------------------------------------------------
 #t hf aug-cc-pvdz symm=none int=(grid=ultrafine) guess=(read,tcheck) s
 table=(opt,rrhf)
 ----------------------------------------------------------------------
 -----
 title
 -----
 Symbolic Z-matrix:
 Charge = -1 Multiplicity = 1

 SCF Done:  E(RHF) =  -476.166374714     A.U. after   16 cycles
 Normal termination of Gaussian 16 at Wed Apr  9 02:57:11 2025.
 Gaussian 16:  ES64L-G16RevC.01  3-Jul-2019

 ----------------------------------------------------------------------
 #t hf aug-cc-pvdz iop(5/13=1,5/36=2,99/5=2) pseudo=read geom=check gue
 ss=(read,tcheck) scf=(maxcycle=1)
 ----------------------------------------------------------------------
 -----
 title
 -----
 Structure from the checkpoint file:  "E2SN2_37_mol1.chk"
 Charge = -1 Multiplicity = 1

                         Standard orientation:
 ---------------------------------------------------------------------
 Center     Atomic      Atomic             Coordinates (Angstroms)
 Number     Number       Type             X           Y           Z
 ---------------------------------------------------------------------
      1          6           0       -0.136273   -0.054486    0.301548
      2          6           0       -1.005803   -0.128741   -0.871075
      3          9           0       -0.132286   -1.196954    1.149297
      4          1           0       -1.108701    2.262837   -1.392958
      5          1           0       -0.938664    1.206876   -1.331483
      6          1           0       -0.681261   -0.896364   -1.576296
      7          7           0        1.305142    0.008640   -0.215417
      8          8           0        1.865641    1.100947   -0.237735
      9          8           0        1.787763   -1.042200   -0.636885
     10          6           0       -2.480411   -0.160004   -0.531366
     11          1           0       -2.839453    0.865400   -0.341317
     12          1           0       -3.052278   -0.536404   -1.385839
     13          1           0       -2.739664   -0.783848    0.335295
     14          7           0       -0.337607    1.063645    1.172055
     15          1           0       -1.188645    0.869363    1.686695
     16          1           0       -0.525806    1.868149    0.568084
 ---------------------------------------------------------------------

 SCF Done:  E(RHF) =  -476.644896067     A.U. after    2 cycles

 The electronic state is 1-A.
 Alpha  occ. eigenvalues --  -26.31594 -20.45020 -20.44561 -15.63530 -15.36372
 Alpha  occ. eigenvalues --  -11.26378 -11.09014 -11.04775  -1.51782  -1.43625
 Alpha  occ. eigenvalues --   -1.35580  -1.08706  -0.93486  -0.87453  -0.74232
 Alpha  occ. eigenvalues --   -0.68191  -0.64734  -0.61269  -0.57942  -0.56288
 Alpha  occ. eigenvalues --   -0.54029  -0.50961  -0.47735  -0.45722  -0.43718
 Alpha  occ. eigenvalues --   -0.40112  -0.37852  -0.35211  -0.34011  -0.33380
 Alpha  occ. eigenvalues --   -0.31364  -0.30275  -0.10423
 Alpha virt. eigenvalues --    0.13074   0.13508   0.14976   0.15477   0.17617
 Alpha virt. eigenvalues --    0.17942   0.19329   0.20258   0.20746   0.21304
 Alpha virt. eigenvalues --    0.23798   0.25019   0.25104   0.26546   0.26848

 Mulliken charges:
               1
     1  C   -0.107552
     2  C   -0.633215
     3  F   -1.086039
     4  H   -0.720760
     5  H    0.575014
     6  H   -0.051299
     7  N    2.754495
     8  O   -1.383667
     9  O   -1.470493
    10  C   -0.270711
    11  H    0.125544
    12  H    0.067811
    13  H    0.135876
    14  N    0.485861
    15  H    0.300059
    16  H    0.279077
 Sum of Mulliken charges =  -1.00000

 Dipole moment (field-independent basis, Debye):
    X=             -0.8352    Y=             -4.1178    Z=              3.1631  Tot=              5.2592

 Test job not archived.
 1\1\GINC-SE070\SP\RHF\Aug-CC-pVDZ\C3H8F1N2O2(1-)\OHZDE\09-Apr-2025\0\\
 #t hf aug-cc-pvdz iop(5/13=1,5/36=2,99/5=2) pseudo=read geom=check gue
 ss=(read,tcheck) scf=(maxcycle=1)\\title\\-1,1\C,0,-0.08243456,0.01106
 39,-0.33110208\C,0,-0.16120596,-0.10229329,1.12409097\F,0,1.22735991,0
 .02696899,-0.88618074\H,0,-2.46977211,0.66339636,1.41876425\H,0,-1.539
 1996,0.13985619,1.33109656\H,0,0.21679848,-1.06143201,1.48336171\N,0,-
 0.69833131,-1.26653475,-0.91190166\O,0,-1.84698964,-1.21239906,-1.3425
 3479\O,0,-0.01423558,-2.28778432,-0.84955948\C,0,0.37713388,1.10792637

 Normal termination of Gaussian 16 at Wed Apr  9 02:57:17 2025.
