 Gaussian 16, Revision C.01,

 ----------------------------------------------------------------------
 #t hf aug-cc-pvdz symm=none int=(grid=ultrafine) guess=(read,tcheck) s
 table=(opt,rrhf)
 ----------------------------------------------------------------------
 -----
 title
 -----
 Symbolic Z-matrix:
 Charge = -1 Multiplicity = 1

 SCF Done:  E(RHF) =  -823.413996500     A.U. after   16 cycles
 Normal termination of Gaussian 16 at Wed Apr  9 02:37:05 2025.
 Gaussian 16:  ES64L-G16RevC.01  3-Jul-2019

 ----------------------------------------------------------------------
 #t hf aug-cc-pvdz iop(5/13=1,5/36=2,99/5=2) pseudo=read geom=check gue
 ss=(read,tcheck) scf=(maxcycle=1)
 ----------------------------------------------------------------------
 -----
 title
 -----
 Structure from the checkpoint file:  "E2SN2_139_mol1.chk"
 Charge = -1 Multiplicity = 1

                         Standard orientation:
 ---------------------------------------------------------------------
 Center     Atomic      Atomic             Coordinates (Angstroms)
 Number     Number       Type             X           Y           Z
 ---------------------------------------------------------------------
      1          6           0       -0.199883    0.148401    0.087110
      2          6           0        0.770457   -0.332867   -0.865792
      3         17           0       -1.913308   -0.938430    0.127311
      4          9           0        2.745197    0.732641    0.307247
      5          1           0        1.873169    0.385183   -0.382192
      6          1           0        0.493042   -0.113412   -1.899125
      7          7           0        0.178288    0.146170    1.491928
      8          1           0        1.171249    0.390302    1.482478
      9          1           0        0.088341   -0.801222    1.836922
     10          6           0       -0.736505    1.459813   -0.291707
     11          7           0       -1.131059    2.520220   -0.611014
     12          6           0        1.268745   -1.748364   -0.652221
     13          1           0        0.461259   -2.491657   -0.692315
     14          1           0        2.008688   -2.000677   -1.417390
     15          1           0        1.776221   -1.835606    0.311376
 ---------------------------------------------------------------------

 SCF Done:  E(RHF) =  -823.857605747     A.U. after    2 cycles

 The electronic state is 1-A.
 Alpha  occ. eigenvalues -- -105.39442 -26.18957 -15.38987 -15.36919 -11.24292
 Alpha  occ. eigenvalues --  -11.16240 -11.09555 -11.06085 -10.44231  -7.61103
 Alpha  occ. eigenvalues --   -7.60840  -7.60827  -1.27691  -1.10835  -1.07728
 Alpha  occ. eigenvalues --   -0.92460  -0.86824  -0.81338  -0.68805  -0.58418
 Alpha  occ. eigenvalues --   -0.57184  -0.51471  -0.49715  -0.48010  -0.42477
 Alpha  occ. eigenvalues --   -0.42054  -0.40907  -0.37518  -0.36198  -0.35878
 Alpha  occ. eigenvalues --   -0.35464  -0.34894  -0.32812  -0.30609  -0.30163
 Alpha  occ. eigenvalues --   -0.18867
 Alpha virt. eigenvalues --    0.12931   0.13711   0.14666   0.14968   0.17077
 Alpha virt. eigenvalues --    0.17734   0.17950   0.19450   0.20434   0.22616
 Alpha virt. eigenvalues --    0.23275   0.24663   0.25204   0.25466   0.26253

 Mulliken charges:
               1
     1  C   -1.072583
     2  C   -0.280938
     3  Cl  -0.236481
     4  F   -1.062714
     5  H    1.196869
     6  H   -0.031181
     7  N    0.610368
     8  H    0.210932
     9  H    0.250677
    10  C   -1.564021
    11  N    0.920954
    12  C   -0.285698
    13  H    0.174673
    14  H    0.092670
    15  H    0.076474
 Sum of Mulliken charges =  -1.00000

 Dipole moment (field-independent basis, Debye):
    X=             -0.6375    Y=             -4.6400    Z=              0.1313  Tot=              4.6854

 Test job not archived.
 1\1\GINC-SE229\SP\RHF\Aug-CC-pVDZ\C4H7Cl1F1N2(1-)\OHZDE\09-Apr-2025\0\
 \#t hf aug-cc-pvdz iop(5/13=1,5/36=2,99/5=2) pseudo=read geom=check gu
 ess=(read,tcheck) scf=(maxcycle=1)\\title\\-1,1\C,0,-0.22060486,0.0387
 4223,-0.32212117\C,0,-0.13301269,0.07857945,1.1173025\Cl,0,1.57742519,
 -0.1473873,-1.24466551\F,0,-2.52333022,-0.67264827,1.48194946\H,0,-1.4
 9045653,-0.14250769,1.38915848\H,0,0.26505627,1.02467743,1.49058077\N,
 0,-0.96864345,-1.05614288,-0.92061526\H,0,-1.74710053,-1.20751767,-0.2
 7505268\H,0,-0.3802561,-1.8797008,-0.90589127\C,0,-0.66395707,1.320698

 Normal termination of Gaussian 16 at Wed Apr  9 02:37:13 2025.
