 Gaussian 16, Revision C.01,

 ----------------------------------------------------------------------
 #t hf aug-cc-pvdz symm=none int=(grid=ultrafine) guess=(read,tcheck) s
 table=(opt,rrhf)
 ----------------------------------------------------------------------
 -----
 title
 -----
 Symbolic Z-matrix:
 Charge = -1 Multiplicity = 1

 SCF Done:  E(RHF) =  -1334.37741914     A.U. after   16 cycles
 Normal termination of Gaussian 16 at Wed Apr  9 02:35:48 2025.
 Gaussian 16:  ES64L-G16RevC.01  3-Jul-2019

 ----------------------------------------------------------------------
 #t hf aug-cc-pvdz iop(5/13=1,5/36=2,99/5=2) pseudo=read geom=check gue
 ss=(read,tcheck) scf=(maxcycle=1)
 ----------------------------------------------------------------------
 -----
 title
 -----
 Structure from the checkpoint file:  "E2SN2_109_mol2.chk"
 Charge = -1 Multiplicity = 1

                         Standard orientation:
 ---------------------------------------------------------------------
 Center     Atomic      Atomic             Coordinates (Angstroms)
 Number     Number       Type             X           Y           Z
 ---------------------------------------------------------------------
      1          6           0       -0.474065   -0.846860    0.377307
      2          6           0        0.082955    0.507566   -0.111976
      3         17           0       -1.820402   -1.374677   -0.728533
      4          1           0        0.887529    0.782711    0.575089
      5          6           0        0.627602   -1.888310    0.282538
      6          1           0        0.975690   -2.000081   -0.743115
      7          1           0        0.251768   -2.850525    0.639765
      8          1           0        1.490050   -1.568366    0.870444
      9          6           0       -1.043064   -0.782700    1.784919
     10          1           0       -1.345717   -1.783749    2.100571
     11          1           0       -0.272635   -0.411623    2.465786
     12          1           0       -1.906442   -0.121615    1.850084
     13          7           0       -0.986658    1.569310    0.094094
     14          8           0       -1.752205    1.811749   -0.833106
     15          8           0       -1.031230    2.106441    1.204324
     16          7           0        0.581713    0.579245   -1.432263
     17          1           0        0.115702   -0.060000   -2.059872
     18          1           0        1.588144    0.423089   -1.389629
     19         17           0        3.476723    0.155064    0.028038
 ---------------------------------------------------------------------

 SCF Done:  E(RHF) =  -1334.95462809     A.U. after    2 cycles

 The electronic state is 1-A.
 Alpha  occ. eigenvalues -- -105.45261-105.28942 -20.47624 -20.47176 -15.66065
 Alpha  occ. eigenvalues --  -15.37231 -11.22107 -11.21733 -11.14259 -11.12612
 Alpha  occ. eigenvalues --  -10.50165 -10.33540  -7.67093  -7.66759  -7.66746
 Alpha  occ. eigenvalues --   -7.50305  -7.50278  -7.50268  -1.54231  -1.38179
 Alpha  occ. eigenvalues --   -1.12158  -1.03116  -0.94457  -0.90168  -0.85357
 Alpha  occ. eigenvalues --   -0.76623  -0.74377  -0.69564  -0.65893  -0.63405
 Alpha  occ. eigenvalues --   -0.61415  -0.58474  -0.55706  -0.52175  -0.49787
 Alpha  occ. eigenvalues --   -0.47790  -0.46150  -0.43740  -0.41670  -0.39975
 Alpha  occ. eigenvalues --   -0.38498  -0.37303  -0.35343  -0.34590  -0.33468
 Alpha  occ. eigenvalues --   -0.31812  -0.21785  -0.21360  -0.21248
 Alpha virt. eigenvalues --    0.11435   0.12474   0.13899   0.14306   0.15276
 Alpha virt. eigenvalues --    0.16518   0.16953   0.17603   0.18166   0.18734
 Alpha virt. eigenvalues --    0.19964   0.22202   0.22812   0.23606   0.24257

 Mulliken charges:
               1
     1  C   -1.499890
     2  C   -1.724144
     3  Cl  -0.196530
     4  H    0.116067
     5  C    0.227627
     6  H    0.176603
     7  H    0.169355
     8  H    0.343810
     9  C    0.035654
    10  H    0.205820
    11  H    0.264211
    12  H    0.214500
    13  N    3.141188
    14  O   -1.494996
    15  O   -1.519014
    16  N    0.871562
    17  H    0.291144
    18  H    0.343726
    19  Cl  -0.966693
 Sum of Mulliken charges =  -1.00000

 Dipole moment (field-independent basis, Debye):
    X=             -8.7691    Y=             -4.1443    Z=              1.0525  Tot=              9.7560

 Test job not archived.
 1\1\GINC-SE143\SP\RHF\Aug-CC-pVDZ\C4H9Cl2N2O2(1-)\OHZDE\09-Apr-2025\0\
 \#t hf aug-cc-pvdz iop(5/13=1,5/36=2,99/5=2) pseudo=read geom=check gu
 ess=(read,tcheck) scf=(maxcycle=1)\\title\\-1,1\C,0,-0.313481,-0.01179
 6,-1.510463\C,0,0.044179,-0.120212,-0.012309\Cl,0,-2.09196,0.339425,-1
 .67706\H,0,1.116474,-0.326418,0.040279\C,0,0.440599,1.164449,-2.106349
 \H,0,0.17076,2.095909,-1.611181\H,0,0.208311,1.244987,-3.171372\H,0,1.
 513368,1.030898,-1.954213\C,0,-0.029662,-1.288708,-2.28389\H,0,-0.2273
 03,-1.122272,-3.345291\H,0,1.021565,-1.559102,-2.15486\H,0,-0.643028,-

 Normal termination of Gaussian 16 at Wed Apr  9 02:36:01 2025.
