 Gaussian 16, Revision C.01,

 ----------------------------------------------------------------------
 #t hf aug-cc-pvdz symm=none int=(grid=ultrafine) guess=(read,tcheck) s
 table=(opt,rrhf)
 ----------------------------------------------------------------------
 -----
 title
 -----
 Symbolic Z-matrix:
 Charge = -1 Multiplicity = 1

 SCF Done:  E(RHF) =  -825.850080981     A.U. after   13 cycles
 Normal termination of Gaussian 16 at Wed Apr  9 02:55:31 2025.
 Gaussian 16:  ES64L-G16RevC.01  3-Jul-2019

 ----------------------------------------------------------------------
 #t hf aug-cc-pvdz iop(5/13=1,5/36=2,99/5=2) pseudo=read geom=check gue
 ss=(read,tcheck) scf=(maxcycle=1)
 ----------------------------------------------------------------------
 -----
 title
 -----
 Structure from the checkpoint file:  "E2SN2_354_mol2.chk"
 Charge = -1 Multiplicity = 1

                         Standard orientation:
 ---------------------------------------------------------------------
 Center     Atomic      Atomic             Coordinates (Angstroms)
 Number     Number       Type             X           Y           Z
 ---------------------------------------------------------------------
      1          6           0       -0.919495   -0.631988   -0.006212
      2          6           0       -0.975826    0.831117   -0.482085
      3          9           0       -2.243710   -1.142121   -0.193136
      4          1           0       -1.081357    0.790588   -1.580324
      5          6           0       -0.006361   -1.467541   -0.871310
      6          1           0       -0.040735   -2.510256   -0.543599
      7          1           0       -0.333434   -1.420489   -1.914267
      8          1           0        1.024719   -1.113663   -0.790854
      9          6           0       -0.587200   -0.753898    1.463214
     10          1           0       -1.203077   -0.067437    2.046750
     11          1           0        0.471981   -0.536842    1.617007
     12          1           0       -0.781019   -1.778934    1.790248
     13          7           0        0.183928    1.643418   -0.187329
     14          1           0        0.246736    1.741049    0.820228
     15          1           0        1.058344    1.203508   -0.472608
     16          7           0       -2.111801    1.490516    0.159777
     17          1           0       -2.131070    2.442049   -0.188697
     18          1           0       -2.964371    1.021190   -0.117155
     19         17           0        3.197357    0.041450    0.037807
 ---------------------------------------------------------------------

 SCF Done:  E(RHF) =  -826.314128495     A.U. after    2 cycles

 The electronic state is 1-A.
 Alpha  occ. eigenvalues -- -105.27321 -26.31799 -15.37320 -15.34662 -11.19192
 Alpha  occ. eigenvalues --  -11.16807 -11.10227 -11.09592 -10.31883  -7.48644
 Alpha  occ. eigenvalues --   -7.48620  -7.48615  -1.43518  -1.10799  -1.00685
 Alpha  occ. eigenvalues --   -0.94187  -0.82856  -0.77600  -0.72408  -0.66061
 Alpha  occ. eigenvalues --   -0.60848  -0.58844  -0.54496  -0.53706  -0.51391
 Alpha  occ. eigenvalues --   -0.47537  -0.47409  -0.46152  -0.42564  -0.42038
 Alpha  occ. eigenvalues --   -0.40892  -0.39347  -0.36918  -0.33123  -0.29241
 Alpha  occ. eigenvalues --   -0.19871  -0.19547  -0.19531
 Alpha virt. eigenvalues --    0.11775   0.12518   0.12899   0.14122   0.14267
 Alpha virt. eigenvalues --    0.15071   0.16815   0.17524   0.17743   0.18747
 Alpha virt. eigenvalues --    0.20157   0.22077   0.23674   0.24266   0.24432

 Mulliken charges:
               1
     1  C    0.468162
     2  C   -2.598291
     3  F   -1.049988
     4  H   -0.066127
     5  C   -0.005613
     6  H    0.189994
     7  H    0.225513
     8  H    0.152756
     9  C   -0.330753
    10  H    0.249589
    11  H    0.315194
    12  H    0.122711
    13  N    0.898671
    14  H    0.318045
    15  H    0.125187
    16  N    0.588737
    17  H    0.196204
    18  H    0.187375
    19  Cl  -0.987365
 Sum of Mulliken charges =  -1.00000

 Dipole moment (field-independent basis, Debye):
    X=            -10.6021    Y=             -0.7159    Z=             -0.4811  Tot=             10.6372

 Test job not archived.
 1\1\GINC-SE339\SP\RHF\Aug-CC-pVDZ\C4H11Cl1F1N2(1-)\OHZDE\09-Apr-2025\0
 \\#t hf aug-cc-pvdz iop(5/13=1,5/36=2,99/5=2) pseudo=read geom=check g
 uess=(read,tcheck) scf=(maxcycle=1)\\title\\-1,1\C,0,-0.043326,-0.0114
 54,-0.027229\C,0,-0.345196,0.294721,-1.505551\F,0,1.383149,-0.091654,0
 .05913\H,0,-0.020086,1.336334,-1.673643\C,0,-0.469996,1.119842,0.87747
 \H,0,-0.183185,0.895241,1.908549\H,0,0.024007,2.047641,0.573993\H,0,-1
 .554749,1.24943,0.840766\C,0,-0.602559,-1.34338,0.417437\H,0,-0.352368
 ,-2.118299,-0.309167\H,0,-1.68599,-1.26497,0.529954\H,0,-0.172432,-1.6

 Normal termination of Gaussian 16 at Wed Apr  9 02:55:40 2025.
