 Gaussian 16, Revision C.01,

 ----------------------------------------------------------------------
 #t hf aug-cc-pvdz symm=none int=(grid=ultrafine) guess=(read,tcheck) s
 table=(opt,rrhf)
 ----------------------------------------------------------------------
 -----
 title
 -----
 Symbolic Z-matrix:
 Charge = -1 Multiplicity = 1

 SCF Done:  E(RHF) =  -971.901802894     A.U. after   16 cycles
 Normal termination of Gaussian 16 at Wed Apr  9 02:41:04 2025.
 Gaussian 16:  ES64L-G16RevC.01  3-Jul-2019

 ----------------------------------------------------------------------
 #t hf aug-cc-pvdz iop(5/13=1,5/36=2,99/5=2) pseudo=read geom=check gue
 ss=(read,tcheck) scf=(maxcycle=1)
 ----------------------------------------------------------------------
 -----
 title
 -----
 Structure from the checkpoint file:  "E2SN2_187_mol2.chk"
 Charge = -1 Multiplicity = 1

                         Standard orientation:
 ---------------------------------------------------------------------
 Center     Atomic      Atomic             Coordinates (Angstroms)
 Number     Number       Type             X           Y           Z
 ---------------------------------------------------------------------
      1          6           0       -0.962859    0.285797    0.346497
      2          6           0        0.260949    0.005184   -0.523516
      3         17           0       -2.416715   -0.491777   -0.446677
      4          1           0       -0.060079   -0.263767   -1.540673
      5          1           0       -0.810092   -0.224379    1.287420
      6          6           0       -1.228953    1.756085    0.569111
      7          1           0       -1.327454    2.305996   -0.370134
      8          1           0       -0.368514    2.105661    1.139599
      9          1           0       -2.145861    1.883544    1.148909
     10          7           0        0.999192   -1.228652   -0.062267
     11          8           0        2.144212   -1.361716   -0.475179
     12          8           0        0.366951   -2.070188    0.560975
     13          6           0        1.194421    1.122298   -0.635942
     14          7           0        1.814490    2.037289   -1.038726
     15          9           0        1.158860    0.592416    1.601340
 ---------------------------------------------------------------------

 SCF Done:  E(RHF) =  -972.471350168     A.U. after    2 cycles

 The electronic state is 1-A.
 Alpha  occ. eigenvalues -- -105.44022 -26.10356 -20.46195 -20.45999 -15.66388
 Alpha  occ. eigenvalues --  -15.38010 -11.22712 -11.19585 -11.16797 -11.11459
 Alpha  occ. eigenvalues --  -10.48895  -7.65823  -7.65500  -7.65479  -1.53789
 Alpha  occ. eigenvalues --   -1.37695  -1.17488  -1.09144  -1.04471  -0.96558
 Alpha  occ. eigenvalues --   -0.87379  -0.79460  -0.72124  -0.67559  -0.64354
 Alpha  occ. eigenvalues --   -0.61609  -0.56153  -0.51995  -0.49672  -0.47495
 Alpha  occ. eigenvalues --   -0.44962  -0.42285  -0.40101  -0.38235  -0.37101
 Alpha  occ. eigenvalues --   -0.35399  -0.35098  -0.33657  -0.33098  -0.31706
 Alpha  occ. eigenvalues --   -0.27022  -0.26740  -0.26036
 Alpha virt. eigenvalues --    0.12653   0.13283   0.14468   0.16309   0.17118
 Alpha virt. eigenvalues --    0.18301   0.19228   0.20175   0.21700   0.23743
 Alpha virt. eigenvalues --    0.23897   0.24375   0.24906   0.25479   0.26615

 Mulliken charges:
               1
     1  C   -0.581536
     2  C    0.281464
     3  Cl  -0.207282
     4  H    0.157446
     5  H    0.490072
     6  C   -0.268954
     7  H    0.309287
     8  H    0.454388
     9  H    0.018741
    10  N    3.245136
    11  O   -1.569107
    12  O   -1.578150
    13  C   -1.912753
    14  N    1.089370
    15  F   -0.928123
 Sum of Mulliken charges =  -1.00000

 Dipole moment (field-independent basis, Debye):
    X=             -6.2554    Y=             -1.5336    Z=             -2.9456  Tot=              7.0823

 Test job not archived.
 1\1\GINC-SE131\SP\RHF\Aug-CC-pVDZ\C4H5Cl1F1N2O2(1-)\OHZDE\09-Apr-2025\
 0\\#t hf aug-cc-pvdz iop(5/13=1,5/36=2,99/5=2) pseudo=read geom=check
 guess=(read,tcheck) scf=(maxcycle=1)\\title\\-1,1\C,0,-0.116811,0.0223
 34,0.064157\C,0,-0.625556,-0.318456,-1.335276\Cl,0,1.655981,0.456297,-
 0.063622\H,0,0.223744,-0.564145,-1.989744\H,0,-0.634948,0.915739,0.384
 023\C,0,-0.297869,-1.092506,1.067381\H,0,0.166572,-2.025362,0.738197\H
 ,0,-1.37822,-1.203715,1.159516\H,0,0.136957,-0.802683,2.026579\N,0,-1.
 239304,0.884222,-2.011283\O,0,-1.949572,0.656899,-2.982424\O,0,-0.8750

 Normal termination of Gaussian 16 at Wed Apr  9 02:41:12 2025.
