 Gaussian 16, Revision C.01,

 ----------------------------------------------------------------------
 #t hf aug-cc-pvdz symm=none int=(grid=ultrafine) guess=(read,tcheck) s
 table=(opt,rrhf)
 ----------------------------------------------------------------------
 -----
 title
 -----
 Symbolic Z-matrix:
 Charge = -1 Multiplicity = 1

 SCF Done:  E(RHF) =  -1350.36725545     A.U. after   15 cycles
 Normal termination of Gaussian 16 at Wed Apr  9 03:01:46 2025.
 Gaussian 16:  ES64L-G16RevC.01  3-Jul-2019

 ----------------------------------------------------------------------
 #t hf aug-cc-pvdz iop(5/13=1,5/36=2,99/5=2) pseudo=read geom=check gue
 ss=(read,tcheck) scf=(maxcycle=1)
 ----------------------------------------------------------------------
 -----
 title
 -----
 Structure from the checkpoint file:  "E2SN2_44_mol2.chk"
 Charge = -1 Multiplicity = 1

                         Standard orientation:
 ---------------------------------------------------------------------
 Center     Atomic      Atomic             Coordinates (Angstroms)
 Number     Number       Type             X           Y           Z
 ---------------------------------------------------------------------
      1          6           0       -0.399367   -0.275663   -0.089732
      2          6           0        0.192505    1.021380    0.466403
      3         17           0       -0.737096   -1.418864    1.325048
      4          1           0        1.133644    0.677410    0.911448
      5          7           0       -1.804068   -0.101891   -0.693832
      6          8           0       -2.255360   -1.060282   -1.308848
      7          8           0       -2.376527    0.977599   -0.557066
      8          7           0        0.398669   -0.814821   -1.085040
      9          1           0        0.130334   -1.757711   -1.328654
     10          1           0        1.403121   -0.741898   -0.862009
     11          7           0       -0.628328    1.591056    1.528152
     12          1           0       -1.329564    2.195854    1.121201
     13          1           0       -0.030150    2.148340    2.124018
     14          6           0        0.557857    1.999169   -0.652248
     15          1           0        1.023851    2.876885   -0.194945
     16          1           0        1.279023    1.559641   -1.338921
     17          1           0       -0.331587    2.322363   -1.198900
     18         17           0        3.437482   -0.334615   -0.201367
 ---------------------------------------------------------------------

 SCF Done:  E(RHF) =  -1350.96023481     A.U. after    2 cycles

 The electronic state is 1-A.
 Alpha  occ. eigenvalues -- -105.44518-105.29037 -20.49212 -20.48970 -15.68207
 Alpha  occ. eigenvalues --  -15.38504 -15.38143 -11.28678 -11.16662 -11.11323
 Alpha  occ. eigenvalues --  -10.49393 -10.33646  -7.66321  -7.65955  -7.65940
 Alpha  occ. eigenvalues --   -7.50424  -7.50382  -7.50369  -1.56298  -1.40247
 Alpha  occ. eigenvalues --   -1.15183  -1.08214  -0.97782  -0.91035  -0.89481
 Alpha  occ. eigenvalues --   -0.78052  -0.74776  -0.73139  -0.65846  -0.64649
 Alpha  occ. eigenvalues --   -0.63338  -0.60735  -0.58362  -0.53462  -0.50876
 Alpha  occ. eigenvalues --   -0.49567  -0.46902  -0.43197  -0.42274  -0.38949
 Alpha  occ. eigenvalues --   -0.37933  -0.35535  -0.35254  -0.34087  -0.33425
 Alpha  occ. eigenvalues --   -0.31821  -0.22068  -0.21442  -0.21309
 Alpha virt. eigenvalues --    0.11762   0.13196   0.13712   0.14641   0.14818
 Alpha virt. eigenvalues --    0.16278   0.17150   0.17581   0.19038   0.20163
 Alpha virt. eigenvalues --    0.21572   0.22690   0.23782   0.24583   0.25239

 Mulliken charges:
               1
     1  C   -1.928433
     2  C   -1.483419
     3  Cl   0.015899
     4  H    0.167873
     5  N    3.314040
     6  O   -1.604868
     7  O   -1.491593
     8  N    0.722728
     9  H    0.344325
    10  H    0.041089
    11  N    0.861673
    12  H    0.206433
    13  H    0.211164
    14  C   -0.039700
    15  H    0.132655
    16  H    0.273769
    17  H    0.220240
    18  Cl  -0.963876
 Sum of Mulliken charges =  -1.00000

 Dipole moment (field-independent basis, Debye):
    X=             -7.9691    Y=              2.7568    Z=              0.8610  Tot=              8.4764

 Test job not archived.
 1\1\GINC-SE322\SP\RHF\Aug-CC-pVDZ\C3H8Cl2N3O2(1-)\OHZDE\09-Apr-2025\0\
 \#t hf aug-cc-pvdz iop(5/13=1,5/36=2,99/5=2) pseudo=read geom=check gu
 ess=(read,tcheck) scf=(maxcycle=1)\\title\\-1,1\C,0,-0.252231,-0.07976
 ,-1.472777\C,0,-0.022239,-0.116076,0.039739\Cl,0,0.020995,-1.780561,-2
 .147461\H,0,1.037712,-0.387793,0.108993\N,0,-1.716793,0.181563,-1.8665
 89\O,0,-1.932348,0.395463,-3.053267\O,0,-2.572914,0.192133,-0.984174\N
 ,0,0.506095,0.907104,-2.080421\H,0,0.515896,0.823592,-3.087061\H,0,1.4
 57376,0.966427,-1.686049\N,0,-0.800964,-1.162694,0.69073\H,0,-1.713447

 Normal termination of Gaussian 16 at Wed Apr  9 03:01:57 2025.
