 Gaussian 16, Revision C.01,

 ----------------------------------------------------------------------
 #t hf aug-cc-pvdz symm=none int=(grid=ultrafine) guess=(read,tcheck) s
 table=(opt,rrhf)
 ----------------------------------------------------------------------
 -----
 title
 -----
 Symbolic Z-matrix:
 Charge = -1 Multiplicity = 1

 SCF Done:  E(RHF) =  -839.418172546     A.U. after   16 cycles
 Normal termination of Gaussian 16 at Wed Apr  9 02:58:09 2025.
 Gaussian 16:  ES64L-G16RevC.01  3-Jul-2019

 ----------------------------------------------------------------------
 #t hf aug-cc-pvdz iop(5/13=1,5/36=2,99/5=2) pseudo=read geom=check gue
 ss=(read,tcheck) scf=(maxcycle=1)
 ----------------------------------------------------------------------
 -----
 title
 -----
 Structure from the checkpoint file:  "E2SN2_394_mol1.chk"
 Charge = -1 Multiplicity = 1

                         Standard orientation:
 ---------------------------------------------------------------------
 Center     Atomic      Atomic             Coordinates (Angstroms)
 Number     Number       Type             X           Y           Z
 ---------------------------------------------------------------------
      1          6           0        0.062305    0.056341    0.381118
      2          1           0        1.173744   -1.544925    1.078236
      3         17           0       -2.114183   -0.397840   -0.168181
      4          9           0        1.922716    0.616451    0.703486
      5          6           0        0.632467   -1.328888    0.149798
      6          1           0       -0.172352   -2.052961    0.036195
      7          7           0       -0.256322    0.423361    1.724196
      8          1           0       -1.083684    1.003189    1.725224
      9          1           0        0.557173    0.946948    2.030022
     10          6           0        0.104354    1.057870   -0.672113
     11          7           0        0.117659    1.927684   -1.464295
     12          7           0        1.468163   -1.331679   -1.041699
     13          1           0        1.817815   -2.267774   -1.204051
     14          1           0        2.242723   -0.716755   -0.818147
 ---------------------------------------------------------------------

 SCF Done:  E(RHF) =  -839.875436584     A.U. after    2 cycles

 The electronic state is 1-A.
 Alpha  occ. eigenvalues -- -105.33924 -26.16727 -15.37605 -15.37014 -15.35400
 Alpha  occ. eigenvalues --  -11.27682 -11.15360 -11.13870 -10.38731  -7.55555
 Alpha  occ. eigenvalues --   -7.55387  -7.55376  -1.24959  -1.10016  -1.06588
 Alpha  occ. eigenvalues --   -1.05314  -0.87804  -0.79694  -0.75632  -0.61489
 Alpha  occ. eigenvalues --   -0.58631  -0.57932  -0.50618  -0.48775  -0.46580
 Alpha  occ. eigenvalues --   -0.44485  -0.40556  -0.36594  -0.34600  -0.33151
 Alpha  occ. eigenvalues --   -0.32301  -0.31230  -0.30727  -0.26271  -0.25479
 Alpha  occ. eigenvalues --   -0.25448
 Alpha virt. eigenvalues --    0.12664   0.14116   0.14984   0.15392   0.16995
 Alpha virt. eigenvalues --    0.17571   0.20111   0.21017   0.22193   0.23037
 Alpha virt. eigenvalues --    0.24010   0.25276   0.26113   0.26704   0.27366

 Mulliken charges:
               1
     1  C   -0.690334
     2  H    0.245027
     3  Cl  -0.564372
     4  F   -0.881263
     5  C   -0.085985
     6  H    0.096334
     7  N    0.634101
     8  H    0.233065
     9  H    0.323322
    10  C   -1.904010
    11  N    1.028180
    12  N    0.210441
    13  H    0.103725
    14  H    0.251768
 Sum of Mulliken charges =  -1.00000

 Dipole moment (field-independent basis, Debye):
    X=              1.5785    Y=             -3.2885    Z=              2.8715  Tot=              4.6424

 Test job not archived.
 1\1\GINC-SE208\SP\RHF\Aug-CC-pVDZ\C3H6Cl1F1N3(1-)\OHZDE\09-Apr-2025\0\
 \#t hf aug-cc-pvdz iop(5/13=1,5/36=2,99/5=2) pseudo=read geom=check gu
 ess=(read,tcheck) scf=(maxcycle=1)\\title\\-1,1\C,0,0.40602118,-0.0282
 8724,-0.01339812\H,0,1.24105841,1.73638323,-0.70185737\Cl,0,-1.8222662
 6,-0.32136673,-0.45379523\F,0,2.29134162,0.08793745,0.54412639\C,0,0.4
 2440006,1.48733661,-0.01432825\H,0,-0.50774025,1.87474207,-0.42170114\
 N,0,0.82396052,-0.69438049,-1.20576213\H,0,0.26950523,-1.52908125,-1.3
 3453908\H,0,1.79521819,-0.92523616,-1.02462259\C,0,0.24269188,-0.76434

 Normal termination of Gaussian 16 at Wed Apr  9 02:58:15 2025.
