 Gaussian 16, Revision C.01,

 ----------------------------------------------------------------------
 #t hf aug-cc-pvdz symm=none int=(grid=ultrafine) guess=(read,tcheck) s
 table=(opt,rrhf)
 ----------------------------------------------------------------------
 -----
 title
 -----
 Symbolic Z-matrix:
 Charge = -1 Multiplicity = 1

 SCF Done:  E(RHF) =  -779.535932183     A.U. after   16 cycles
 Normal termination of Gaussian 16 at Wed Apr  9 02:56:24 2025.
 Gaussian 16:  ES64L-G16RevC.01  3-Jul-2019

 ----------------------------------------------------------------------
 #t hf aug-cc-pvdz iop(5/13=1,5/36=2,99/5=2) pseudo=read geom=check gue
 ss=(read,tcheck) scf=(maxcycle=1)
 ----------------------------------------------------------------------
 -----
 title
 -----
 Structure from the checkpoint file:  "E2SN2_362_mol2.chk"
 Charge = -1 Multiplicity = 1

                         Standard orientation:
 ---------------------------------------------------------------------
 Center     Atomic      Atomic             Coordinates (Angstroms)
 Number     Number       Type             X           Y           Z
 ---------------------------------------------------------------------
      1          6           0       -0.594837    0.250778    0.135728
      2          6           0        0.771702    0.317891   -0.594988
      3         17           0       -1.393545   -1.304316   -0.435470
      4          1           0        0.564874    0.043898   -1.634156
      5          6           0       -0.474411    0.161153    1.647302
      6          1           0        0.129008   -0.689872    1.969445
      7          1           0       -0.047039    1.108415    1.993805
      8          1           0       -1.474815    0.071851    2.078887
      9          7           0       -1.371117    1.366371   -0.336138
     10          1           0       -2.317944    1.256780    0.018064
     11          1           0       -0.977358    2.205706    0.160532
     12          6           0        1.700056   -0.699218   -0.067380
     13          7           0        2.444384   -1.509859    0.342317
     14          7           0        1.406488    1.627688   -0.581178
     15          1           0        1.147904    2.153668    0.269356
     16          1           0        0.961054    2.167268   -1.315196
     17          1           0       -0.068756    3.282644    1.163283
 ---------------------------------------------------------------------

 SCF Done:  E(RHF) =  -779.948907002     A.U. after    2 cycles

 The electronic state is 1-A.
 Alpha  occ. eigenvalues -- -105.43714 -15.40019 -15.36329 -15.36094 -11.22540
 Alpha  occ. eigenvalues --  -11.19395 -11.17112 -11.11138 -10.48624  -7.65542
 Alpha  occ. eigenvalues --   -7.65218  -7.65205  -1.12646  -1.09923  -1.05258
 Alpha  occ. eigenvalues --   -0.95458  -0.87341  -0.84867  -0.69847  -0.61162
 Alpha  occ. eigenvalues --   -0.58535  -0.55783  -0.52618  -0.51389  -0.49052
 Alpha  occ. eigenvalues --   -0.46688  -0.46584  -0.41943  -0.40429  -0.37770
 Alpha  occ. eigenvalues --   -0.37299  -0.35736  -0.33759  -0.32818  -0.30751
 Alpha  occ. eigenvalues --   -0.11587
 Alpha virt. eigenvalues --    0.13060   0.13429   0.14163   0.15572   0.16003
 Alpha virt. eigenvalues --    0.17129   0.17979   0.18051   0.19914   0.21051
 Alpha virt. eigenvalues --    0.21963   0.22704   0.23875   0.24613   0.25084

 Mulliken charges:
               1
     1  C   -2.305313
     2  C   -0.064848
     3  Cl  -0.106601
     4  H    0.161087
     5  C   -0.037480
     6  H    0.304065
     7  H    0.248890
     8  H    0.095586
     9  N    0.793873
    10  H    0.298489
    11  H    0.062997
    12  C   -1.695693
    13  N    0.938843
    14  N    0.575793
    15  H    0.196234
    16  H    0.301367
    17  H   -0.767287
 Sum of Mulliken charges =  -1.00000

 Dipole moment (field-independent basis, Debye):
    X=             -3.3904    Y=             -6.7615    Z=             -3.1275  Tot=              8.1850

 Test job not archived.
 1\1\GINC-SE114\SP\RHF\Aug-CC-pVDZ\C4H9Cl1N3(1-)\OHZDE\09-Apr-2025\0\\#
 t hf aug-cc-pvdz iop(5/13=1,5/36=2,99/5=2) pseudo=read geom=check gues
 s=(read,tcheck) scf=(maxcycle=1)\\title\\-1,1\C,0,-0.022503,0.016043,-
 0.037287\C,0,-0.28845,0.145422,-1.55992\Cl,0,1.805965,-0.051622,0.1488
 5\H,0,0.38168,-0.574965,-2.039177\C,0,-0.509212,1.207038,0.770201\H,0,
 -0.079694,2.149943,0.425848\H,0,-1.602554,1.217478,0.70303\H,0,-0.2435
 ,1.057212,1.819962\N,0,-0.573314,-1.248251,0.372569\H,0,-0.281059,-1.4
 17087,1.331752\H,0,-1.61298,-1.094977,0.41515\C,0,0.105552,1.479121,-2

 Normal termination of Gaussian 16 at Wed Apr  9 02:56:32 2025.
