 Gaussian 16, Revision C.01,

 ----------------------------------------------------------------------
 #t hf aug-cc-pvdz symm=none int=(grid=ultrafine) guess=(read,tcheck) s
 table=(opt,rrhf)
 ----------------------------------------------------------------------
 -----
 title
 -----
 Symbolic Z-matrix:
 Charge = -1 Multiplicity = 1

 SCF Done:  E(RHF) =  -1099.75123722     A.U. after   16 cycles
 Normal termination of Gaussian 16 at Wed Apr  9 02:46:21 2025.
 Gaussian 16:  ES64L-G16RevC.01  3-Jul-2019

 ----------------------------------------------------------------------
 #t hf aug-cc-pvdz iop(5/13=1,5/36=2,99/5=2) pseudo=read geom=check gue
 ss=(read,tcheck) scf=(maxcycle=1)
 ----------------------------------------------------------------------
 -----
 title
 -----
 Structure from the checkpoint file:  "E2SN2_237_mol2.chk"
 Charge = -1 Multiplicity = 1

                         Standard orientation:
 ---------------------------------------------------------------------
 Center     Atomic      Atomic             Coordinates (Angstroms)
 Number     Number       Type             X           Y           Z
 ---------------------------------------------------------------------
      1          6           0       -0.198356   -0.517012    0.620142
      2          6           0        0.010868    0.900497    0.138465
      3          9           0       -1.253505   -0.560473    1.503981
      4          1           0        0.505840    1.473220    0.917514
      5          1           0        0.631361    0.921358   -0.756320
      6          7           0       -0.670113   -1.426953   -0.545201
      7          8           0       -1.289437   -2.438111   -0.225419
      8          8           0       -0.289536   -1.145000   -1.674510
      9          7           0        0.959285   -1.014533    1.201107
     10          1           0        1.819328   -0.644215    0.766016
     11          1           0        0.956066   -2.022229    1.275549
     12          7           0       -1.283681    1.573125   -0.153433
     13          8           0       -1.376141    2.758377    0.160909
     14          8           0       -2.159890    0.923000   -0.718522
     15         17           0        3.316204    0.488683   -0.243953
 ---------------------------------------------------------------------

 SCF Done:  E(RHF) =  -1100.44408489     A.U. after    2 cycles

 The electronic state is 1-A.
 Alpha  occ. eigenvalues -- -105.30333 -26.38525 -20.50099 -20.50031 -20.49648
 Alpha  occ. eigenvalues --  -20.49383 -15.69643 -15.68490 -15.40697 -11.33996
 Alpha  occ. eigenvalues --  -11.21586 -10.34962  -7.51742  -7.51695  -7.51679
 Alpha  occ. eigenvalues --   -1.57393  -1.56711  -1.51805  -1.41148  -1.40612
 Alpha  occ. eigenvalues --   -1.14984  -1.04343  -0.95418  -0.83133  -0.76634
 Alpha  occ. eigenvalues --   -0.75087  -0.72229  -0.69509  -0.68232  -0.66035
 Alpha  occ. eigenvalues --   -0.64978  -0.64300  -0.61265  -0.60155  -0.56396
 Alpha  occ. eigenvalues --   -0.53853  -0.51468  -0.47854  -0.42243  -0.40582
 Alpha  occ. eigenvalues --   -0.39565  -0.38899  -0.36297  -0.35847  -0.34806
 Alpha  occ. eigenvalues --   -0.23533  -0.22868  -0.22645
 Alpha virt. eigenvalues --    0.13404   0.14723   0.15192   0.16288   0.16784
 Alpha virt. eigenvalues --    0.18187   0.18860   0.20679   0.21469   0.22406
 Alpha virt. eigenvalues --    0.24200   0.24856   0.25444   0.26272   0.26784

 Mulliken charges:
               1
     1  C   -0.072924
     2  C   -0.463165
     3  F   -1.021188
     4  H    0.145545
     5  H    0.263864
     6  N    2.913703
     7  O   -1.479607
     8  O   -1.466172
     9  N    0.668875
    10  H    0.171962
    11  H    0.269746
    12  N    2.865362
    13  O   -1.433659
    14  O   -1.419360
    15  Cl  -0.942982
 Sum of Mulliken charges =  -1.00000

 Dipole moment (field-independent basis, Debye):
    X=             -6.7704    Y=             -1.5964    Z=              1.9125  Tot=              7.2142

 Test job not archived.
 1\1\GINC-SE116\SP\RHF\Aug-CC-pVDZ\C2H4Cl1F1N3O4(1-)\OHZDE\09-Apr-2025\
 0\\#t hf aug-cc-pvdz iop(5/13=1,5/36=2,99/5=2) pseudo=read geom=check
 guess=(read,tcheck) scf=(maxcycle=1)\\title\\-1,1\C,0,-0.049958,0.0472
 36,-0.034592\C,0,-0.732135,0.147809,-1.37982\F,0,1.27197,-0.299239,-0.
 204482\H,0,-0.935164,-0.851863,-1.753131\H,0,-1.674633,0.687693,-1.300
 385\N,0,0.029796,1.440655,0.644079\O,0,0.91653,1.584592,1.481485\O,0,-
 0.85966,2.244577,0.394576\N,0,-0.703594,-0.865435,0.780866\H,0,-1.7223
 36,-0.895688,0.615449\H,0,-0.464428,-0.757498,1.756649\N,0,0.133765,0.

 Normal termination of Gaussian 16 at Wed Apr  9 02:46:30 2025.
