 Gaussian 16, Revision C.01,

 ----------------------------------------------------------------------
 #t hf aug-cc-pvdz symm=none int=(grid=ultrafine) guess=(read,tcheck) s
 table=(opt,rrhf)
 ----------------------------------------------------------------------
 -----
 title
 -----
 Symbolic Z-matrix:
 Charge = -1 Multiplicity = 1

 SCF Done:  E(RHF) =  -987.880965529     A.U. after   17 cycles
 Normal termination of Gaussian 16 at Wed Apr  9 02:57:29 2025.
 Gaussian 16:  ES64L-G16RevC.01  3-Jul-2019

 ----------------------------------------------------------------------
 #t hf aug-cc-pvdz iop(5/13=1,5/36=2,99/5=2) pseudo=read geom=check gue
 ss=(read,tcheck) scf=(maxcycle=1)
 ----------------------------------------------------------------------
 -----
 title
 -----
 Structure from the checkpoint file:  "E2SN2_375_mol1.chk"
 Charge = -1 Multiplicity = 1

                         Standard orientation:
 ---------------------------------------------------------------------
 Center     Atomic      Atomic             Coordinates (Angstroms)
 Number     Number       Type             X           Y           Z
 ---------------------------------------------------------------------
      1          6           0        0.377534    0.099302    0.429760
      2          1           0       -0.524237    0.960165   -1.276615
      3          9           0       -0.865837   -1.258987    1.276991
      4         17           0        1.849850    1.339315   -0.177966
      5          6           0       -0.810584    0.767026   -0.234667
      6          1           0        0.522570    0.178322    1.488616
      7          7           0        0.861754   -1.152190   -0.180960
      8          8           0        0.404122   -1.442742   -1.284039
      9          8           0        1.732369   -1.767983    0.417572
     10          7           0       -1.109895    1.999790    0.507705
     11          1           0       -1.969619    2.388939    0.138719
     12          1           0       -0.361155    2.656829    0.320223
     13          6           0       -2.035612   -0.042088   -0.293958
     14          7           0       -3.123635   -0.402082   -0.557247
 ---------------------------------------------------------------------

 SCF Done:  E(RHF) =  -988.464918304     A.U. after    2 cycles

 The electronic state is 1-A.
 Alpha  occ. eigenvalues -- -105.42288 -26.13728 -20.45908 -20.45869 -15.66715
 Alpha  occ. eigenvalues --  -15.40220 -15.37361 -11.27050 -11.20999 -11.16038
 Alpha  occ. eigenvalues --  -10.47111  -7.63991  -7.63727  -7.63707  -1.53587
 Alpha  occ. eigenvalues --   -1.37460  -1.21642  -1.12054  -1.07299  -1.01752
 Alpha  occ. eigenvalues --   -0.88415  -0.87044  -0.73477  -0.67433  -0.64414
 Alpha  occ. eigenvalues --   -0.61512  -0.60496  -0.55447  -0.55129  -0.51891
 Alpha  occ. eigenvalues --   -0.46712  -0.40198  -0.38435  -0.37699  -0.36514
 Alpha  occ. eigenvalues --   -0.35746  -0.34425  -0.33423  -0.33156  -0.31635
 Alpha  occ. eigenvalues --   -0.30095  -0.28679  -0.27576
 Alpha virt. eigenvalues --    0.12133   0.14329   0.14789   0.15675   0.17460
 Alpha virt. eigenvalues --    0.19126   0.19668   0.22023   0.23192   0.23638
 Alpha virt. eigenvalues --    0.23896   0.25335   0.25953   0.26653   0.27244

 Mulliken charges:
               1
     1  C   -0.147072
     2  H    0.337335
     3  F   -0.885031
     4  Cl  -0.354324
     5  C   -0.249372
     6  H    0.038998
     7  N    3.204462
     8  O   -1.478395
     9  O   -1.552519
    10  N    0.495174
    11  H    0.145099
    12  H    0.168537
    13  C   -1.772239
    14  N    1.049345
 Sum of Mulliken charges =  -1.00000

 Dipole moment (field-independent basis, Debye):
    X=              3.1208    Y=              6.2530    Z=             -1.8820  Tot=              7.2375

 Test job not archived.
 1\1\GINC-SE129\SP\RHF\Aug-CC-pVDZ\C3H4Cl1F1N3O2(1-)\OHZDE\09-Apr-2025\
 0\\#t hf aug-cc-pvdz iop(5/13=1,5/36=2,99/5=2) pseudo=read geom=check
 guess=(read,tcheck) scf=(maxcycle=1)\\title\\-1,1\C,0,0.57610159,-0.05
 77555,0.01584186\H,0,1.6044779,1.70259561,-0.54057188\F,0,-1.29731544,
 -0.05652139,-0.75812599\Cl,0,2.36572654,-0.38560302,0.89016236\C,0,0.6
 2568196,1.45231597,-0.11130339\H,0,-0.05279669,-0.52036087,0.74996619\
 N,0,0.77688944,-0.83416671,-1.22131201\O,0,1.16890685,-0.21307714,-2.2
 0680728\O,0,0.61033062,-2.04395068,-1.15733292\N,0,0.43205269,2.025422

 Normal termination of Gaussian 16 at Wed Apr  9 02:57:36 2025.
