 Gaussian 16, Revision C.01,

 ----------------------------------------------------------------------
 #t hf aug-cc-pvdz symm=none int=(grid=ultrafine) guess=(read,tcheck) s
 table=(opt,rrhf)
 ----------------------------------------------------------------------
 -----
 title
 -----
 Symbolic Z-matrix:
 Charge = -1 Multiplicity = 1

 SCF Done:  E(RHF) =  -1220.21719606     A.U. after   16 cycles
 Normal termination of Gaussian 16 at Wed Apr  9 02:53:32 2025.
 Gaussian 16:  ES64L-G16RevC.01  3-Jul-2019

 ----------------------------------------------------------------------
 #t hf aug-cc-pvdz iop(5/13=1,5/36=2,99/5=2) pseudo=read geom=check gue
 ss=(read,tcheck) scf=(maxcycle=1)
 ----------------------------------------------------------------------
 -----
 title
 -----
 Structure from the checkpoint file:  "E2SN2_325_mol1.chk"
 Charge = -1 Multiplicity = 1

                         Standard orientation:
 ---------------------------------------------------------------------
 Center     Atomic      Atomic             Coordinates (Angstroms)
 Number     Number       Type             X           Y           Z
 ---------------------------------------------------------------------
      1          6           0       -0.494772   -0.521081   -0.297272
      2          1           0       -0.724455    0.915251    1.255650
      3         17           0        1.614742   -0.911677   -1.300941
      4         17           0       -2.694398    0.103954    0.001195
      5          6           0        0.069178    0.606521    0.565986
      6          1           0       -0.716521   -0.325582   -1.325877
      7          6           0       -0.638417   -1.875458    0.339976
      8          1           0        0.338518   -2.309303    0.546558
      9          1           0       -1.204792   -1.795009    1.268725
     10          1           0       -1.186285   -2.532552   -0.334431
     11          6           0        0.418749    1.790729   -0.220680
     12          7           0        0.651176    2.785753   -0.797945
     13          6           0        1.195103    0.185665    1.411077
     14          7           0        1.998628   -0.120008    2.210879
 ---------------------------------------------------------------------

 SCF Done:  E(RHF) =  -1220.66902144     A.U. after    2 cycles

 The electronic state is 1-A.
 Alpha  occ. eigenvalues -- -105.35880-105.34054 -15.42297 -15.42166 -11.25877
 Alpha  occ. eigenvalues --  -11.23903 -11.19975 -11.19615 -11.13939 -10.40680
 Alpha  occ. eigenvalues --  -10.38861  -7.57497  -7.57355  -7.57343  -7.55673
 Alpha  occ. eigenvalues --   -7.55542  -7.55532  -1.13527  -1.11984  -1.04016
 Alpha  occ. eigenvalues --   -0.92335  -0.82567  -0.80867  -0.74246  -0.68512
 Alpha  occ. eigenvalues --   -0.61350  -0.56667  -0.51577  -0.51168  -0.48834
 Alpha  occ. eigenvalues --   -0.48434  -0.44676  -0.40807  -0.40593  -0.39231
 Alpha  occ. eigenvalues --   -0.38264  -0.31977  -0.28335  -0.28099  -0.26675
 Alpha  occ. eigenvalues --   -0.26347  -0.24219
 Alpha virt. eigenvalues --    0.12891   0.13325   0.14460   0.15397   0.16395
 Alpha virt. eigenvalues --    0.18048   0.18324   0.19263   0.21125   0.22052
 Alpha virt. eigenvalues --    0.22572   0.22886   0.23600   0.23818   0.24622

 Mulliken charges:
               1
     1  C    0.265024
     2  H    0.395107
     3  Cl  -0.691626
     4  Cl  -0.675184
     5  C    0.369419
     6  H   -0.135799
     7  C   -0.389670
     8  H    0.313746
     9  H    0.294526
    10  H    0.140381
    11  C   -1.522539
    12  N    1.011402
    13  C   -1.356688
    14  N    0.981899
 Sum of Mulliken charges =  -1.00000

 Dipole moment (field-independent basis, Debye):
    X=             -2.1857    Y=             -1.8986    Z=              2.3952  Tot=              3.7575

 Test job not archived.
 1\1\GINC-SE459\SP\RHF\Aug-CC-pVDZ\C5H5Cl2N2(1-)\OHZDE\09-Apr-2025\0\\#
 t hf aug-cc-pvdz iop(5/13=1,5/36=2,99/5=2) pseudo=read geom=check gues
 s=(read,tcheck) scf=(maxcycle=1)\\title\\-1,1\C,0,0.64521449,-0.065568
 68,-0.05997148\H,0,1.5834601,1.82888454,-0.30103689\Cl,0,-1.70709137,-
 0.24878955,0.14753027\Cl,0,2.89750172,-0.13337577,0.4306472\C,0,0.5737
 3436,1.46049326,-0.08761822\H,0,0.55993008,-0.57190256,0.87905558\C,0,
 0.7600902,-0.77744323,-1.37947704\H,0,-0.1586979,-0.67357639,-1.954229
 38\H,0,1.59560673,-0.37317524,-1.95245713\H,0,0.95266321,-1.83466851,-

 Normal termination of Gaussian 16 at Wed Apr  9 02:53:39 2025.
