 Gaussian 16, Revision C.01,

 ----------------------------------------------------------------------
 #t hf aug-cc-pvdz symm=none int=(grid=ultrafine) guess=(read,tcheck) s
 table=(opt,rrhf)
 ----------------------------------------------------------------------
 -----
 title
 -----
 Symbolic Z-matrix:
 Charge = -1 Multiplicity = 1

 SCF Done:  E(RHF) =  -516.052825077     A.U. after   16 cycles
 Normal termination of Gaussian 16 at Wed Apr  9 02:57:41 2025.
 Gaussian 16:  ES64L-G16RevC.01  3-Jul-2019

 ----------------------------------------------------------------------
 #t hf aug-cc-pvdz iop(5/13=1,5/36=2,99/5=2) pseudo=read geom=check gue
 ss=(read,tcheck) scf=(maxcycle=1)
 ----------------------------------------------------------------------
 -----
 title
 -----
 Structure from the checkpoint file:  "E2SN2_382_mol1.chk"
 Charge = -1 Multiplicity = 1

                         Standard orientation:
 ---------------------------------------------------------------------
 Center     Atomic      Atomic             Coordinates (Angstroms)
 Number     Number       Type             X           Y           Z
 ---------------------------------------------------------------------
      1          6           0       -0.558899   -0.280405    0.051594
      2          1           0        0.765923   -1.874814    0.406167
      3          9           0       -1.139922   -0.249490   -1.631322
      4          9           0        0.032920   -0.150461    1.731640
      5          6           0        0.695881   -1.062502   -0.316801
      6          1           0        0.581407   -1.463251   -1.322366
      7          7           0       -1.700999   -1.041646    0.470336
      8          1           0       -2.456812   -0.804424   -0.155286
      9          1           0       -1.897915   -0.772980    1.423690
     10          6           0       -0.585951    1.182218    0.009972
     11          7           0       -0.668505    2.354136   -0.003527
     12          6           0        1.926034   -0.280087   -0.240542
     13          7           0        2.956365    0.281752   -0.221152
 ---------------------------------------------------------------------

 SCF Done:  E(RHF) =  -516.547149163     A.U. after    2 cycles

 The electronic state is 1-A.
 Alpha  occ. eigenvalues --  -26.19620 -26.19315 -15.38657 -15.37637 -15.37258
 Alpha  occ. eigenvalues --  -11.28974 -11.16287 -11.15686 -11.15377  -1.29486
 Alpha  occ. eigenvalues --   -1.27686  -1.09326  -1.08176  -1.06641  -0.93924
 Alpha  occ. eigenvalues --   -0.79841  -0.65196  -0.59434  -0.55114  -0.53184
 Alpha  occ. eigenvalues --   -0.51759  -0.47447  -0.46555  -0.44100  -0.38457
 Alpha  occ. eigenvalues --   -0.37484  -0.36677  -0.36065  -0.35134  -0.34980
 Alpha  occ. eigenvalues --   -0.34280  -0.33888  -0.32178  -0.30434
 Alpha virt. eigenvalues --    0.13400   0.14172   0.15085   0.16309   0.17906
 Alpha virt. eigenvalues --    0.19261   0.21566   0.22737   0.24116   0.24302
 Alpha virt. eigenvalues --    0.25210   0.25942   0.26464   0.26963   0.27337

 Mulliken charges:
               1
     1  C    0.646547
     2  H    0.335764
     3  F   -0.907066
     4  F   -0.882484
     5  C    0.341004
     6  H    0.292033
     7  N    0.578106
     8  H    0.337744
     9  H    0.331176
    10  C   -2.839193
    11  N    1.220932
    12  C   -1.263474
    13  N    0.808909
 Sum of Mulliken charges =  -1.00000

 Dipole moment (field-independent basis, Debye):
    X=             -2.3893    Y=             -5.0470    Z=              0.0735  Tot=              5.5845

 Test job not archived.
 1\1\GINC-SE036\SP\RHF\Aug-CC-pVDZ\C4H4F2N3(1-)\OHZDE\09-Apr-2025\0\\#t
  hf aug-cc-pvdz iop(5/13=1,5/36=2,99/5=2) pseudo=read geom=check guess
 =(read,tcheck) scf=(maxcycle=1)\\title\\-1,1\C,0,0.52527289,-0.0727478
 5,-0.01516062\H,0,1.23137016,1.80098558,-0.65824971\F,0,-1.20602757,-0
 .29642997,-0.36632022\F,0,2.23510508,0.07804739,0.47821948\C,0,0.41014
 978,1.44652173,-0.03584195\H,0,-0.54439664,1.72373624,-0.47953003\N,0,
 0.89483666,-0.71441049,-1.24435501\H,0,0.15837475,-1.36789529,-1.46686
 669\H,0,1.77690719,-1.1774276,-1.07880347\C,0,0.29972296,-0.83832659,1

 Normal termination of Gaussian 16 at Wed Apr  9 02:57:47 2025.
