 Gaussian 16, Revision C.01,

 ----------------------------------------------------------------------
 #t hf aug-cc-pvdz symm=none int=(grid=ultrafine) guess=(read,tcheck) s
 table=(opt,rrhf)
 ----------------------------------------------------------------------
 -----
 title
 -----
 Symbolic Z-matrix:
 Charge = -1 Multiplicity = 1

 SCF Done:  E(RHF) =  -852.247665954     A.U. after   16 cycles
 Normal termination of Gaussian 16 at Wed Apr  9 03:00:14 2025.
 Gaussian 16:  ES64L-G16RevC.01  3-Jul-2019

 ----------------------------------------------------------------------
 #t hf aug-cc-pvdz iop(5/13=1,5/36=2,99/5=2) pseudo=read geom=check gue
 ss=(read,tcheck) scf=(maxcycle=1)
 ----------------------------------------------------------------------
 -----
 title
 -----
 Structure from the checkpoint file:  "E2SN2_46_mol2.chk"
 Charge = -1 Multiplicity = 1

                         Standard orientation:
 ---------------------------------------------------------------------
 Center     Atomic      Atomic             Coordinates (Angstroms)
 Number     Number       Type             X           Y           Z
 ---------------------------------------------------------------------
      1          6           0        0.052254   -0.041342    0.250071
      2          6           0        1.146978   -0.879287   -0.422241
      3         17           0        0.090850    1.674515   -0.410720
      4          1           0        1.215899   -0.614336   -1.480062
      5          1           0        0.808529   -1.918627   -0.346239
      6          7           0       -1.347755   -0.499568   -0.145085
      7          8           0       -1.473270   -1.110347   -1.201950
      8          8           0       -2.264196   -0.203692    0.616227
      9          7           0        0.173661   -0.118679    1.635370
     10          1           0       -0.369150    0.583309    2.117084
     11          1           0        1.179618   -0.046173    1.805747
     12          7           0        2.401699   -0.635352    0.263258
     13          1           0        3.072244   -0.231406   -0.481817
     14          1           0        2.808865   -1.528976    0.516061
     15          1           0        3.850631    0.100736   -1.704531
 ---------------------------------------------------------------------

 SCF Done:  E(RHF) =  -852.723618390     A.U. after    2 cycles

 The electronic state is 1-A.
 Alpha  occ. eigenvalues -- -105.45505 -20.49556 -20.49262 -15.68545 -15.40556
 Alpha  occ. eigenvalues --  -15.33633 -11.28595 -11.15016 -10.50378  -7.67306
 Alpha  occ. eigenvalues --   -7.66932  -7.66920  -1.56544  -1.40516  -1.16282
 Alpha  occ. eigenvalues --   -1.03750  -0.99441  -0.91669  -0.82094  -0.72877
 Alpha  occ. eigenvalues --   -0.67198  -0.65060  -0.64257  -0.60318  -0.56853
 Alpha  occ. eigenvalues --   -0.52406  -0.50105  -0.47267  -0.41758  -0.41333
 Alpha  occ. eigenvalues --   -0.39035  -0.36322  -0.35494  -0.34594  -0.34106
 Alpha  occ. eigenvalues --   -0.30963  -0.09631
 Alpha virt. eigenvalues --    0.12358   0.13604   0.14608   0.15357   0.16804
 Alpha virt. eigenvalues --    0.17779   0.18267   0.20042   0.20638   0.22467
 Alpha virt. eigenvalues --    0.23607   0.24129   0.24711   0.25514   0.26174

 Mulliken charges:
               1
     1  C   -2.117634
     2  C   -0.473554
     3  Cl   0.021778
     4  H    0.180127
     5  H    0.182083
     6  N    3.063002
     7  O   -1.445597
     8  O   -1.506347
     9  N    0.666687
    10  H    0.263829
    11  H    0.383762
    12  N    0.285597
    13  H   -0.002170
    14  H    0.280067
    15  H   -0.781631
 Sum of Mulliken charges =  -1.00000

 Dipole moment (field-independent basis, Debye):
    X=            -10.6623    Y=             -0.7591    Z=              6.6400  Tot=             12.5837

 Test job not archived.
 1\1\GINC-SE070\SP\RHF\Aug-CC-pVDZ\C2H7Cl1N3O2(1-)\OHZDE\09-Apr-2025\0\
 \#t hf aug-cc-pvdz iop(5/13=1,5/36=2,99/5=2) pseudo=read geom=check gu
 ess=(read,tcheck) scf=(maxcycle=1)\\title\\-1,1\C,0,-0.617022,-0.01338
 1,-1.493911\C,0,0.093842,-0.181961,-0.145271\Cl,0,0.419452,1.008788,-2
 .617828\H,0,1.165757,-0.317174,-0.308517\H,0,-0.310567,-1.104596,0.285
 716\N,0,-0.713102,-1.327376,-2.262241\O,0,0.100367,-2.206812,-1.996479
 \O,0,-1.590508,-1.407687,-3.117057\N,0,-1.9027,0.485011,-1.297921\H,0,
 -2.326209,0.825015,-2.149107\H,0,-1.788181,1.206097,-0.581573\N,0,-0.1

 Normal termination of Gaussian 16 at Wed Apr  9 03:00:20 2025.
