 Gaussian 16, Revision C.01,

 ----------------------------------------------------------------------
 #t hf aug-cc-pvdz symm=none int=(grid=ultrafine) guess=(read,tcheck) s
 table=(opt,rrhf)
 ----------------------------------------------------------------------
 -----
 title
 -----
 Symbolic Z-matrix:
 Charge = -1 Multiplicity = 1

 SCF Done:  E(RHF) =  -463.392416353     A.U. after   15 cycles
 Normal termination of Gaussian 16 at Wed Apr  9 02:39:58 2025.
 Gaussian 16:  ES64L-G16RevC.01  3-Jul-2019

 ----------------------------------------------------------------------
 #t hf aug-cc-pvdz iop(5/13=1,5/36=2,99/5=2) pseudo=read geom=check gue
 ss=(read,tcheck) scf=(maxcycle=1)
 ----------------------------------------------------------------------
 -----
 title
 -----
 Structure from the checkpoint file:  "E2SN2_179_mol2.chk"
 Charge = -1 Multiplicity = 1

                         Standard orientation:
 ---------------------------------------------------------------------
 Center     Atomic      Atomic             Coordinates (Angstroms)
 Number     Number       Type             X           Y           Z
 ---------------------------------------------------------------------
      1          6           0        0.467831    0.352600    0.342456
      2          6           0       -0.475899    0.296902   -0.866430
      3          9           0        0.755693    1.679543    0.715621
      4          1           0        0.018633    0.762341   -1.731287
      5          1           0       -0.070832   -0.185295    1.148300
      6          6           0        1.752106   -0.289250    0.027597
      7          7           0        2.779249   -0.788486   -0.248165
      8          6           0       -1.758176    1.034844   -0.507483
      9          1           0       -2.175388    0.501466    0.350361
     10          1           0       -2.451683    0.983388   -1.350465
     11          1           0       -1.568946    2.080317   -0.252580
     12          7           0       -0.814828   -1.090623   -1.163216
     13          1           0       -1.160738   -1.446360   -0.247692
     14          1           0        0.030959   -1.600468   -1.400385
     15          9           0       -1.454373   -1.269787    1.438443
 ---------------------------------------------------------------------

 SCF Done:  E(RHF) =  -463.848378889     A.U. after    2 cycles

 The electronic state is 1-A.
 Alpha  occ. eigenvalues --  -26.33030 -26.09910 -15.39994 -15.32798 -11.20337
 Alpha  occ. eigenvalues --  -11.16855 -11.13629 -11.08204  -1.44755  -1.16433
 Alpha  occ. eigenvalues --   -1.10383  -1.04848  -0.89297  -0.83827  -0.68650
 Alpha  occ. eigenvalues --   -0.62385  -0.57593  -0.55317  -0.54098  -0.50033
 Alpha  occ. eigenvalues --   -0.45775  -0.45573  -0.43268  -0.40680  -0.39563
 Alpha  occ. eigenvalues --   -0.37950  -0.36844  -0.35840  -0.29684  -0.26087
 Alpha  occ. eigenvalues --   -0.25934  -0.24809
 Alpha virt. eigenvalues --    0.13064   0.14115   0.14385   0.15846   0.17000
 Alpha virt. eigenvalues --    0.18322   0.19157   0.19419   0.21637   0.23319
 Alpha virt. eigenvalues --    0.23842   0.24935   0.25894   0.26452   0.26867

 Mulliken charges:
               1
     1  C    2.150096
     2  C   -1.919700
     3  F   -0.907242
     4  H   -0.062662
     5  H    0.226550
     6  C   -1.979862
     7  N    0.909514
     8  C    0.077450
     9  H    0.189609
    10  H    0.143927
    11  H    0.139010
    12  N    0.599083
    13  H    0.239123
    14  H    0.207043
    15  F   -1.011937
 Sum of Mulliken charges =  -1.00000

 Dipole moment (field-independent basis, Debye):
    X=              1.1511    Y=              4.6143    Z=             -2.9655  Tot=              5.6045

 Test job not archived.
 1\1\GINC-SE113\SP\RHF\Aug-CC-pVDZ\C4H7F2N2(1-)\OHZDE\09-Apr-2025\0\\#t
  hf aug-cc-pvdz iop(5/13=1,5/36=2,99/5=2) pseudo=read geom=check guess
 =(read,tcheck) scf=(maxcycle=1)\\title\\-1,1\C,0,-0.194782,-0.085752,0
 .024622\C,0,-0.400731,-0.109066,-1.495962\F,0,0.862752,0.768286,0.3922
 28\H,0,0.503603,-0.510341,-1.975893\H,0,-1.161091,0.26823,0.436712\C,0
 ,0.147641,-1.425826,0.522031\N,0,0.439658,-2.499603,0.898905\C,0,-0.68
 2619,1.312217,-1.963005\H,0,-1.592317,1.619456,-1.440982\H,0,-0.856038
 ,1.309339,-3.041956\H,0,0.141282,1.989782,-1.726593\N,0,-1.557159,-0.9

 Normal termination of Gaussian 16 at Wed Apr  9 02:40:04 2025.
