 Gaussian 16, Revision C.01,

 ----------------------------------------------------------------------
 #t hf aug-cc-pvdz symm=none int=(grid=ultrafine) guess=(read,tcheck) s
 table=(opt,rrhf)
 ----------------------------------------------------------------------
 -----
 title
 -----
 Symbolic Z-matrix:
 Charge = -1 Multiplicity = 1

 SCF Done:  E(RHF) =  -1220.20581449     A.U. after   16 cycles
 Normal termination of Gaussian 16 at Wed Apr  9 02:49:17 2025.
 Gaussian 16:  ES64L-G16RevC.01  3-Jul-2019

 ----------------------------------------------------------------------
 #t hf aug-cc-pvdz iop(5/13=1,5/36=2,99/5=2) pseudo=read geom=check gue
 ss=(read,tcheck) scf=(maxcycle=1)
 ----------------------------------------------------------------------
 -----
 title
 -----
 Structure from the checkpoint file:  "E2SN2_279_mol1.chk"
 Charge = -1 Multiplicity = 1

                         Standard orientation:
 ---------------------------------------------------------------------
 Center     Atomic      Atomic             Coordinates (Angstroms)
 Number     Number       Type             X           Y           Z
 ---------------------------------------------------------------------
      1          6           0        0.076211   -0.479683   -0.224148
      2          1           0       -0.916945    0.569799   -1.806949
      3         17           0        2.432850   -0.133197   -0.060373
      4         17           0       -2.288774   -0.693456   -0.072853
      5          6           0       -0.084061    0.742776   -1.124883
      6          1           0        0.828439    0.877900   -1.705899
      7          6           0        0.059086   -0.377094    1.209298
      8          7           0        0.050084   -0.329891    2.386550
      9          6           0        0.293988   -1.817940   -0.903834
     10          1           0       -0.642547   -2.202887   -1.300878
     11          1           0        1.017489   -1.694575   -1.709052
     12          1           0        0.709751   -2.527893   -0.190379
     13          6           0       -0.344097    1.979706   -0.398177
     14          7           0       -0.543264    3.007630    0.131801
 ---------------------------------------------------------------------

 SCF Done:  E(RHF) =  -1220.65689692     A.U. after    2 cycles

 The electronic state is 1-A.
 Alpha  occ. eigenvalues -- -105.35491-105.35380 -15.40731 -15.39692 -11.29497
 Alpha  occ. eigenvalues --  -11.19436 -11.18064 -11.17897 -11.14845 -10.40287
 Alpha  occ. eigenvalues --  -10.40164  -7.57106  -7.56984  -7.56946  -7.56940
 Alpha  occ. eigenvalues --   -7.56828  -7.56820  -1.11439  -1.10044  -1.03144
 Alpha  occ. eigenvalues --   -0.91068  -0.82718  -0.82015  -0.78825  -0.65106
 Alpha  occ. eigenvalues --   -0.55896  -0.55130  -0.52453  -0.49500  -0.49356
 Alpha  occ. eigenvalues --   -0.47719  -0.45583  -0.41679  -0.38105  -0.38050
 Alpha  occ. eigenvalues --   -0.36936  -0.29415  -0.28079  -0.27890  -0.27264
 Alpha  occ. eigenvalues --   -0.26562  -0.25430
 Alpha virt. eigenvalues --    0.12244   0.13210   0.14173   0.14842   0.15747
 Alpha virt. eigenvalues --    0.16136   0.17984   0.19319   0.20822   0.21291
 Alpha virt. eigenvalues --    0.22432   0.22795   0.24156   0.25081   0.25263

 Mulliken charges:
               1
     1  C   -0.623431
     2  H    0.352131
     3  Cl  -0.605628
     4  Cl  -0.586046
     5  C    0.956674
     6  H    0.281913
     7  C   -1.813764
     8  N    1.052915
     9  C   -0.027514
    10  H    0.215908
    11  H    0.230341
    12  H    0.208091
    13  C   -1.604245
    14  N    0.962656
 Sum of Mulliken charges =  -1.00000

 Dipole moment (field-independent basis, Debye):
    X=              0.5233    Y=             -3.0286    Z=             -6.5653  Tot=              7.2491

 Test job not archived.
 1\1\GINC-SE342\SP\RHF\Aug-CC-pVDZ\C5H5Cl2N2(1-)\OHZDE\09-Apr-2025\0\\#
 t hf aug-cc-pvdz iop(5/13=1,5/36=2,99/5=2) pseudo=read geom=check gues
 s=(read,tcheck) scf=(maxcycle=1)\\title\\-1,1\C,0,0.57807235,-0.073512
 16,0.01137258\H,0,1.50776077,1.79783655,0.48757346\Cl,0,-1.79675875,-0
 .14839126,0.24630893\Cl,0,2.88992771,-0.0714754,-0.55170895\C,0,0.5755
 0928,1.4531279,0.03933983\H,0,-0.26003325,1.79574593,0.65005751\C,0,0.
 38419468,-0.81334933,-1.20544215\N,0,0.22841552,-1.45154201,-2.1835392
 5\C,0,0.75770252,-0.79091943,1.33552924\H,0,1.80047645,-0.77048484,1.6

 Normal termination of Gaussian 16 at Wed Apr  9 02:49:23 2025.
