 Gaussian 16, Revision C.01,

 ----------------------------------------------------------------------
 #t hf aug-cc-pvdz symm=none int=(grid=ultrafine) guess=(read,tcheck) s
 table=(opt,rrhf)
 ----------------------------------------------------------------------
 -----
 title
 -----
 Symbolic Z-matrix:
 Charge = -1 Multiplicity = 1

 SCF Done:  E(RHF) =  -403.419189249     A.U. after   17 cycles
 Normal termination of Gaussian 16 at Wed Apr  9 02:52:28 2025.
 Gaussian 16:  ES64L-G16RevC.01  3-Jul-2019

 ----------------------------------------------------------------------
 #t hf aug-cc-pvdz iop(5/13=1,5/36=2,99/5=2) pseudo=read geom=check gue
 ss=(read,tcheck) scf=(maxcycle=1)
 ----------------------------------------------------------------------
 -----
 title
 -----
 Structure from the checkpoint file:  "E2SN2_314_mol1.chk"
 Charge = -1 Multiplicity = 1

                         Standard orientation:
 ---------------------------------------------------------------------
 Center     Atomic      Atomic             Coordinates (Angstroms)
 Number     Number       Type             X           Y           Z
 ---------------------------------------------------------------------
      1          6           0       -0.325980   -0.383411   -0.274484
      2          1           0        1.175879    0.322825   -1.602974
      3          9           0       -0.103859   -0.676540    1.354544
      4          1           0       -0.882136    0.058978   -1.979419
      5          6           0        0.997928    0.357890   -0.529536
      6          6           0       -1.555118    0.365824   -0.126420
      7          7           0       -2.547122    0.922728    0.198791
      8          7           0       -0.383323   -1.789191   -0.635446
      9          1           0       -0.957699   -1.870201   -1.460437
     10          1           0       -0.811334   -2.262725    0.151893
     11          6           0        2.173259   -0.335163    0.158335
     12          1           0        2.148461   -0.184395    1.236906
     13          1           0        2.136109   -1.408013   -0.038502
     14          1           0        3.113218    0.065443   -0.241789
     15          6           0        0.875484    1.812742   -0.099787
     16          1           0        0.100721    2.322153   -0.678679
     17          1           0        0.606602    1.862786    0.958186
     18          1           0        1.824579    2.339955   -0.248144
 ---------------------------------------------------------------------

 SCF Done:  E(RHF) =  -403.831151527     A.U. after    2 cycles

 The electronic state is 1-A.
 Alpha  occ. eigenvalues --  -26.21120 -15.35373 -15.33482 -11.23502 -11.12958
 Alpha  occ. eigenvalues --  -11.10044 -11.08809 -11.08489  -1.30389  -1.06156
 Alpha  occ. eigenvalues --   -1.03335  -0.94235  -0.81017  -0.79017  -0.67190
 Alpha  occ. eigenvalues --   -0.58547  -0.56032  -0.52750  -0.48162  -0.44148
 Alpha  occ. eigenvalues --   -0.43494  -0.41602  -0.41021  -0.39038  -0.37172
 Alpha  occ. eigenvalues --   -0.36299  -0.34816  -0.34201  -0.32949  -0.31381
 Alpha  occ. eigenvalues --   -0.30949  -0.12259
 Alpha virt. eigenvalues --    0.12258   0.13056   0.14105   0.14140   0.16200
 Alpha virt. eigenvalues --    0.16516   0.16582   0.17121   0.17347   0.19952
 Alpha virt. eigenvalues --    0.21114   0.23603   0.24664   0.24999   0.25403

 Mulliken charges:
               1
     1  C   -0.434285
     2  H    0.092606
     3  F   -0.941274
     4  H   -0.272011
     5  C   -0.814321
     6  C   -2.268905
     7  N    1.085115
     8  N    0.666911
     9  H    0.320270
    10  H    0.330057
    11  C   -0.131351
    12  H    0.282530
    13  H    0.244503
    14  H    0.112797
    15  C    0.018306
    16  H    0.274822
    17  H    0.342723
    18  H    0.091507
 Sum of Mulliken charges =  -1.00000

 Dipole moment (field-independent basis, Debye):
    X=              5.5458    Y=             -1.2830    Z=              1.0180  Tot=              5.7826

 Test job not archived.
 1\1\GINC-SE072\SP\RHF\Aug-CC-pVDZ\C5H10F1N2(1-)\OHZDE\09-Apr-2025\0\\#
 t hf aug-cc-pvdz iop(5/13=1,5/36=2,99/5=2) pseudo=read geom=check gues
 s=(read,tcheck) scf=(maxcycle=1)\\title\\-1,1\C,0,0.54483342,-0.052482
 81,0.07854724\H,0,1.66800463,1.74872443,0.19420086\F,0,-1.08520325,-0.
 18889257,0.4152481\H,0,2.28111378,-0.127778,-0.54713958\C,0,0.62041636
 ,1.48416671,0.06103007\C,0,0.50310575,-0.78674233,-1.16771812\N,0,0.26
 714728,-1.42614785,-2.13490972\N,0,0.9679629,-0.72710599,1.29330829\H,
 0,1.8542408,-1.16985528,1.10471988\H,0,0.25331647,-1.41755445,1.493037

 Normal termination of Gaussian 16 at Wed Apr  9 02:52:36 2025.
