 Gaussian 16, Revision C.01,

 ----------------------------------------------------------------------
 #t hf aug-cc-pvdz symm=none int=(grid=ultrafine) guess=(read,tcheck) s
 table=(opt,rrhf)
 ----------------------------------------------------------------------
 -----
 title
 -----
 Symbolic Z-matrix:
 Charge = -1 Multiplicity = 1

 SCF Done:  E(RHF) =  -1334.32244902     A.U. after   16 cycles
 Normal termination of Gaussian 16 at Wed Apr  9 02:34:36 2025.
 Gaussian 16:  ES64L-G16RevC.01  3-Jul-2019

 ----------------------------------------------------------------------
 #t hf aug-cc-pvdz iop(5/13=1,5/36=2,99/5=2) pseudo=read geom=check gue
 ss=(read,tcheck) scf=(maxcycle=1)
 ----------------------------------------------------------------------
 -----
 title
 -----
 Structure from the checkpoint file:  "E2SN2_109_mol1.chk"
 Charge = -1 Multiplicity = 1

                         Standard orientation:
 ---------------------------------------------------------------------
 Center     Atomic      Atomic             Coordinates (Angstroms)
 Number     Number       Type             X           Y           Z
 ---------------------------------------------------------------------
      1          6           0       -0.558412   -0.738635    0.290128
      2          6           0        0.147796    0.243685   -0.389983
      3         17           0       -2.860113   -0.096081   -0.205008
      4         17           0        2.967487   -0.892051   -0.131657
      5          1           0        1.640323   -0.448116   -0.157762
      6          6           0       -0.649333   -2.079335   -0.385998
      7          1           0       -0.725752   -1.981875   -1.464454
      8          1           0        0.267646   -2.637678   -0.147946
      9          1           0       -1.507992   -2.631111   -0.006748
     10          6           0       -0.691105   -0.789398    1.782408
     11          1           0       -1.433024   -1.545400    2.040875
     12          1           0        0.275533   -1.059924    2.224243
     13          1           0       -0.994898    0.164650    2.202038
     14          7           0        0.030591    0.294142   -1.794013
     15          1           0        0.639917    1.008283   -2.168507
     16          1           0       -0.936428    0.540521   -2.006966
     17          7           0        0.390786    1.534049    0.264751
     18          8           0        0.371167    2.547274   -0.446225
     19          8           0        0.692082    1.549435    1.462980
 ---------------------------------------------------------------------

 SCF Done:  E(RHF) =  -1334.90034567     A.U. after    2 cycles

 The electronic state is 1-A.
 Alpha  occ. eigenvalues -- -105.41452-105.32399 -20.45016 -20.44778 -15.64843
 Alpha  occ. eigenvalues --  -15.37603 -11.20933 -11.16866 -11.12431 -11.12320
 Alpha  occ. eigenvalues --  -10.46268 -10.37099  -7.63195  -7.62924  -7.62912
 Alpha  occ. eigenvalues --   -7.53902  -7.53802  -7.53790  -1.51936  -1.35675
 Alpha  occ. eigenvalues --   -1.10975  -0.99127  -0.93078  -0.89995  -0.84350
 Alpha  occ. eigenvalues --   -0.78404  -0.77105  -0.68323  -0.62342  -0.61750
 Alpha  occ. eigenvalues --   -0.59437  -0.56381  -0.53489  -0.49822  -0.46916
 Alpha  occ. eigenvalues --   -0.46606  -0.44523  -0.43765  -0.41206  -0.38957
 Alpha  occ. eigenvalues --   -0.35891  -0.33634  -0.32998  -0.32645  -0.31471
 Alpha  occ. eigenvalues --   -0.28820  -0.24916  -0.24677  -0.20023
 Alpha virt. eigenvalues --    0.12484   0.13226   0.13717   0.14343   0.15565
 Alpha virt. eigenvalues --    0.16105   0.16683   0.17049   0.17636   0.18350
 Alpha virt. eigenvalues --    0.22176   0.22835   0.23230   0.23844   0.24521

 Mulliken charges:
               1
     1  C   -0.955514
     2  C   -2.005660
     3  Cl  -0.768067
     4  Cl  -0.425829
     5  H    0.807976
     6  C   -0.217150
     7  H    0.244062
     8  H    0.280153
     9  H    0.176209
    10  C   -0.163597
    11  H    0.180153
    12  H    0.301556
    13  H    0.289574
    14  N    0.739805
    15  H    0.225726
    16  H    0.279742
    17  N    3.142791
    18  O   -1.492840
    19  O   -1.639090
 Sum of Mulliken charges =  -1.00000

 Dipole moment (field-independent basis, Debye):
    X=              2.3936    Y=             -2.7010    Z=              0.3951  Tot=              3.6306

 Test job not archived.
 1\1\GINC-SE334\SP\RHF\Aug-CC-pVDZ\C4H9Cl2N2O2(1-)\OHZDE\09-Apr-2025\0\
 \#t hf aug-cc-pvdz iop(5/13=1,5/36=2,99/5=2) pseudo=read geom=check gu
 ess=(read,tcheck) scf=(maxcycle=1)\\title\\-1,1\C,0,-0.4049291,0.04572
 514,-0.24487462\C,0,-0.19226831,-0.08839111,1.12005076\Cl,0,1.87100729
 ,-0.15993826,-1.1014237\Cl,0,-3.08574142,-0.30571922,2.06231846\H,0,-1
 .80255004,-0.16025873,1.52251602\C,0,-0.92321167,-1.17266793,-0.958870
 98\H,0,-0.51072779,-2.08755829,-0.54506221\H,0,-2.01587133,-1.19334413
 ,-0.83666771\H,0,-0.68702016,-1.11205052,-2.02006013\C,0,-0.74394414,1

 Normal termination of Gaussian 16 at Wed Apr  9 02:34:48 2025.
