 Gaussian 16, Revision C.01,

 ----------------------------------------------------------------------
 #t hf aug-cc-pvdz symm=none int=(grid=ultrafine) guess=(read,tcheck) s
 table=(opt,rrhf)
 ----------------------------------------------------------------------
 -----
 title
 -----
 Symbolic Z-matrix:
 Charge = -1 Multiplicity = 1

 SCF Done:  E(RHF) =  -987.977089058     A.U. after   16 cycles
 Normal termination of Gaussian 16 at Wed Apr  9 02:42:26 2025.
 Gaussian 16:  ES64L-G16RevC.01  3-Jul-2019

 ----------------------------------------------------------------------
 #t hf aug-cc-pvdz iop(5/13=1,5/36=2,99/5=2) pseudo=read geom=check gue
 ss=(read,tcheck) scf=(maxcycle=1)
 ----------------------------------------------------------------------
 -----
 title
 -----
 Structure from the checkpoint file:  "E2SN2_203_mol2.chk"
 Charge = -1 Multiplicity = 1

                         Standard orientation:
 ---------------------------------------------------------------------
 Center     Atomic      Atomic             Coordinates (Angstroms)
 Number     Number       Type             X           Y           Z
 ---------------------------------------------------------------------
      1          6           0       -0.039207    0.821151   -0.951313
      2          6           0        0.293925   -0.082596    0.228096
      3          9           0        1.124733    1.473246   -1.358283
      4          1           0       -0.649420   -0.597056    0.503063
      5          1           0       -0.339532    0.190403   -1.792279
      6          7           0       -0.993610    1.789119   -0.520608
      7          1           0       -1.327497    2.297186   -1.331435
      8          1           0       -1.789650    1.272691   -0.136867
      9          6           0        0.839477    0.663882    1.352940
     10          7           0        1.262453    1.266643    2.266741
     11          7           0        1.266717   -1.151617   -0.195048
     12          8           0        1.038790   -1.698572   -1.269209
     13          8           0        2.186573   -1.437199    0.565949
     14         17           0       -2.890206   -0.769406    0.351307
 ---------------------------------------------------------------------

 SCF Done:  E(RHF) =  -988.563979669     A.U. after    2 cycles

 The electronic state is 1-A.
 Alpha  occ. eigenvalues -- -105.30889 -26.35762 -20.50185 -20.49973 -15.69898
 Alpha  occ. eigenvalues --  -15.42392 -15.39022 -11.26767 -11.23758 -11.19416
 Alpha  occ. eigenvalues --  -10.35517  -7.52292  -7.52255  -7.52233  -1.57391
 Alpha  occ. eigenvalues --   -1.48478  -1.41311  -1.13243  -1.10805  -1.04298
 Alpha  occ. eigenvalues --   -0.85502  -0.78827  -0.76572  -0.71683  -0.67567
 Alpha  occ. eigenvalues --   -0.66353  -0.63702  -0.61835  -0.58892  -0.55736
 Alpha  occ. eigenvalues --   -0.53172  -0.50682  -0.47544  -0.46438  -0.42078
 Alpha  occ. eigenvalues --   -0.39992  -0.39203  -0.38409  -0.35825  -0.35244
 Alpha  occ. eigenvalues --   -0.23750  -0.23384  -0.23202
 Alpha virt. eigenvalues --    0.12612   0.14588   0.15362   0.16567   0.17636
 Alpha virt. eigenvalues --    0.19099   0.20600   0.21204   0.21897   0.22186
 Alpha virt. eigenvalues --    0.23203   0.24036   0.25024   0.25429   0.26280

 Mulliken charges:
               1
     1  C    0.715083
     2  C   -0.615346
     3  F   -0.874492
     4  H    0.194298
     5  H    0.159549
     6  N    0.295507
     7  H    0.210239
     8  H    0.169631
     9  C   -1.423214
    10  N    0.965832
    11  N    3.121757
    12  O   -1.576171
    13  O   -1.412991
    14  Cl  -0.929683
 Sum of Mulliken charges =  -1.00000

 Dipole moment (field-independent basis, Debye):
    X=              4.4792    Y=              1.5689    Z=             -4.3516  Tot=              6.4390

 Test job not archived.
 1\1\GINC-SE094\SP\RHF\Aug-CC-pVDZ\C3H4Cl1F1N3O2(1-)\OHZDE\09-Apr-2025\
 0\\#t hf aug-cc-pvdz iop(5/13=1,5/36=2,99/5=2) pseudo=read geom=check
 guess=(read,tcheck) scf=(maxcycle=1)\\title\\-1,1\C,0,0.029238,0.00330
 8,0.003019\C,0,-0.509216,0.084311,-1.419039\F,0,1.422707,-0.032924,-0.
 047392\H,0,-1.613762,0.13496,-1.331934\H,0,-0.228331,0.931348,0.520379
 \N,0,-0.450566,-1.20067,0.597643\H,0,-0.218896,-1.18885,1.584174\H,0,-
 1.471383,-1.182742,0.525208\C,0,-0.091532,-1.051866,-2.228219\N,0,0.22
 9486,-1.976087,-2.876313\N,0,-0.063587,1.366678,-2.071058\O,0,-0.14504

 Normal termination of Gaussian 16 at Wed Apr  9 02:42:33 2025.
