 Gaussian 16, Revision C.01,

 ----------------------------------------------------------------------
 #t hf aug-cc-pvdz symm=none int=(grid=ultrafine) guess=(read,tcheck) s
 table=(opt,rrhf)
 ----------------------------------------------------------------------
 -----
 title
 -----
 Symbolic Z-matrix:
 Charge = -1 Multiplicity = 1

 SCF Done:  E(RHF) =  -984.623385419     A.U. after   19 cycles
 Normal termination of Gaussian 16 at Wed Apr  9 02:36:46 2025.
 Gaussian 16:  ES64L-G16RevC.01  3-Jul-2019

 ----------------------------------------------------------------------
 #t hf aug-cc-pvdz iop(5/13=1,5/36=2,99/5=2) pseudo=read geom=check gue
 ss=(read,tcheck) scf=(maxcycle=1)
 ----------------------------------------------------------------------
 -----
 title
 -----
 Structure from the checkpoint file:  "E2SN2_127_mol1.chk"
 Charge = -1 Multiplicity = 1

                         Standard orientation:
 ---------------------------------------------------------------------
 Center     Atomic      Atomic             Coordinates (Angstroms)
 Number     Number       Type             X           Y           Z
 ---------------------------------------------------------------------
      1          6           0       -0.035215   -0.016875   -0.208506
      2          6           0        0.465771   -1.171104   -0.945370
      3         17           0        0.577177    1.725306   -1.020164
      4          1           0       -1.543567   -2.502228   -0.683150
      5          1           0       -0.263421   -2.051254   -0.651596
      6          1           0        0.191256   -1.038157   -1.991756
      7          7           0        0.470972    0.000489    1.222814
      8          8           0        0.963671    0.998619    1.725590
      9          8           0        0.301180   -1.078113    1.793248
     10          6           0        1.938162   -1.485400   -0.770724
     11          1           0        2.172744   -1.737157    0.264842
     12          1           0        2.210529   -2.343466   -1.391454
     13          1           0        2.556121   -0.634096   -1.072238
     14          7           0       -1.464761   -0.009805   -0.144177
     15          8           0       -2.017215    0.473511    0.860749
     16          8           0       -2.046568   -0.758815   -1.021429
 ---------------------------------------------------------------------

 SCF Done:  E(RHF) =  -985.212450431     A.U. after    2 cycles

 The electronic state is 1-A.
 Alpha  occ. eigenvalues -- -105.42368 -20.48365 -20.47978 -20.47546 -20.40415
 Alpha  occ. eigenvalues --  -15.67884 -15.59075 -11.29607 -11.12936 -11.12906
 Alpha  occ. eigenvalues --  -10.47059  -7.63950  -7.63637  -7.63625  -1.55263
 Alpha  occ. eigenvalues --   -1.46719  -1.39103  -1.31928  -1.08181  -0.92842
 Alpha  occ. eigenvalues --   -0.89005  -0.88396  -0.78151  -0.71090  -0.66781
 Alpha  occ. eigenvalues --   -0.63673  -0.62208  -0.58303  -0.57763  -0.54497
 Alpha  occ. eigenvalues --   -0.50402  -0.45594  -0.44391  -0.41944  -0.39097
 Alpha  occ. eigenvalues --   -0.38114  -0.37014  -0.36239  -0.33609  -0.32680
 Alpha  occ. eigenvalues --   -0.32148  -0.31548  -0.29520  -0.11358
 Alpha virt. eigenvalues --    0.11798   0.13242   0.13797   0.14750   0.16140
 Alpha virt. eigenvalues --    0.17333   0.18062   0.19502   0.20657   0.22237
 Alpha virt. eigenvalues --    0.22743   0.23285   0.24578   0.25284   0.25812

 Mulliken charges:
               1
     1  C   -1.728103
     2  C   -0.084906
     3  Cl  -0.118055
     4  H   -0.160331
     5  H    0.336334
     6  H    0.283820
     7  N    3.349709
     8  O   -1.494636
     9  O   -1.579269
    10  C   -0.393931
    11  H    0.231464
    12  H    0.099979
    13  H    0.216543
    14  N    3.148529
    15  O   -1.728212
    16  O   -1.378934
 Sum of Mulliken charges =  -1.00000

 Dipole moment (field-independent basis, Debye):
    X=              5.6712    Y=              0.5822    Z=             -1.7455  Tot=              5.9623

 Test job not archived.
 1\1\GINC-SE208\SP\RHF\Aug-CC-pVDZ\C3H6Cl1N2O4(1-)\OHZDE\09-Apr-2025\0\
 \#t hf aug-cc-pvdz iop(5/13=1,5/36=2,99/5=2) pseudo=read geom=check gu
 ess=(read,tcheck) scf=(maxcycle=1)\\title\\-1,1\C,0,-0.09843845,-0.053
 05689,-0.28511575\C,0,-0.20966987,0.00441303,1.16764939\Cl,0,1.8099485
 2,-0.2989994,-0.89057329\H,0,-2.30055149,-1.21703253,1.28754115\H,0,-1
 .33624047,-0.26700205,1.39094466\H,0,0.28249457,-0.88057697,1.57079037
 \N,0,-0.56992779,1.23437026,-0.93736889\O,0,0.09009998,1.81139041,-1.7
 8778708\O,0,-1.67564908,1.59019917,-0.52703505\C,0,0.27424997,1.282508

 Normal termination of Gaussian 16 at Wed Apr  9 02:36:55 2025.
