 Gaussian 16, Revision C.01,

 ----------------------------------------------------------------------
 #t hf aug-cc-pvdz symm=none int=(grid=ultrafine) guess=(read,tcheck) s
 table=(opt,rrhf)
 ----------------------------------------------------------------------
 -----
 title
 -----
 Symbolic Z-matrix:
 Charge = -1 Multiplicity = 1

 SCF Done:  E(RHF) =  -627.864122128     A.U. after   16 cycles
 Normal termination of Gaussian 16 at Wed Apr  9 02:56:20 2025.
 Gaussian 16:  ES64L-G16RevC.01  3-Jul-2019

 ----------------------------------------------------------------------
 #t hf aug-cc-pvdz iop(5/13=1,5/36=2,99/5=2) pseudo=read geom=check gue
 ss=(read,tcheck) scf=(maxcycle=1)
 ----------------------------------------------------------------------
 -----
 title
 -----
 Structure from the checkpoint file:  "E2SN2_368_mol2.chk"
 Charge = -1 Multiplicity = 1

                         Standard orientation:
 ---------------------------------------------------------------------
 Center     Atomic      Atomic             Coordinates (Angstroms)
 Number     Number       Type             X           Y           Z
 ---------------------------------------------------------------------
      1          6           0       -0.591280   -0.742447    0.802468
      2          6           0        0.161466   -0.204855   -0.415306
      3          9           0        0.201173   -0.662538    1.950231
      4          1           0       -0.640846   -0.288462   -1.222709
      5          1           0       -0.736789   -1.815720    0.617708
      6          7           0       -1.782300    0.013922    0.971778
      7          1           0       -2.222232   -0.049369    0.028682
      8          1           0       -2.373604   -0.473644    1.635662
      9          6           0        1.365377   -0.971831   -0.678771
     10          7           0        2.301561   -1.636868   -0.926668
     11          7           0        0.525383    1.229162   -0.195232
     12          8           0       -0.260350    2.075507   -0.608865
     13          8           0        1.576925    1.469134    0.401287
     14          9           0       -2.143952   -0.610647   -1.572255
 ---------------------------------------------------------------------

 SCF Done:  E(RHF) =  -628.462671102     A.U. after    2 cycles

 The electronic state is 1-A.
 Alpha  occ. eigenvalues --  -26.33415 -26.13270 -20.47291 -20.46915 -15.66808
 Alpha  occ. eigenvalues --  -15.41461 -15.35775 -11.24824 -11.19944 -11.18619
 Alpha  occ. eigenvalues --   -1.54165  -1.46031  -1.38039  -1.20286  -1.11989
 Alpha  occ. eigenvalues --   -1.08497  -1.01299  -0.83651  -0.75211  -0.68757
 Alpha  occ. eigenvalues --   -0.64847  -0.63606  -0.60245  -0.59348  -0.56246
 Alpha  occ. eigenvalues --   -0.53193  -0.50656  -0.49575  -0.45255  -0.44003
 Alpha  occ. eigenvalues --   -0.40389  -0.38799  -0.37132  -0.36426  -0.33321
 Alpha  occ. eigenvalues --   -0.32179  -0.29733  -0.29078  -0.28057
 Alpha virt. eigenvalues --    0.13171   0.14859   0.16169   0.17922   0.18201
 Alpha virt. eigenvalues --    0.18803   0.20597   0.22453   0.23230   0.23602
 Alpha virt. eigenvalues --    0.23922   0.24744   0.25033   0.25950   0.27076

 Mulliken charges:
               1
     1  C    0.402343
     2  C   -0.109456
     3  F   -0.883184
     4  H    0.426236
     5  H    0.066239
     6  N    0.292449
     7  H    0.249854
     8  H    0.219228
     9  C   -1.533535
    10  N    0.959468
    11  N    2.808879
    12  O   -1.420413
    13  O   -1.444884
    14  F   -1.033225
 Sum of Mulliken charges =  -1.00000

 Dipole moment (field-independent basis, Debye):
    X=              0.6726    Y=             -0.0779    Z=              3.7282  Tot=              3.7892

 Test job not archived.
 1\1\GINC-SE461\SP\RHF\Aug-CC-pVDZ\C3H4F2N3O2(1-)\OHZDE\09-Apr-2025\0\\
 #t hf aug-cc-pvdz iop(5/13=1,5/36=2,99/5=2) pseudo=read geom=check gue
 ss=(read,tcheck) scf=(maxcycle=1)\\title\\-1,1\C,0,0.01568,0.00185,0.0
 02237\C,0,-0.586125,-0.006456,-1.403596\F,0,1.409236,0.081856,-0.05543
 1\H,0,-1.701939,-0.011473,-1.163744\H,0,-0.206369,-0.984928,0.431409\N
 ,0,-0.512844,1.110426,0.717087\H,0,-1.540772,0.980827,0.600709\H,0,-0.
 282885,0.991881,1.697479\C,0,-0.128663,-1.149698,-2.172227\N,0,0.19206
 8,-2.111612,-2.765541\N,0,-0.217707,1.253061,-2.121341\O,0,-1.007447,2

 Normal termination of Gaussian 16 at Wed Apr  9 02:56:26 2025.
