 Gaussian 16, Revision C.01,

 ----------------------------------------------------------------------
 #t hf aug-cc-pvdz symm=none int=(grid=ultrafine) guess=(read,tcheck) s
 table=(opt,rrhf)
 ----------------------------------------------------------------------
 -----
 title
 -----
 Symbolic Z-matrix:
 Charge = -1 Multiplicity = 1

 SCF Done:  E(RHF) =  -684.582574749     A.U. after   15 cycles
 Normal termination of Gaussian 16 at Wed Apr  9 02:43:08 2025.
 Gaussian 16:  ES64L-G16RevC.01  3-Jul-2019

 ----------------------------------------------------------------------
 #t hf aug-cc-pvdz iop(5/13=1,5/36=2,99/5=2) pseudo=read geom=check gue
 ss=(read,tcheck) scf=(maxcycle=1)
 ----------------------------------------------------------------------
 -----
 title
 -----
 Structure from the checkpoint file:  "E2SN2_211_mol2.chk"
 Charge = -1 Multiplicity = 1

                         Standard orientation:
 ---------------------------------------------------------------------
 Center     Atomic      Atomic             Coordinates (Angstroms)
 Number     Number       Type             X           Y           Z
 ---------------------------------------------------------------------
      1          6           0        0.472888    0.564900   -0.165237
      2          6           0       -0.632431    0.172310    0.775796
      3          9           0        0.882307    1.882184    0.122802
      4          1           0       -0.788338    0.955258    1.527019
      5          1           0        0.221058    0.491433   -1.208665
      6          1           0       -0.439669   -0.791277    1.220461
      7          7           0        1.713084   -0.233500    0.060237
      8          8           0        2.516259   -0.262314   -0.865589
      9          8           0        1.928815   -0.655322    1.194971
     10          7           0       -1.930523    0.049799    0.061660
     11          8           0       -2.767592   -0.689752    0.568885
     12          8           0       -2.135676    0.774823   -0.908151
     13          9           0       -0.087658   -1.563545   -0.786843
 ---------------------------------------------------------------------

 SCF Done:  E(RHF) =  -685.229715414     A.U. after    2 cycles

 The electronic state is 1-A.
 Alpha  occ. eigenvalues --  -26.35365 -26.09980 -20.46133 -20.46118 -20.45835
 Alpha  occ. eigenvalues --  -20.45734 -15.66020 -15.65738 -11.26379 -11.18399
 Alpha  occ. eigenvalues --   -1.53661  -1.53180  -1.47191  -1.37307  -1.36931
 Alpha  occ. eigenvalues --   -1.17063  -1.02780  -0.95642  -0.79084  -0.72551
 Alpha  occ. eigenvalues --   -0.67238  -0.66272  -0.63477  -0.62162  -0.61784
 Alpha  occ. eigenvalues --   -0.60278  -0.55390  -0.53522  -0.50472  -0.47437
 Alpha  occ. eigenvalues --   -0.43296  -0.37129  -0.36769  -0.35131  -0.35091
 Alpha  occ. eigenvalues --   -0.32172  -0.31699  -0.26756  -0.26537  -0.26399
 Alpha virt. eigenvalues --    0.13320   0.16308   0.16652   0.19124   0.19534
 Alpha virt. eigenvalues --    0.20204   0.21526   0.22943   0.23608   0.24933
 Alpha virt. eigenvalues --    0.25519   0.26428   0.27375   0.27975   0.28481

 Mulliken charges:
               1
     1  C    0.849700
     2  C   -0.578797
     3  F   -0.941215
     4  H    0.112721
     5  H    0.209463
     6  H    0.299268
     7  N    3.167062
     8  O   -1.544153
     9  O   -1.566639
    10  N    2.915545
    11  O   -1.472785
    12  O   -1.483103
    13  F   -0.967066
 Sum of Mulliken charges =  -1.00000

 Dipole moment (field-independent basis, Debye):
    X=             -0.1498    Y=              5.0669    Z=              3.1394  Tot=              5.9625

 Test job not archived.
 1\1\GINC-SE051\SP\RHF\Aug-CC-pVDZ\C2H3F2N2O4(1-)\OHZDE\09-Apr-2025\0\\
 #t hf aug-cc-pvdz iop(5/13=1,5/36=2,99/5=2) pseudo=read geom=check gue
 ss=(read,tcheck) scf=(maxcycle=1)\\title\\-1,1\C,0,-0.042192,-0.010516
 ,-0.003372\C,0,-0.475953,0.420187,-1.377325\F,0,1.364839,-0.074901,0.0
 40728\H,0,0.396595,0.682907,-1.98666\H,0,-0.451088,-0.951004,0.321965\
 H,0,-1.195974,1.22148,-1.323641\N,0,-0.368461,1.010329,1.034795\O,0,-0
 .405766,0.61323,2.194103\O,0,-0.403544,2.190649,0.691705\N,0,-1.142602
 ,-0.691311,-2.105469\O,0,-1.932455,-0.372459,-2.988284\O,0,-0.78198,-1

 Normal termination of Gaussian 16 at Wed Apr  9 02:43:14 2025.
