 Gaussian 16, Revision C.01,

 ----------------------------------------------------------------------
 #t hf aug-cc-pvdz symm=none int=(grid=ultrafine) guess=(read,tcheck) s
 table=(opt,rrhf)
 ----------------------------------------------------------------------
 -----
 title
 -----
 Symbolic Z-matrix:
 Charge = -1 Multiplicity = 1

 SCF Done:  E(RHF) =  -763.521141310     A.U. after   16 cycles
 Normal termination of Gaussian 16 at Wed Apr  9 02:33:09 2025.
 Gaussian 16:  ES64L-G16RevC.01  3-Jul-2019

 ----------------------------------------------------------------------
 #t hf aug-cc-pvdz iop(5/13=1,5/36=2,99/5=2) pseudo=read geom=check gue
 ss=(read,tcheck) scf=(maxcycle=1)
 ----------------------------------------------------------------------
 -----
 title
 -----
 Structure from the checkpoint file:  "E2SN2_105_mol2.chk"
 Charge = -1 Multiplicity = 1

                         Standard orientation:
 ---------------------------------------------------------------------
 Center     Atomic      Atomic             Coordinates (Angstroms)
 Number     Number       Type             X           Y           Z
 ---------------------------------------------------------------------
      1          6           0       -0.300881   -0.143147    0.335239
      2          6           0        1.027462    0.607583    0.096622
      3         17           0       -0.663010   -1.296800   -1.025546
      4          1           0        1.043571    1.355255    0.913867
      5          6           0       -0.238210   -0.931208    1.632972
      6          1           0        0.126030   -0.270793    2.427101
      7          1           0       -1.211428   -1.361465    1.880005
      8          1           0        0.506740   -1.714929    1.503361
      9          6           0       -1.414833    0.809010    0.354658
     10          7           0       -2.293507    1.589439    0.382105
     11          6           0        1.072599    1.318083   -1.246150
     12          1           0        1.164792    0.594146   -2.059876
     13          1           0        1.945082    1.977407   -1.266934
     14          1           0        0.181504    1.927680   -1.421896
     15          7           0        2.125413   -0.312140    0.301519
     16          1           0        2.878381   -0.067132   -0.333358
     17          1           0        2.460826   -0.073557    1.273579
     18          1           0        2.475521    0.775967    2.693015
 ---------------------------------------------------------------------

 SCF Done:  E(RHF) =  -763.919038203     A.U. after    2 cycles

 The electronic state is 1-A.
 Alpha  occ. eigenvalues -- -105.45173 -15.41480 -15.33394 -11.22761 -11.18540
 Alpha  occ. eigenvalues --  -11.14780 -11.11956 -11.11816 -10.50022  -7.66958
 Alpha  occ. eigenvalues --   -7.66600  -7.66594  -1.12295  -1.07502  -1.00573
 Alpha  occ. eigenvalues --   -0.89090  -0.88038  -0.78533  -0.70940  -0.58551
 Alpha  occ. eigenvalues --   -0.55330  -0.52488  -0.51506  -0.49724  -0.48778
 Alpha  occ. eigenvalues --   -0.45148  -0.43029  -0.42334  -0.41048  -0.39424
 Alpha  occ. eigenvalues --   -0.37855  -0.36997  -0.34394  -0.34121  -0.29240
 Alpha  occ. eigenvalues --   -0.09813
 Alpha virt. eigenvalues --    0.12392   0.12933   0.13576   0.14071   0.15600
 Alpha virt. eigenvalues --    0.16249   0.16543   0.17912   0.19448   0.19730
 Alpha virt. eigenvalues --    0.21155   0.21974   0.22317   0.23399   0.24122

 Mulliken charges:
               1
     1  C   -1.006234
     2  C   -1.282218
     3  Cl  -0.075437
     4  H    0.171826
     5  C    0.532785
     6  H    0.380777
     7  H    0.129246
     8  H    0.312073
     9  C   -1.462327
    10  N    0.967428
    11  C   -0.503424
    12  H    0.248789
    13  H    0.088578
    14  H    0.241630
    15  N    0.663666
    16  H    0.217974
    17  H    0.155641
    18  H   -0.780776
 Sum of Mulliken charges =  -1.00000

 Dipole moment (field-independent basis, Debye):
    X=             -4.9250    Y=             -3.3985    Z=             -8.6154  Tot=             10.4896

 Test job not archived.
 1\1\GINC-SE345\SP\RHF\Aug-CC-pVDZ\C5H10Cl1N2(1-)\OHZDE\09-Apr-2025\0\\
 #t hf aug-cc-pvdz iop(5/13=1,5/36=2,99/5=2) pseudo=read geom=check gue
 ss=(read,tcheck) scf=(maxcycle=1)\\title\\-1,1\C,0,-0.393996,-0.113397
 ,-1.496793\C,0,0.010812,-0.180765,-0.007961\Cl,0,-2.193921,0.082936,-1
 .685235\H,0,1.087899,-0.435928,-0.051964\C,0,0.293803,1.056567,-2.1803
 1\H,0,1.362154,1.023501,-1.941577\H,0,0.120122,1.040358,-3.258675\H,0,
 -0.10294,1.970586,-1.740842\C,0,-0.061376,-1.376615,-2.161259\N,0,0.22
 6457,-2.391343,-2.680267\C,0,-0.737768,-1.257248,0.760608\H,0,-1.78210

 Normal termination of Gaussian 16 at Wed Apr  9 02:33:17 2025.
