 Gaussian 16, Revision C.01,

 ----------------------------------------------------------------------
 #t hf aug-cc-pvdz symm=none int=(grid=ultrafine) guess=(read,tcheck) s
 table=(opt,rrhf)
 ----------------------------------------------------------------------
 -----
 title
 -----
 Symbolic Z-matrix:
 Charge = -1 Multiplicity = 1

 SCF Done:  E(RHF) =  -567.935770778     A.U. after   16 cycles
 Normal termination of Gaussian 16 at Wed Apr  9 02:36:33 2025.
 Gaussian 16:  ES64L-G16RevC.01  3-Jul-2019

 ----------------------------------------------------------------------
 #t hf aug-cc-pvdz iop(5/13=1,5/36=2,99/5=2) pseudo=read geom=check gue
 ss=(read,tcheck) scf=(maxcycle=1)
 ----------------------------------------------------------------------
 -----
 title
 -----
 Structure from the checkpoint file:  "E2SN2_125_mol1.chk"
 Charge = -1 Multiplicity = 1

                         Standard orientation:
 ---------------------------------------------------------------------
 Center     Atomic      Atomic             Coordinates (Angstroms)
 Number     Number       Type             X           Y           Z
 ---------------------------------------------------------------------
      1          6           0       -0.160468   -0.531501   -0.133211
      2          6           0        0.786053    0.490296    0.464521
      3          9           0        0.038526   -0.713701   -1.483929
      4          1           0        0.589738   -0.404611    2.840775
      5          1           0        0.709860    0.208184    1.670753
      6          7           0       -0.163560   -1.799067    0.506994
      7          1           0       -0.029051   -1.607266    1.515372
      8          1           0        0.662649   -2.290931    0.183015
      9          7           0       -1.576279    0.049622   -0.013207
     10          8           0       -2.046497    0.618121   -0.995106
     11          8           0       -2.111730   -0.052129    1.082990
     12          6           0        0.465012    1.957033    0.209935
     13          1           0       -0.465977    2.223850    0.717754
     14          1           0        1.256464    2.578709    0.636175
     15          1           0        0.364417    2.197942   -0.852945
     16          6           0        2.130447    0.136937    0.086030
     17          7           0        3.240514   -0.154426   -0.182681
 ---------------------------------------------------------------------

 SCF Done:  E(RHF) =  -568.493074523     A.U. after    2 cycles

 The electronic state is 1-A.
 Alpha  occ. eigenvalues --  -26.36518 -20.48074 -20.47900 -15.66839 -15.38992
 Alpha  occ. eigenvalues --  -15.38472 -11.30931 -11.16557 -11.13832 -11.13169
 Alpha  occ. eigenvalues --   -1.55373  -1.49676  -1.39089  -1.12042  -1.09227
 Alpha  occ. eigenvalues --   -0.98462  -0.92675  -0.80935  -0.73638  -0.68558
 Alpha  occ. eigenvalues --   -0.66122  -0.64418  -0.60078  -0.59056  -0.54849
 Alpha  occ. eigenvalues --   -0.54703  -0.50593  -0.49328  -0.48305  -0.47332
 Alpha  occ. eigenvalues --   -0.44151  -0.41665  -0.38963  -0.37529  -0.36948
 Alpha  occ. eigenvalues --   -0.34905  -0.34014  -0.33283  -0.12258
 Alpha virt. eigenvalues --    0.12817   0.14244   0.14395   0.15062   0.17454
 Alpha virt. eigenvalues --    0.17746   0.18559   0.19103   0.19644   0.21425
 Alpha virt. eigenvalues --    0.22514   0.22905   0.24083   0.24281   0.25570

 Mulliken charges:
               1
     1  C   -0.359608
     2  C   -0.261685
     3  F   -1.061463
     4  H   -0.378844
     5  H    0.163224
     6  N    0.534879
     7  H    0.305720
     8  H    0.312246
     9  N    3.074283
    10  O   -1.471808
    11  O   -1.514002
    12  C   -0.157089
    13  H    0.210141
    14  H    0.163564
    15  H    0.214063
    16  C   -1.729874
    17  N    0.956253
 Sum of Mulliken charges =  -1.00000

 Dipole moment (field-independent basis, Debye):
    X=             -2.8027    Y=              1.9472    Z=             -5.8470  Tot=              6.7701

 Test job not archived.
 1\1\GINC-SE097\SP\RHF\Aug-CC-pVDZ\C4H7F1N3O2(1-)\OHZDE\09-Apr-2025\0\\
 #t hf aug-cc-pvdz iop(5/13=1,5/36=2,99/5=2) pseudo=read geom=check gue
 ss=(read,tcheck) scf=(maxcycle=1)\\title\\-1,1\C,0,-0.05721212,-0.1199
 0265,-0.35711479\C,0,-0.09296099,-0.01699322,1.15463484\F,0,1.21496166
 ,-0.31919796,-0.84608276\H,0,-2.5452254,-0.67498532,1.35319926\H,0,-1.
 29326767,-0.23819031,1.37985574\N,0,-0.92385986,-1.09578222,-0.9167356
 \H,0,-1.77289215,-1.09342039,-0.32441391\H,0,-0.47160664,-1.99490994,-
 0.78808741\N,0,-0.48624525,1.24781044,-0.90658518\O,0,0.39725428,2.034

 Normal termination of Gaussian 16 at Wed Apr  9 02:36:42 2025.
