 Gaussian 16, Revision C.01,

 ----------------------------------------------------------------------
 #t hf aug-cc-pvdz symm=none int=(grid=ultrafine) guess=(read,tcheck) s
 table=(opt,rrhf)
 ----------------------------------------------------------------------
 -----
 title
 -----
 Symbolic Z-matrix:
 Charge = -1 Multiplicity = 1

 SCF Done:  E(RHF) =  -763.537588163     A.U. after   16 cycles
 Normal termination of Gaussian 16 at Wed Apr  9 02:42:16 2025.
 Gaussian 16:  ES64L-G16RevC.01  3-Jul-2019

 ----------------------------------------------------------------------
 #t hf aug-cc-pvdz iop(5/13=1,5/36=2,99/5=2) pseudo=read geom=check gue
 ss=(read,tcheck) scf=(maxcycle=1)
 ----------------------------------------------------------------------
 -----
 title
 -----
 Structure from the checkpoint file:  "E2SN2_20_mol2.chk"
 Charge = -1 Multiplicity = 1

                         Standard orientation:
 ---------------------------------------------------------------------
 Center     Atomic      Atomic             Coordinates (Angstroms)
 Number     Number       Type             X           Y           Z
 ---------------------------------------------------------------------
      1          6           0        0.675076    0.079858    0.329472
      2          6           0       -0.672176    0.787299    0.069631
      3         17           0        0.842554   -1.319133   -0.861861
      4          1           0       -0.687847    1.503247    0.903378
      5          6           0        1.833005    1.030062    0.110667
      6          1           0        1.673886    1.872770    0.794864
      7          1           0        2.754205    0.513419    0.382640
      8          1           0        1.899833    1.371365   -0.923194
      9          7           0        0.765039   -0.434563    1.664754
     10          1           0       -0.034250   -1.039021    1.839562
     11          1           0        0.630109    0.419387    2.257082
     12          6           0       -1.783425   -0.138538    0.268623
     13          7           0       -2.699939   -0.859970    0.415651
     14          6           0       -0.815937    1.511387   -1.268174
     15          1           0       -0.631448    0.834494   -2.105765
     16          1           0       -0.111556    2.342961   -1.317115
     17          1           0       -1.824012    1.921824   -1.367941
     18          1           0        0.132708    2.126137    2.563977
 ---------------------------------------------------------------------

 SCF Done:  E(RHF) =  -763.937115747     A.U. after    2 cycles

 The electronic state is 1-A.
 Alpha  occ. eigenvalues -- -105.42596 -15.39419 -15.35321 -11.21950 -11.16697
 Alpha  occ. eigenvalues --  -11.15095 -11.13410 -11.10905 -10.47508  -7.64423
 Alpha  occ. eigenvalues --   -7.64100  -7.64097  -1.11154  -1.08955  -0.97022
 Alpha  occ. eigenvalues --   -0.92254  -0.86114  -0.80029  -0.67177  -0.59833
 Alpha  occ. eigenvalues --   -0.57744  -0.53426  -0.50663  -0.49235  -0.46290
 Alpha  occ. eigenvalues --   -0.45389  -0.43603  -0.42625  -0.41889  -0.38743
 Alpha  occ. eigenvalues --   -0.36939  -0.35685  -0.33126  -0.32745  -0.30678
 Alpha  occ. eigenvalues --   -0.10618
 Alpha virt. eigenvalues --    0.11991   0.12606   0.13722   0.14261   0.16047
 Alpha virt. eigenvalues --    0.16548   0.17550   0.17937   0.19150   0.20276
 Alpha virt. eigenvalues --    0.20824   0.22020   0.23037   0.23521   0.25133

 Mulliken charges:
               1
     1  C   -2.684789
     2  C    0.530260
     3  Cl  -0.155050
     4  H    0.270510
     5  C    0.171583
     6  H    0.244463
     7  H    0.189162
     8  H    0.186395
     9  N    0.941506
    10  H    0.220819
    11  H    0.213652
    12  C   -1.998638
    13  N    1.071432
    14  C   -0.051260
    15  H    0.296822
    16  H    0.186707
    17  H    0.106223
    18  H   -0.739796
 Sum of Mulliken charges =  -1.00000

 Dipole moment (field-independent basis, Debye):
    X=              1.9383    Y=             -2.2777    Z=             -8.8949  Tot=              9.3842

 Test job not archived.
 1\1\GINC-SE455\SP\RHF\Aug-CC-pVDZ\C5H10Cl1N2(1-)\OHZDE\09-Apr-2025\0\\
 #t hf aug-cc-pvdz iop(5/13=1,5/36=2,99/5=2) pseudo=read geom=check gue
 ss=(read,tcheck) scf=(maxcycle=1)\\title\\-1,1\C,0,-0.173267,0.000347,
 -1.481226\C,0,-0.012739,0.00751,0.05411\Cl,0,-1.968595,-0.141171,-1.88
 2811\H,0,1.082415,-0.021226,0.142276\C,0,0.347005,1.288339,-2.082853\H
 ,0,1.398843,1.366843,-1.781065\H,0,0.288379,1.205609,-3.168771\H,0,-0.
 221545,2.159171,-1.753878\N,0,0.526135,-1.092565,-2.091211\H,0,0.21810
 8,-1.96171,-1.661679\H,0,1.516503,-0.940975,-1.783835\C,0,-0.529369,-1

 Normal termination of Gaussian 16 at Wed Apr  9 02:42:25 2025.
