 Gaussian 16, Revision C.01,

 ----------------------------------------------------------------------
 #t hf aug-cc-pvdz symm=none int=(grid=ultrafine) guess=(read,tcheck) s
 table=(opt,rrhf)
 ----------------------------------------------------------------------
 -----
 title
 -----
 Symbolic Z-matrix:
 Charge = -1 Multiplicity = 1

 SCF Done:  E(RHF) =  -839.520916653     A.U. after   14 cycles
 Normal termination of Gaussian 16 at Wed Apr  9 02:41:56 2025.
 Gaussian 16:  ES64L-G16RevC.01  3-Jul-2019

 ----------------------------------------------------------------------
 #t hf aug-cc-pvdz iop(5/13=1,5/36=2,99/5=2) pseudo=read geom=check gue
 ss=(read,tcheck) scf=(maxcycle=1)
 ----------------------------------------------------------------------
 -----
 title
 -----
 Structure from the checkpoint file:  "E2SN2_207_mol2.chk"
 Charge = -1 Multiplicity = 1

                         Standard orientation:
 ---------------------------------------------------------------------
 Center     Atomic      Atomic             Coordinates (Angstroms)
 Number     Number       Type             X           Y           Z
 ---------------------------------------------------------------------
      1          6           0        0.678311    1.022238   -0.424415
      2          6           0        0.552865   -0.459911   -0.058311
      3          9           0        1.693324    1.552608    0.418410
      4          1           0       -0.190904   -0.904520   -0.728944
      5          1           0        1.095974    1.138190   -1.432528
      6          7           0       -0.530970    1.710679   -0.211730
      7          1           0       -1.339112    1.091955   -0.125906
      8          1           0       -0.706335    2.407425   -0.918367
      9          7           0        0.108141   -0.703549    1.303816
     10          1           0       -0.908920   -0.715415    1.283555
     11          1           0        0.418055    0.062898    1.888849
     12          6           0        1.850464   -1.118377   -0.302642
     13          7           0        2.881165   -1.634675   -0.524065
     14         17           0       -2.900404   -0.548523   -0.176253
 ---------------------------------------------------------------------

 SCF Done:  E(RHF) =  -839.978725987     A.U. after    2 cycles

 The electronic state is 1-A.
 Alpha  occ. eigenvalues -- -105.29905 -26.32669 -15.40257 -15.37203 -15.37103
 Alpha  occ. eigenvalues --  -11.24409 -11.19106 -11.17335 -10.34526  -7.51297
 Alpha  occ. eigenvalues --   -7.51260  -7.51249  -1.44862  -1.11971  -1.09766
 Alpha  occ. eigenvalues --   -1.06074  -0.89309  -0.76331  -0.75228  -0.64499
 Alpha  occ. eigenvalues --   -0.62604  -0.60334  -0.55840  -0.54672  -0.52460
 Alpha  occ. eigenvalues --   -0.49930  -0.47943  -0.44402  -0.43563  -0.38246
 Alpha  occ. eigenvalues --   -0.37357  -0.34385  -0.33094  -0.22872  -0.22437
 Alpha  occ. eigenvalues --   -0.22279
 Alpha virt. eigenvalues --    0.12434   0.14070   0.14664   0.15915   0.17897
 Alpha virt. eigenvalues --    0.18210   0.18813   0.20237   0.22684   0.23496
 Alpha virt. eigenvalues --    0.23673   0.24111   0.24833   0.25329   0.27255

 Mulliken charges:
               1
     1  C    0.408655
     2  C   -0.378543
     3  F   -0.868755
     4  H    0.138030
     5  H   -0.032085
     6  N    0.620692
     7  H    0.004621
     8  H    0.219766
     9  N    0.507933
    10  H    0.219257
    11  H    0.202289
    12  C   -2.008504
    13  N    0.920465
    14  Cl  -0.953821
 Sum of Mulliken charges =  -1.00000

 Dipole moment (field-independent basis, Debye):
    X=              4.0485    Y=              4.2432    Z=             -1.0134  Tot=              5.9516

 Test job not archived.
 1\1\GINC-SE452\SP\RHF\Aug-CC-pVDZ\C3H6Cl1F1N3(1-)\OHZDE\09-Apr-2025\0\
 \#t hf aug-cc-pvdz iop(5/13=1,5/36=2,99/5=2) pseudo=read geom=check gu
 ess=(read,tcheck) scf=(maxcycle=1)\\title\\-1,1\C,0,0.124011,-0.001603
 ,0.006456\C,0,-0.518005,0.064403,-1.382786\F,0,1.448867,-0.477892,-0.1
 93049\H,0,-1.526372,0.475776,-1.262014\H,0,0.272809,1.006866,0.412692\
 N,0,-0.577458,-0.875547,0.858342\H,0,-1.518431,-1.094898,0.527084\H,0,
 -0.618154,-0.537784,1.806922\N,0,-0.652201,-1.224474,-2.041055\H,0,-1.
 544641,-1.613866,-1.746287\H,0,0.094063,-1.830962,-1.723228\C,0,0.2645

 Normal termination of Gaussian 16 at Wed Apr  9 02:42:01 2025.
