 Gaussian 16, Revision C.01,

 ----------------------------------------------------------------------
 #t hf aug-cc-pvdz symm=none int=(grid=ultrafine) guess=(read,tcheck) s
 table=(opt,rrhf)
 ----------------------------------------------------------------------
 -----
 title
 -----
 Symbolic Z-matrix:
 Charge = -1 Multiplicity = 1

 SCF Done:  E(RHF) =  -419.478281530     A.U. after   15 cycles
 Normal termination of Gaussian 16 at Wed Apr  9 02:53:05 2025.
 Gaussian 16:  ES64L-G16RevC.01  3-Jul-2019

 ----------------------------------------------------------------------
 #t hf aug-cc-pvdz iop(5/13=1,5/36=2,99/5=2) pseudo=read geom=check gue
 ss=(read,tcheck) scf=(maxcycle=1)
 ----------------------------------------------------------------------
 -----
 title
 -----
 Structure from the checkpoint file:  "E2SN2_317_mol2.chk"
 Charge = -1 Multiplicity = 1

                         Standard orientation:
 ---------------------------------------------------------------------
 Center     Atomic      Atomic             Coordinates (Angstroms)
 Number     Number       Type             X           Y           Z
 ---------------------------------------------------------------------
      1          6           0        0.439635    0.284604    0.372466
      2          6           0       -1.083027    0.101020    0.195483
      3          9           0        0.808121   -0.346191    1.607104
      4          1           0       -1.515561    0.748154    0.967635
      5          6           0        1.160789   -0.528265   -0.647044
      6          7           0        1.712696   -1.148188   -1.479720
      7          7           0        0.806057    1.628580    0.386205
      8          1           0        0.116226    2.305488   -0.057014
      9          1           0        1.739009    1.799110    0.037311
     10          6           0       -1.505169   -1.341783    0.440340
     11          1           0       -1.176611   -1.704930    1.414901
     12          1           0       -1.088830   -1.997192   -0.332377
     13          1           0       -2.593291   -1.397782    0.373451
     14          7           0       -1.583331    0.562214   -1.084970
     15          1           0       -1.056402    0.124954   -1.835121
     16          1           0       -1.442926    1.584230   -1.147249
     17          1           0       -0.876027    3.261994   -0.803558
 ---------------------------------------------------------------------

 SCF Done:  E(RHF) =  -419.904745910     A.U. after    2 cycles

 The electronic state is 1-A.
 Alpha  occ. eigenvalues --  -26.32792 -15.41473 -15.35483 -15.34292 -11.26426
 Alpha  occ. eigenvalues --  -11.18002 -11.15096 -11.11359  -1.44707  -1.12209
 Alpha  occ. eigenvalues --   -1.09055  -1.04204  -0.89777  -0.82688  -0.73235
 Alpha  occ. eigenvalues --   -0.63758  -0.59960  -0.57819  -0.56540  -0.52284
 Alpha  occ. eigenvalues --   -0.51357  -0.48359  -0.46532  -0.46134  -0.42007
 Alpha  occ. eigenvalues --   -0.41619  -0.39967  -0.39195  -0.38212  -0.32441
 Alpha  occ. eigenvalues --   -0.30217  -0.11500
 Alpha virt. eigenvalues --    0.12517   0.13597   0.13985   0.14702   0.16013
 Alpha virt. eigenvalues --    0.16588   0.17816   0.19686   0.20049   0.21664
 Alpha virt. eigenvalues --    0.22023   0.23087   0.23610   0.24012   0.24808

 Mulliken charges:
               1
     1  C    0.933107
     2  C   -2.023073
     3  F   -0.990238
     4  H    0.085008
     5  C   -2.009303
     6  N    1.003678
     7  N    0.629982
     8  H    0.030625
     9  H    0.243165
    10  C    0.095567
    11  H    0.201518
    12  H    0.213003
    13  H    0.133709
    14  N    0.864968
    15  H    0.280768
    16  H    0.054949
    17  H   -0.747433
 Sum of Mulliken charges =  -1.00000

 Dipole moment (field-independent basis, Debye):
    X=              1.4072    Y=             -8.3358    Z=              3.3633  Tot=              9.0982

 Test job not archived.
 1\1\GINC-SE114\SP\RHF\Aug-CC-pVDZ\C4H9F1N3(1-)\OHZDE\09-Apr-2025\0\\#t
  hf aug-cc-pvdz iop(5/13=1,5/36=2,99/5=2) pseudo=read geom=check guess
 =(read,tcheck) scf=(maxcycle=1)\\title\\-1,1\C,0,-0.092623,0.228887,0.
 014406\C,0,-0.475983,0.1369,-1.478276\F,0,1.339287,0.275384,0.088482\H
 ,0,-0.158869,-0.871961,-1.767627\C,0,-0.498956,1.557981,0.551641\N,0,-
 0.857074,2.597701,0.967562\N,0,-0.5814,-0.85042,0.747155\H,0,-1.399973
 ,-1.375001,0.316728\H,0,-0.774437,-0.630905,1.7145\C,0,0.271783,1.1684
 24,-2.312928\H,0,1.352024,1.097744,-2.179962\H,0,-0.045545,2.181116,-2

 Normal termination of Gaussian 16 at Wed Apr  9 02:53:12 2025.
