 Gaussian 16, Revision C.01,

 ----------------------------------------------------------------------
 #t hf aug-cc-pvdz symm=none int=(grid=ultrafine) guess=(read,tcheck) s
 table=(opt,rrhf)
 ----------------------------------------------------------------------
 -----
 title
 -----
 Symbolic Z-matrix:
 Charge = -1 Multiplicity = 1

 SCF Done:  E(RHF) =  -476.168458007     A.U. after   16 cycles
 Normal termination of Gaussian 16 at Wed Apr  9 03:00:09 2025.
 Gaussian 16:  ES64L-G16RevC.01  3-Jul-2019

 ----------------------------------------------------------------------
 #t hf aug-cc-pvdz iop(5/13=1,5/36=2,99/5=2) pseudo=read geom=check gue
 ss=(read,tcheck) scf=(maxcycle=1)
 ----------------------------------------------------------------------
 -----
 title
 -----
 Structure from the checkpoint file:  "E2SN2_45_mol1.chk"
 Charge = -1 Multiplicity = 1

                         Standard orientation:
 ---------------------------------------------------------------------
 Center     Atomic      Atomic             Coordinates (Angstroms)
 Number     Number       Type             X           Y           Z
 ---------------------------------------------------------------------
      1          6           0       -0.048645   -0.598205    0.222715
      2          6           0        1.231897   -0.634119   -0.470099
      3          9           0       -0.056792   -0.512596    1.654498
      4          1           0        0.300826   -1.069762   -2.741364
      5          1           0        0.771488   -0.797888   -1.814692
      6          1           0        1.659193   -1.629653   -0.321178
      7          7           0       -0.761382    0.758505   -0.099495
      8          8           0       -1.802384    0.723823   -0.759851
      9          8           0       -0.239431    1.793174    0.313394
     10          7           0       -0.853472   -1.692957   -0.140753
     11          1           0       -0.803007   -1.774295   -1.159767
     12          1           0       -1.816062   -1.521360    0.121493
     13          6           0        2.233753    0.480831   -0.261439
     14          1           0        1.943146    1.396766   -0.786000
     15          1           0        2.391573    0.755074    0.790355
     16          1           0        3.200440    0.168632   -0.673001
 ---------------------------------------------------------------------

 SCF Done:  E(RHF) =  -476.648006412     A.U. after    2 cycles

 The electronic state is 1-A.
 Alpha  occ. eigenvalues --  -26.31186 -20.45126 -20.44772 -15.63201 -15.36554
 Alpha  occ. eigenvalues --  -11.26445 -11.08213 -11.04599  -1.51646  -1.42917
 Alpha  occ. eigenvalues --   -1.35480  -1.09246  -0.92547  -0.86149  -0.75290
 Alpha  occ. eigenvalues --   -0.68728  -0.64310  -0.60898  -0.58812  -0.56464
 Alpha  occ. eigenvalues --   -0.54390  -0.48931  -0.46743  -0.44767  -0.42740
 Alpha  occ. eigenvalues --   -0.39620  -0.38033  -0.37118  -0.34330  -0.32672
 Alpha  occ. eigenvalues --   -0.31717  -0.30374  -0.10037
 Alpha virt. eigenvalues --    0.13387   0.14107   0.14706   0.15140   0.17227
 Alpha virt. eigenvalues --    0.18168   0.19327   0.20308   0.21021   0.22299
 Alpha virt. eigenvalues --    0.23264   0.23870   0.25047   0.25960   0.27484

 Mulliken charges:
               1
     1  C   -0.463338
     2  C   -0.360189
     3  F   -1.110508
     4  H   -0.784343
     5  H    0.492923
     6  H    0.042128
     7  N    2.911145
     8  O   -1.445994
     9  O   -1.515247
    10  N    0.677915
    11  H    0.269569
    12  H    0.317377
    13  C   -0.462791
    14  H    0.207684
    15  H    0.124224
    16  H    0.099446
 Sum of Mulliken charges =  -1.00000

 Dipole moment (field-independent basis, Debye):
    X=             -0.5448    Y=              0.8850    Z=              5.1238  Tot=              5.2281

 Test job not archived.
 1\1\GINC-SE367\SP\RHF\Aug-CC-pVDZ\C3H8F1N2O2(1-)\OHZDE\09-Apr-2025\0\\
 #t hf aug-cc-pvdz iop(5/13=1,5/36=2,99/5=2) pseudo=read geom=check gue
 ss=(read,tcheck) scf=(maxcycle=1)\\title\\-1,1\C,0,-0.00825833,0.14104
 645,-0.24667744\C,0,0.0296933,0.0598223,1.20694941\F,0,1.213784,-0.023
 36595,-0.97946515\H,0,-2.34177316,0.73262,1.57952472\H,0,-1.33973911,0
 .35379032,1.49843575\H,0,0.4781081,0.98600327,1.57703036\N,0,-0.786612
 34,-1.09857047,-0.80344309\O,0,-1.86624905,-0.90038712,-1.36564071\O,0
 ,-0.28618367,-2.2106397,-0.64119741\N,0,-0.5990329,1.3442914,-0.672734

 Normal termination of Gaussian 16 at Wed Apr  9 03:00:15 2025.
