 Gaussian 16, Revision C.01,

 ----------------------------------------------------------------------
 #t hf aug-cc-pvdz symm=none int=(grid=ultrafine) guess=(read,tcheck) s
 table=(opt,rrhf)
 ----------------------------------------------------------------------
 -----
 title
 -----
 Symbolic Z-matrix:
 Charge = -1 Multiplicity = 1

 SCF Done:  E(RHF) =  -463.407270795     A.U. after   14 cycles
 Normal termination of Gaussian 16 at Wed Apr  9 02:57:09 2025.
 Gaussian 16:  ES64L-G16RevC.01  3-Jul-2019

 ----------------------------------------------------------------------
 #t hf aug-cc-pvdz iop(5/13=1,5/36=2,99/5=2) pseudo=read geom=check gue
 ss=(read,tcheck) scf=(maxcycle=1)
 ----------------------------------------------------------------------
 -----
 title
 -----
 Structure from the checkpoint file:  "E2SN2_372_mol2.chk"
 Charge = -1 Multiplicity = 1

                         Standard orientation:
 ---------------------------------------------------------------------
 Center     Atomic      Atomic             Coordinates (Angstroms)
 Number     Number       Type             X           Y           Z
 ---------------------------------------------------------------------
      1          6           0       -0.491766    0.775968    0.346469
      2          6           0        0.291744   -0.540858    0.288849
      3          9           0        0.406752    1.819834    0.642059
      4          1           0       -0.538398   -1.237492    0.030562
      5          1           0       -1.186022    0.692014    1.184957
      6          7           0       -1.250569    1.076000   -0.819810
      7          1           0       -1.894857    0.250962   -0.828715
      8          1           0       -0.639073    0.997702   -1.628331
      9          6           0        0.945952   -0.899539    1.621330
     10          1           0        1.661073   -0.132054    1.927781
     11          1           0        1.464403   -1.860152    1.564997
     12          1           0        0.168002   -0.979923    2.385257
     13          6           0        1.278035   -0.499327   -0.784356
     14          7           0        2.082716   -0.468316   -1.641092
     15          9           0       -2.296079   -1.264536   -0.224720
 ---------------------------------------------------------------------

 SCF Done:  E(RHF) =  -463.863996029     A.U. after    2 cycles

 The electronic state is 1-A.
 Alpha  occ. eigenvalues --  -26.30633 -26.10235 -15.38441 -15.32794 -11.20581
 Alpha  occ. eigenvalues --  -11.15854 -11.12606 -11.12353  -1.42858  -1.16783
 Alpha  occ. eigenvalues --   -1.09273  -1.04717  -0.94782  -0.79242  -0.73129
 Alpha  occ. eigenvalues --   -0.60171  -0.57219  -0.54366  -0.52346  -0.48822
 Alpha  occ. eigenvalues --   -0.47327  -0.46148  -0.44294  -0.42027  -0.40964
 Alpha  occ. eigenvalues --   -0.39032  -0.36136  -0.35201  -0.29885  -0.26639
 Alpha  occ. eigenvalues --   -0.26052  -0.25196
 Alpha virt. eigenvalues --    0.12535   0.13880   0.14383   0.15566   0.17024
 Alpha virt. eigenvalues --    0.17786   0.19010   0.19896   0.22311   0.23280
 Alpha virt. eigenvalues --    0.24154   0.24821   0.25392   0.26360   0.26779

 Mulliken charges:
               1
     1  C    0.193576
     2  C   -0.316141
     3  F   -0.888934
     4  H    0.357713
     5  H    0.112701
     6  N    0.252850
     7  H    0.305900
     8  H    0.222094
     9  C    0.042598
    10  H    0.258913
    11  H    0.134026
    12  H    0.152171
    13  C   -1.795851
    14  N    0.952768
    15  F   -0.984386
 Sum of Mulliken charges =  -1.00000

 Dipole moment (field-independent basis, Debye):
    X=              3.9237    Y=              1.1244    Z=              4.0300  Tot=              5.7359

 Test job not archived.
 1\1\GINC-SE112\SP\RHF\Aug-CC-pVDZ\C4H7F2N2(1-)\OHZDE\09-Apr-2025\0\\#t
  hf aug-cc-pvdz iop(5/13=1,5/36=2,99/5=2) pseudo=read geom=check guess
 =(read,tcheck) scf=(maxcycle=1)\\title\\-1,1\C,0,0.013127,0.016069,-0.
 001217\C,0,-0.462829,0.045742,-1.458552\F,0,1.42138,0.048168,0.011347\
 H,0,-1.564398,0.038326,-1.292307\H,0,-0.297823,-0.945826,0.411299\N,0,
 -0.52417,1.040571,0.82807\H,0,-1.542783,0.809935,0.756592\H,0,-0.37803
 1,1.934938,0.367075\C,0,0.003213,-1.168686,-2.258623\H,0,1.094222,-1.2
 20924,-2.294871\H,0,-0.38132,-1.143581,-3.281485\H,0,-0.376041,-2.0741

 Normal termination of Gaussian 16 at Wed Apr  9 02:57:14 2025.
