 Gaussian 16, Revision C.01,

 ----------------------------------------------------------------------
 #t hf aug-cc-pvdz symm=none int=(grid=ultrafine) guess=(read,tcheck) s
 table=(opt,rrhf)
 ----------------------------------------------------------------------
 -----
 title
 -----
 Symbolic Z-matrix:
 Charge = -1 Multiplicity = 1

 SCF Done:  E(RHF) =  -364.384574280     A.U. after   16 cycles
 Normal termination of Gaussian 16 at Wed Apr  9 02:50:57 2025.
 Gaussian 16:  ES64L-G16RevC.01  3-Jul-2019

 ----------------------------------------------------------------------
 #t hf aug-cc-pvdz iop(5/13=1,5/36=2,99/5=2) pseudo=read geom=check gue
 ss=(read,tcheck) scf=(maxcycle=1)
 ----------------------------------------------------------------------
 -----
 title
 -----
 Structure from the checkpoint file:  "E2SN2_297_mol1.chk"
 Charge = -1 Multiplicity = 1

                         Standard orientation:
 ---------------------------------------------------------------------
 Center     Atomic      Atomic             Coordinates (Angstroms)
 Number     Number       Type             X           Y           Z
 ---------------------------------------------------------------------
      1          6           0       -0.291419   -0.339707   -0.225252
      2          1           0        1.359291   -1.172647   -1.317751
      3          9           0       -0.440981   -0.566920    1.424619
      4          1           0       -0.224777    0.205641   -1.998732
      5          6           0        1.164940   -0.766103   -0.328465
      6          1           0        1.276684   -1.570282    0.404721
      7          6           0       -0.640781    1.065903   -0.220549
      8          7           0       -0.975360    2.181799   -0.017126
      9          7           0       -1.296404   -1.328801   -0.569638
     10          1           0       -1.700115   -1.057848   -1.453283
     11          1           0       -1.989329   -1.287297    0.168898
     12          6           0        2.116578    0.376252   -0.012232
     13          1           0        1.999728    1.175852   -0.748416
     14          1           0        1.895487    0.781290    0.977162
     15          1           0        3.158300    0.038505   -0.027839
 ---------------------------------------------------------------------

 SCF Done:  E(RHF) =  -364.753454265     A.U. after    2 cycles

 The electronic state is 1-A.
 Alpha  occ. eigenvalues --  -26.20850 -15.35285 -15.33622 -11.23429 -11.12968
 Alpha  occ. eigenvalues --  -11.09251 -11.08949  -1.29971  -1.06056  -1.03379
 Alpha  occ. eigenvalues --   -0.91763  -0.79274  -0.71225  -0.58060  -0.55889
 Alpha  occ. eigenvalues --   -0.50963  -0.48416  -0.44077  -0.41498  -0.40255
 Alpha  occ. eigenvalues --   -0.38529  -0.37446  -0.36178  -0.33902  -0.32873
 Alpha  occ. eigenvalues --   -0.31882  -0.31060  -0.12147
 Alpha virt. eigenvalues --    0.12558   0.14020   0.14635   0.14980   0.16875
 Alpha virt. eigenvalues --    0.17243   0.17798   0.19341   0.20116   0.23801
 Alpha virt. eigenvalues --    0.24763   0.25289   0.25663   0.26936   0.27316

 Mulliken charges:
               1
     1  C   -0.783506
     2  H    0.070576
     3  F   -0.929251
     4  H   -0.295462
     5  C    0.149533
     6  H    0.226773
     7  C   -2.124116
     8  N    1.044933
     9  N    0.741807
    10  H    0.273338
    11  H    0.255756
    12  C   -0.229659
    13  H    0.303605
    14  H    0.272628
    15  H    0.023046
 Sum of Mulliken charges =  -1.00000

 Dipole moment (field-independent basis, Debye):
    X=              2.2885    Y=             -3.5708    Z=              1.4334  Tot=              4.4769

 Test job not archived.
 1\1\GINC-SE112\SP\RHF\Aug-CC-pVDZ\C4H8F1N2(1-)\OHZDE\09-Apr-2025\0\\#t
  hf aug-cc-pvdz iop(5/13=1,5/36=2,99/5=2) pseudo=read geom=check guess
 =(read,tcheck) scf=(maxcycle=1)\\title\\-1,1\C,0,0.48815782,-0.0390928
 3,0.06760409\H,0,1.55489161,1.80263014,0.35452202\F,0,-1.15450496,-0.1
 4354275,0.36225317\H,0,2.25171621,-0.10561268,-0.50903662\C,0,0.564543
 14,1.47979879,0.04351221\H,0,-0.15942445,1.81118326,0.79371718\C,0,0.4
 71279,-0.78780049,-1.17214155\N,0,0.25955357,-1.44032313,-2.13543509\N
 ,0,0.86922715,-0.70122243,1.30181355\H,0,1.75780285,-1.15151937,1.1440

 Normal termination of Gaussian 16 at Wed Apr  9 02:51:02 2025.
