 Gaussian 16, Revision C.01,

 ----------------------------------------------------------------------
 #t hf aug-cc-pvdz symm=none int=(grid=ultrafine) guess=(read,tcheck) s
 table=(opt,rrhf)
 ----------------------------------------------------------------------
 -----
 title
 -----
 Symbolic Z-matrix:
 Charge = -1 Multiplicity = 1

 SCF Done:  E(RHF) =  -1295.33625316     A.U. after   15 cycles
 Normal termination of Gaussian 16 at Wed Apr  9 02:46:35 2025.
 Gaussian 16:  ES64L-G16RevC.01  3-Jul-2019

 ----------------------------------------------------------------------
 #t hf aug-cc-pvdz iop(5/13=1,5/36=2,99/5=2) pseudo=read geom=check gue
 ss=(read,tcheck) scf=(maxcycle=1)
 ----------------------------------------------------------------------
 -----
 title
 -----
 Structure from the checkpoint file:  "E2SN2_245_mol2.chk"
 Charge = -1 Multiplicity = 1

                         Standard orientation:
 ---------------------------------------------------------------------
 Center     Atomic      Atomic             Coordinates (Angstroms)
 Number     Number       Type             X           Y           Z
 ---------------------------------------------------------------------
      1          6           0        0.517924    0.144787   -0.152514
      2          6           0       -0.098241    0.898835    1.004119
      3         17           0        2.125968    0.909836   -0.630187
      4          1           0        0.645977    0.982876    1.795630
      5          1           0       -0.926874    0.279874    1.363411
      6          7           0        1.029405   -1.250446    0.367903
      7          8           0        1.026998   -2.168137   -0.445867
      8          8           0        1.416867   -1.331433    1.527932
      9          7           0       -0.313236    0.032950   -1.243566
     10          1           0       -1.298935   -0.088195   -0.957986
     11          1           0       -0.015696   -0.690434   -1.883459
     12          6           0       -0.640647    2.258801    0.582843
     13          1           0       -0.984092    2.803387    1.466505
     14          1           0        0.125100    2.856211    0.083168
     15          1           0       -1.492102    2.131134   -0.083898
     16         17           0       -3.260773   -0.413975   -0.129633
 ---------------------------------------------------------------------

 SCF Done:  E(RHF) =  -1295.87308124     A.U. after    2 cycles

 The electronic state is 1-A.
 Alpha  occ. eigenvalues -- -105.46102-105.28907 -20.48511 -20.48428 -15.67151
 Alpha  occ. eigenvalues --  -15.38126 -11.29065 -11.13414 -11.11690 -10.50990
 Alpha  occ. eigenvalues --  -10.33518  -7.67917  -7.67557  -7.67542  -7.50296
 Alpha  occ. eigenvalues --   -7.50249  -7.50241  -1.55454  -1.39571  -1.14573
 Alpha  occ. eigenvalues --   -0.98978  -0.93091  -0.90271  -0.78027  -0.74604
 Alpha  occ. eigenvalues --   -0.70976  -0.67468  -0.63824  -0.62878  -0.59799
 Alpha  occ. eigenvalues --   -0.55031  -0.49457  -0.46660  -0.44662  -0.42234
 Alpha  occ. eigenvalues --   -0.40195  -0.39352  -0.37922  -0.36196  -0.35415
 Alpha  occ. eigenvalues --   -0.34022  -0.33427  -0.21850  -0.21293  -0.21190
 Alpha virt. eigenvalues --    0.12234   0.13334   0.13998   0.14727   0.16000
 Alpha virt. eigenvalues --    0.17516   0.17673   0.18225   0.20284   0.21332
 Alpha virt. eigenvalues --    0.23648   0.23952   0.24442   0.25128   0.26369

 Mulliken charges:
               1
     1  C   -2.493025
     2  C    0.225193
     3  Cl  -0.057258
     4  H    0.164990
     5  H    0.268098
     6  N    3.244162
     7  O   -1.490234
     8  O   -1.540731
     9  N    0.953153
    10  H    0.153157
    11  H    0.368014
    12  C   -0.352506
    13  H    0.106279
    14  H    0.203457
    15  H    0.205622
    16  Cl  -0.958372
 Sum of Mulliken charges =  -1.00000

 Dipole moment (field-independent basis, Debye):
    X=              8.6337    Y=              3.2231    Z=              0.3853  Tot=              9.2237

 Test job not archived.
 1\1\GINC-SE340\SP\RHF\Aug-CC-pVDZ\C3H7Cl2N2O2(1-)\OHZDE\09-Apr-2025\0\
 \#t hf aug-cc-pvdz iop(5/13=1,5/36=2,99/5=2) pseudo=read geom=check gu
 ess=(read,tcheck) scf=(maxcycle=1)\\title\\-1,1\C,0,0.020761,0.04977,0
 .018607\C,0,-0.473522,0.194447,-1.402942\Cl,0,1.849019,-0.18761,0.0385
 92\H,0,0.115265,0.968201,-1.894927\H,0,-1.511933,0.533992,-1.330503\N,
 0,-0.075223,1.449706,0.732813\O,0,-0.264572,1.429782,1.944479\O,0,0.06
 7166,2.459724,0.05315\N,0,-0.609595,-0.950496,0.722771\H,0,-1.60836,-1
 .021941,0.46743\H,0,-0.482493,-0.859352,1.721177\C,0,-0.434368,-1.1245

 Normal termination of Gaussian 16 at Wed Apr  9 02:46:42 2025.
