 Gaussian 16, Revision C.01,

 ----------------------------------------------------------------------
 #t hf aug-cc-pvdz symm=none int=(grid=ultrafine) guess=(read,tcheck) s
 table=(opt,rrhf)
 ----------------------------------------------------------------------
 -----
 title
 -----
 Symbolic Z-matrix:
 Charge = -1 Multiplicity = 1

 SCF Done:  E(RHF) =  -987.868552404     A.U. after   17 cycles
 Normal termination of Gaussian 16 at Wed Apr  9 02:48:39 2025.
 Gaussian 16:  ES64L-G16RevC.01  3-Jul-2019

 ----------------------------------------------------------------------
 #t hf aug-cc-pvdz iop(5/13=1,5/36=2,99/5=2) pseudo=read geom=check gue
 ss=(read,tcheck) scf=(maxcycle=1)
 ----------------------------------------------------------------------
 -----
 title
 -----
 Structure from the checkpoint file:  "E2SN2_265_mol1.chk"
 Charge = -1 Multiplicity = 1

                         Standard orientation:
 ---------------------------------------------------------------------
 Center     Atomic      Atomic             Coordinates (Angstroms)
 Number     Number       Type             X           Y           Z
 ---------------------------------------------------------------------
      1          6           0        0.141929    0.017743   -0.035448
      2          1           0        0.719576    0.897697   -1.913095
      3          9           0        1.162329   -1.491885    0.522040
      4         17           0       -1.270333    1.627443   -0.521756
      5          6           0        1.041444    0.091139   -1.257526
      6          1           0        0.902873   -0.864551   -1.769395
      7          6           0        0.515433    0.597236    1.228955
      8          7           0        0.814856    1.092028    2.252463
      9          7           0       -0.968326   -0.989813    0.002175
     10          8           0       -1.223064   -1.563937   -1.047905
     11          8           0       -1.545993   -1.145913    1.065939
     12          7           0        2.408986    0.354117   -0.823164
     13          1           0        3.000065    0.434426   -1.641284
     14          1           0        2.683194   -0.459378   -0.285228
 ---------------------------------------------------------------------

 SCF Done:  E(RHF) =  -988.453455501     A.U. after    2 cycles

 The electronic state is 1-A.
 Alpha  occ. eigenvalues -- -105.38283 -26.19384 -20.46639 -20.46565 -15.67852
 Alpha  occ. eigenvalues --  -15.39412 -15.37196 -11.31857 -11.17556 -11.16537
 Alpha  occ. eigenvalues --  -10.43064  -7.59920  -7.59683  -7.59679  -1.54657
 Alpha  occ. eigenvalues --   -1.38504  -1.27697  -1.10047  -1.07801  -1.01584
 Alpha  occ. eigenvalues --   -0.85705  -0.82907  -0.78033  -0.69383  -0.62980
 Alpha  occ. eigenvalues --   -0.61973  -0.60097  -0.53071  -0.52660  -0.48559
 Alpha  occ. eigenvalues --   -0.47403  -0.43565  -0.39710  -0.37253  -0.36357
 Alpha  occ. eigenvalues --   -0.35989  -0.35512  -0.33793  -0.33246  -0.31947
 Alpha  occ. eigenvalues --   -0.29623  -0.28923  -0.28341
 Alpha virt. eigenvalues --    0.11972   0.14534   0.14814   0.16481   0.16791
 Alpha virt. eigenvalues --    0.19413   0.20374   0.21403   0.22444   0.23317
 Alpha virt. eigenvalues --    0.24119   0.24896   0.25481   0.26530   0.26610

 Mulliken charges:
               1
     1  C   -0.440343
     2  H    0.093290
     3  F   -0.850416
     4  Cl  -0.422514
     5  C    0.045951
     6  H    0.289547
     7  C   -1.620344
     8  N    1.031361
     9  N    3.414726
    10  O   -1.614014
    11  O   -1.534942
    12  N    0.274252
    13  H    0.122743
    14  H    0.210701
 Sum of Mulliken charges =  -1.00000

 Dipole moment (field-independent basis, Debye):
    X=              1.5113    Y=             -0.6931    Z=             -4.9847  Tot=              5.2547

 Test job not archived.
 1\1\GINC-SE247\SP\RHF\Aug-CC-pVDZ\C3H4Cl1F1N3O2(1-)\OHZDE\09-Apr-2025\
 0\\#t hf aug-cc-pvdz iop(5/13=1,5/36=2,99/5=2) pseudo=read geom=check
 guess=(read,tcheck) scf=(maxcycle=1)\\title\\-1,1\C,0,0.78489324,0.027
 32994,-0.02333299\H,0,1.63509781,2.0033184,0.05524837\F,0,-1.11863236,
 -0.05641854,-0.0470694\Cl,0,2.96673493,-0.15218021,0.14829082\C,0,0.65
 197091,1.54055271,-0.00145185\H,0,0.09703098,1.7632363,0.91342981\C,0,
 0.72257254,-0.73146654,-1.24578007\N,0,0.69417102,-1.34405591,-2.24876
 074\N,0,0.58824232,-0.74752362,1.24559522\O,0,0.53553739,-0.09836021,2

 Normal termination of Gaussian 16 at Wed Apr  9 02:48:46 2025.
