 Gaussian 16, Revision C.01,

 ----------------------------------------------------------------------
 #t hf aug-cc-pvdz symm=none int=(grid=ultrafine) guess=(read,tcheck) s
 table=(opt,rrhf)
 ----------------------------------------------------------------------
 -----
 title
 -----
 Symbolic Z-matrix:
 Charge = -1 Multiplicity = 1

 SCF Done:  E(RHF) =  -888.927032692     A.U. after   18 cycles
 Normal termination of Gaussian 16 at Wed Apr  9 02:35:12 2025.
 Gaussian 16:  ES64L-G16RevC.01  3-Jul-2019

 ----------------------------------------------------------------------
 #t hf aug-cc-pvdz iop(5/13=1,5/36=2,99/5=2) pseudo=read geom=check gue
 ss=(read,tcheck) scf=(maxcycle=1)
 ----------------------------------------------------------------------
 -----
 title
 -----
 Structure from the checkpoint file:  "E2SN2_118_mol2.chk"
 Charge = -1 Multiplicity = 1

                         Standard orientation:
 ---------------------------------------------------------------------
 Center     Atomic      Atomic             Coordinates (Angstroms)
 Number     Number       Type             X           Y           Z
 ---------------------------------------------------------------------
      1          6           0       -0.594968   -0.037544    0.219730
      2          6           0        0.577589   -0.680748   -0.506936
      3         17           0       -2.026347   -1.066908   -0.188155
      4          1           0        0.488297   -0.473182   -1.585522
      5          1           0        0.587585   -1.763466   -0.396208
      6          7           0       -0.521797    0.033239    1.670471
      7          1           0       -0.289984   -0.896318    2.007400
      8          1           0        0.265316    0.643120    1.875760
      9          6           0       -0.893502    1.317997   -0.271957
     10          7           0       -1.189929    2.408369   -0.591135
     11          7           0        1.830247   -0.165275   -0.074971
     12          8           0        2.847364   -0.854563   -0.283965
     13          8           0        1.868493    1.017062    0.346466
     14          1           0        0.305461   -0.205264   -2.878379
 ---------------------------------------------------------------------

 SCF Done:  E(RHF) =  -889.424308626     A.U. after    2 cycles

 The electronic state is 1-A.
 Alpha  occ. eigenvalues -- -105.46952 -20.46566 -20.46275 -15.65735 -15.42039
 Alpha  occ. eigenvalues --  -15.40852 -11.28416 -11.17863 -11.15981 -10.51803
 Alpha  occ. eigenvalues --   -7.68746  -7.68356  -7.68340  -1.51997  -1.36033
 Alpha  occ. eigenvalues --   -1.15842  -1.10148  -1.03030  -0.97997  -0.84374
 Alpha  occ. eigenvalues --   -0.75670  -0.67459  -0.64166  -0.62897  -0.62437
 Alpha  occ. eigenvalues --   -0.58454  -0.53736  -0.50362  -0.48050  -0.45130
 Alpha  occ. eigenvalues --   -0.40673  -0.38937  -0.38448  -0.37025  -0.36046
 Alpha  occ. eigenvalues --   -0.35668  -0.35155  -0.32620  -0.10626
 Alpha virt. eigenvalues --    0.11784   0.13960   0.14801   0.16770   0.17100
 Alpha virt. eigenvalues --    0.18588   0.20816   0.21449   0.21568   0.21818
 Alpha virt. eigenvalues --    0.22548   0.23776   0.24117   0.25355   0.26325

 Mulliken charges:
               1
     1  C   -0.968262
     2  C    0.153227
     3  Cl   0.058265
     4  H   -0.153491
     5  H    0.033994
     6  N    0.551602
     7  H    0.183259
     8  H    0.225526
     9  C   -1.598952
    10  N    1.061513
    11  N    2.900912
    12  O   -1.473432
    13  O   -1.465013
    14  H   -0.509150
 Sum of Mulliken charges =  -1.00000

 Dipole moment (field-independent basis, Debye):
    X=             -1.6216    Y=             -4.0211    Z=              9.5940  Tot=             10.5282

 Test job not archived.
 1\1\GINC-SE115\SP\RHF\Aug-CC-pVDZ\C3H5Cl1N3O2(1-)\OHZDE\09-Apr-2025\0\
 \#t hf aug-cc-pvdz iop(5/13=1,5/36=2,99/5=2) pseudo=read geom=check gu
 ess=(read,tcheck) scf=(maxcycle=1)\\title\\-1,1\C,0,-0.503239,0.076617
 ,-1.426278\C,0,-0.001643,-0.001357,0.008632\Cl,0,-0.152677,-1.549456,-
 2.138879\H,0,1.100142,0.020071,0.004858\H,0,-0.295124,-0.92804,0.49829
 2\N,0,-1.921636,0.330288,-1.623289\H,0,-2.430513,-0.332309,-1.04593\H,
 0,-2.088307,1.260603,-1.248616\C,0,0.235736,1.061729,-2.233645\N,0,0.7
 6015,1.835456,-2.944272\N,0,-0.447522,1.094006,0.797828\O,0,-0.448316,

 Normal termination of Gaussian 16 at Wed Apr  9 02:35:18 2025.
