 Gaussian 16, Revision C.01,

 ----------------------------------------------------------------------
 #t hf aug-cc-pvdz symm=none int=(grid=ultrafine) guess=(read,tcheck) s
 table=(opt,rrhf)
 ----------------------------------------------------------------------
 -----
 title
 -----
 Symbolic Z-matrix:
 Charge = -1 Multiplicity = 1

 SCF Done:  E(RHF) =  -419.428349351     A.U. after   16 cycles
 Normal termination of Gaussian 16 at Wed Apr  9 02:35:05 2025.
 Gaussian 16:  ES64L-G16RevC.01  3-Jul-2019

 ----------------------------------------------------------------------
 #t hf aug-cc-pvdz iop(5/13=1,5/36=2,99/5=2) pseudo=read geom=check gue
 ss=(read,tcheck) scf=(maxcycle=1)
 ----------------------------------------------------------------------
 -----
 title
 -----
 Structure from the checkpoint file:  "E2SN2_116_mol1.chk"
 Charge = -1 Multiplicity = 1

                         Standard orientation:
 ---------------------------------------------------------------------
 Center     Atomic      Atomic             Coordinates (Angstroms)
 Number     Number       Type             X           Y           Z
 ---------------------------------------------------------------------
      1          6           0       -0.241634   -0.446124    0.083028
      2          6           0        0.817040    0.500967   -0.278687
      3          9           0       -0.288378   -0.769290    1.512843
      4          1           0        0.737384    0.131067   -2.718530
      5          1           0        0.710701    0.424956   -1.713160
      6          7           0       -0.173082   -1.732854   -0.580858
      7          1           0        0.653538   -2.189068   -0.208145
      8          1           0        0.037199   -1.517648   -1.561268
      9          6           0        2.213418   -0.053690   -0.112476
     10          1           0        2.463252   -0.730024   -0.944958
     11          1           0        2.910823    0.786135   -0.155909
     12          1           0        2.387595   -0.588702    0.834173
     13          7           0        0.658995    1.852409    0.245397
     14          1           0        0.301469    1.839389    1.197839
     15          1           0       -0.015412    2.357041   -0.320083
     16          6           0       -1.572061    0.160433   -0.175117
     17          7           0       -2.613302    0.657723   -0.396830
 ---------------------------------------------------------------------

 SCF Done:  E(RHF) =  -419.856228366     A.U. after    2 cycles

 The electronic state is 1-A.
 Alpha  occ. eigenvalues --  -26.30390 -15.38939 -15.36914 -15.34395 -11.24232
 Alpha  occ. eigenvalues --  -11.15719 -11.08274 -11.07067  -1.41485  -1.10023
 Alpha  occ. eigenvalues --   -1.07428  -1.03045  -0.86657  -0.82419  -0.67452
 Alpha  occ. eigenvalues --   -0.61979  -0.56970  -0.55683  -0.53955  -0.51079
 Alpha  occ. eigenvalues --   -0.48383  -0.46899  -0.44118  -0.42997  -0.39889
 Alpha  occ. eigenvalues --   -0.39247  -0.36985  -0.36345  -0.35382  -0.33446
 Alpha  occ. eigenvalues --   -0.28616  -0.10396
 Alpha virt. eigenvalues --    0.13174   0.13646   0.14593   0.15157   0.16359
 Alpha virt. eigenvalues --    0.17076   0.17967   0.18594   0.19213   0.21725
 Alpha virt. eigenvalues --    0.22626   0.23371   0.24563   0.25059   0.25552

 Mulliken charges:
               1
     1  C    0.519605
     2  C   -1.453446
     3  F   -1.030513
     4  H   -0.556489
     5  H    0.369007
     6  N    0.543661
     7  H    0.345136
     8  H    0.213614
     9  C   -0.352567
    10  H    0.176544
    11  H    0.094322
    12  H    0.130572
    13  N    0.543531
    14  H    0.147931
    15  H    0.282105
    16  C   -1.998063
    17  N    1.025048
 Sum of Mulliken charges =  -1.00000

 Dipole moment (field-independent basis, Debye):
    X=              1.7900    Y=             -1.5200    Z=              5.3441  Tot=              5.8373

 Test job not archived.
 1\1\GINC-SE131\SP\RHF\Aug-CC-pVDZ\C4H9F1N3(1-)\OHZDE\09-Apr-2025\0\\#t
  hf aug-cc-pvdz iop(5/13=1,5/36=2,99/5=2) pseudo=read geom=check guess
 =(read,tcheck) scf=(maxcycle=1)\\title\\-1,1\C,0,-0.13283932,-0.006775
 42,-0.29691028\C,0,-0.14565584,-0.00653313,1.16884761\F,0,1.20884572,-
 0.10779093,-0.8805812\H,0,-2.47124129,0.77217031,1.45393822\H,0,-1.534
 80333,0.30725606,1.38472362\N,0,-0.71575868,1.16486619,-0.92027015\H,0
 ,-0.08596236,1.93115014,-0.70460307\H,0,-1.57748504,1.34710968,-0.3949
 5853\C,0,0.47653997,1.22656724,1.78324084\H,0,-0.2171053,2.08005355,1.

 Normal termination of Gaussian 16 at Wed Apr  9 02:35:12 2025.
