 Gaussian 16, Revision C.01,

 ----------------------------------------------------------------------
 #t hf aug-cc-pvdz symm=none int=(grid=ultrafine) guess=(read,tcheck) s
 table=(opt,rrhf)
 ----------------------------------------------------------------------
 -----
 title
 -----
 Symbolic Z-matrix:
 Charge = -1 Multiplicity = 1

 SCF Done:  E(RHF) =  -419.433168958     A.U. after   16 cycles
 Normal termination of Gaussian 16 at Wed Apr  9 03:01:56 2025.
 Gaussian 16:  ES64L-G16RevC.01  3-Jul-2019

 ----------------------------------------------------------------------
 #t hf aug-cc-pvdz iop(5/13=1,5/36=2,99/5=2) pseudo=read geom=check gue
 ss=(read,tcheck) scf=(maxcycle=1)
 ----------------------------------------------------------------------
 -----
 title
 -----
 Structure from the checkpoint file:  "E2SN2_74_mol1.chk"
 Charge = -1 Multiplicity = 1

                         Standard orientation:
 ---------------------------------------------------------------------
 Center     Atomic      Atomic             Coordinates (Angstroms)
 Number     Number       Type             X           Y           Z
 ---------------------------------------------------------------------
      1          6           0        0.309406    0.418405    0.058201
      2          6           0       -0.899007   -0.351114   -0.225388
      3          9           0        0.498709    0.755299    1.493980
      4          1           0       -1.283230   -1.327098   -2.376083
      5          1           0       -0.932646   -0.807005   -1.525695
      6          6           0        1.497967   -0.405794   -0.235512
      7          7           0        2.454826   -1.043019   -0.482477
      8          6           0        0.377749    1.748644   -0.661955
      9          1           0        1.279113    2.293595   -0.370545
     10          1           0        0.375626    1.584821   -1.742637
     11          1           0       -0.516236    2.308426   -0.392614
     12          7           0       -1.002639   -1.608489    0.500235
     13          1           0       -0.253728   -1.718316    1.173162
     14          1           0       -0.943088   -2.371051   -0.178680
     15          7           0       -2.113348    0.435301   -0.205688
     16          1           0       -2.616617    0.210571    0.647772
     17          1           0       -2.686145    0.080962   -0.977061
 ---------------------------------------------------------------------

 SCF Done:  E(RHF) =  -419.860320054     A.U. after    2 cycles

 The electronic state is 1-A.
 Alpha  occ. eigenvalues --  -26.29834 -15.39197 -15.33729 -15.33344 -11.21941
 Alpha  occ. eigenvalues --  -11.16090 -11.11318 -11.09242  -1.40299  -1.09648
 Alpha  occ. eigenvalues --   -1.06804  -0.98038  -0.93897  -0.79204  -0.69592
 Alpha  occ. eigenvalues --   -0.59691  -0.56179  -0.55012  -0.51482  -0.50071
 Alpha  occ. eigenvalues --   -0.49132  -0.47881  -0.45142  -0.43613  -0.41421
 Alpha  occ. eigenvalues --   -0.40318  -0.37023  -0.36426  -0.36009  -0.31427
 Alpha  occ. eigenvalues --   -0.28579  -0.10108
 Alpha virt. eigenvalues --    0.12912   0.13742   0.14611   0.14973   0.15949
 Alpha virt. eigenvalues --    0.16507   0.17174   0.18735   0.18837   0.21616
 Alpha virt. eigenvalues --    0.23292   0.24516   0.25081   0.25201   0.26208

 Mulliken charges:
               1
     1  C    0.973501
     2  C   -2.430650
     3  F   -0.949379
     4  H   -0.487296
     5  H    0.127371
     6  C   -1.805197
     7  N    0.950544
     8  C   -0.007698
     9  H    0.168404
    10  H    0.335502
    11  H    0.265460
    12  N    0.570767
    13  H    0.170966
    14  H    0.245363
    15  N    0.205028
    16  H    0.344479
    17  H    0.322835
 Sum of Mulliken charges =  -1.00000

 Dipole moment (field-independent basis, Debye):
    X=              0.7803    Y=              4.4227    Z=              4.4659  Tot=              6.3335

 Test job not archived.
 1\1\GINC-SE126\SP\RHF\Aug-CC-pVDZ\C4H9F1N3(1-)\OHZDE\09-Apr-2025\0\\#t
  hf aug-cc-pvdz iop(5/13=1,5/36=2,99/5=2) pseudo=read geom=check guess
 =(read,tcheck) scf=(maxcycle=1)\\title\\-1,1\C,0,-0.08659135,0.0332240
 2,-0.43836959\C,0,-0.15140612,0.06339604,1.02030532\F,0,1.29077488,-0.
 07063017,-0.98870864\H,0,-2.23441564,-0.12380031,2.18292837\H,0,-1.444
 58123,-0.03893894,1.48613202\C,0,-0.72217301,-1.20324697,-0.93377198\N
 ,0,-1.24162066,-2.17456876,-1.34527513\C,0,-0.67803977,1.25560146,-1.1
 0830524\H,0,-0.55499695,1.19273769,-2.19239815\H,0,-1.73909166,1.33720

 Normal termination of Gaussian 16 at Wed Apr  9 03:02:03 2025.
