 Gaussian 16, Revision C.01,

 ----------------------------------------------------------------------
 #t hf aug-cc-pvdz symm=none int=(grid=ultrafine) guess=(read,tcheck) s
 table=(opt,rrhf)
 ----------------------------------------------------------------------
 -----
 title
 -----
 Symbolic Z-matrix:
 Charge = -1 Multiplicity = 1

 SCF Done:  E(RHF) =  -492.157440052     A.U. after   17 cycles
 Normal termination of Gaussian 16 at Wed Apr  9 02:32:52 2025.
 Gaussian 16:  ES64L-G16RevC.01  3-Jul-2019

 ----------------------------------------------------------------------
 #t hf aug-cc-pvdz iop(5/13=1,5/36=2,99/5=2) pseudo=read geom=check gue
 ss=(read,tcheck) scf=(maxcycle=1)
 ----------------------------------------------------------------------
 -----
 title
 -----
 Structure from the checkpoint file:  "E2SN2_103_mol1.chk"
 Charge = -1 Multiplicity = 1

                         Standard orientation:
 ---------------------------------------------------------------------
 Center     Atomic      Atomic             Coordinates (Angstroms)
 Number     Number       Type             X           Y           Z
 ---------------------------------------------------------------------
      1          6           0       -0.032345    0.461950   -0.496695
      2          6           0        1.074679   -0.359728   -0.039502
      3          9           0       -0.113699    1.794457    0.022540
      4          1           0        1.759433   -2.220425   -1.379725
      5          1           0        1.248776   -1.495763   -0.861024
      6          7           0       -1.356257   -0.170073   -0.147461
      7          8           0       -1.970373    0.236819    0.830911
      8          8           0       -1.724837   -1.077274   -0.891158
      9          7           0        0.914710   -0.885168    1.295233
     10          1           0        1.420321   -0.301769    1.956507
     11          1           0        1.371700   -1.795674    1.307102
     12          7           0        2.365365    0.238457   -0.327154
     13          1           0        2.295930    1.207038   -0.612005
     14          1           0        2.806904   -0.307719   -1.075784
     15          1           0       -0.038816    0.591998   -1.583101
 ---------------------------------------------------------------------

 SCF Done:  E(RHF) =  -492.646615693     A.U. after    2 cycles

 The electronic state is 1-A.
 Alpha  occ. eigenvalues --  -26.32044 -20.45567 -20.45225 -15.64694 -15.34062
 Alpha  occ. eigenvalues --  -15.33318 -11.23889 -11.08925  -1.52658  -1.43417
 Alpha  occ. eigenvalues --   -1.36358  -1.07053  -0.98270  -0.96354  -0.77608
 Alpha  occ. eigenvalues --   -0.69072  -0.64734  -0.61914  -0.60345  -0.57230
 Alpha  occ. eigenvalues --   -0.54259  -0.52448  -0.50628  -0.49043  -0.47286
 Alpha  occ. eigenvalues --   -0.41231  -0.37037  -0.35396  -0.34554  -0.31890
 Alpha  occ. eigenvalues --   -0.30442  -0.28839  -0.10447
 Alpha virt. eigenvalues --    0.13530   0.14582   0.14885   0.16494   0.16654
 Alpha virt. eigenvalues --    0.18960   0.19966   0.21107   0.21864   0.23851
 Alpha virt. eigenvalues --    0.24191   0.25504   0.25696   0.26864   0.27862

 Mulliken charges:
               1
     1  C    1.014329
     2  C   -2.680359
     3  F   -0.870978
     4  H   -0.696220
     5  H    0.524438
     6  N    2.710903
     7  O   -1.367697
     8  O   -1.459536
     9  N    0.426901
    10  H    0.223343
    11  H    0.252257
    12  N    0.542569
    13  H    0.176800
    14  H    0.160727
    15  H    0.042521
 Sum of Mulliken charges =  -1.00000

 Dipole moment (field-independent basis, Debye):
    X=             -1.6406    Y=              5.3917    Z=              0.9852  Tot=              5.7212

 Test job not archived.
 1\1\GINC-SE328\SP\RHF\Aug-CC-pVDZ\C2H7F1N3O2(1-)\OHZDE\09-Apr-2025\0\\
 #t hf aug-cc-pvdz iop(5/13=1,5/36=2,99/5=2) pseudo=read geom=check gue
 ss=(read,tcheck) scf=(maxcycle=1)\\title\\-1,1\C,0,-0.01909245,0.00873
 915,-0.35798211\C,0,-0.19315553,0.15201843,1.0768892\F,0,1.32126321,-0
 .13949113,-0.84096367\H,0,-2.31636339,-0.3879974,2.04003741\H,0,-1.537
 26026,-0.05775397,1.45789043\N,0,-0.56362115,1.20825012,-1.09202827\O,
 0,0.21323527,2.07228396,-1.47913374\O,0,-1.78361984,1.22971275,-1.2439
 8891\N,0,0.14056867,1.45928784,1.58959745\H,0,1.08244804,1.4477845,1.9

 Normal termination of Gaussian 16 at Wed Apr  9 02:32:58 2025.
