 Gaussian 16, Revision C.01,

 ----------------------------------------------------------------------
 #t hf aug-cc-pvdz symm=none int=(grid=ultrafine) guess=(read,tcheck) s
 table=(opt,rrhf)
 ----------------------------------------------------------------------
 -----
 title
 -----
 Symbolic Z-matrix:
 Charge = -1 Multiplicity = 1

 SCF Done:  E(RHF) =  -515.186785606     A.U. after   18 cycles
 Normal termination of Gaussian 16 at Wed Apr  9 02:57:51 2025.
 Gaussian 16:  ES64L-G16RevC.01  3-Jul-2019

 ----------------------------------------------------------------------
 #t hf aug-cc-pvdz iop(5/13=1,5/36=2,99/5=2) pseudo=read geom=check gue
 ss=(read,tcheck) scf=(maxcycle=1)
 ----------------------------------------------------------------------
 -----
 title
 -----
 Structure from the checkpoint file:  "E2SN2_380_mol2.chk"
 Charge = -1 Multiplicity = 1

                         Standard orientation:
 ---------------------------------------------------------------------
 Center     Atomic      Atomic             Coordinates (Angstroms)
 Number     Number       Type             X           Y           Z
 ---------------------------------------------------------------------
      1          6           0        0.056797   -0.380056    0.413462
      2          6           0       -0.992384    0.217622   -0.496453
      3          9           0       -0.072389    0.044974    1.723536
      4          1           0       -0.498169    0.233232   -1.498254
      5          7           0        0.047919   -1.812147    0.430282
      6          1           0        0.840769   -2.081860    1.008415
      7          1           0        0.313408   -2.075461   -0.516069
      8          7           0        1.412669    0.123420   -0.054058
      9          8           0        1.814343   -0.524312   -1.108965
     10          8           0        1.662704    1.342648    0.117178
     11          6           0       -1.319668    1.656407   -0.116965
     12          1           0       -1.987451    2.088668   -0.871142
     13          1           0       -1.816892    1.705275    0.856472
     14          1           0       -0.403057    2.243464   -0.072929
     15          6           0       -2.256162   -0.628866   -0.596498
     16          1           0       -2.968573   -0.139115   -1.270857
     17          1           0       -2.052097   -1.628090   -0.983078
     18          1           0       -2.732474   -0.744930    0.382753
     19          1           0        0.984040    0.077812   -2.467687
 ---------------------------------------------------------------------

 SCF Done:  E(RHF) =  -515.706210732     A.U. after    2 cycles

 The electronic state is 1-A.
 Alpha  occ. eigenvalues --  -26.32161 -20.44643 -20.35063 -15.50915 -15.37088
 Alpha  occ. eigenvalues --  -11.24538 -11.10243 -11.09606 -11.08386  -1.45602
 Alpha  occ. eigenvalues --   -1.40238  -1.26037  -1.08636  -0.95104  -0.86614
 Alpha  occ. eigenvalues --   -0.80271  -0.73207  -0.65984  -0.61381  -0.58513
 Alpha  occ. eigenvalues --   -0.57243  -0.52602  -0.51713  -0.50094  -0.47050
 Alpha  occ. eigenvalues --   -0.46447  -0.45122  -0.42646  -0.41012  -0.37356
 Alpha  occ. eigenvalues --   -0.36976  -0.35578  -0.34811  -0.31848  -0.26963
 Alpha  occ. eigenvalues --   -0.25457  -0.09051
 Alpha virt. eigenvalues --    0.12445   0.12965   0.13526   0.14224   0.15318
 Alpha virt. eigenvalues --    0.16052   0.17306   0.17740   0.18036   0.20323
 Alpha virt. eigenvalues --    0.20896   0.22781   0.23903   0.24815   0.25062

 Mulliken charges:
               1
     1  C   -0.477320
     2  C   -1.120117
     3  F   -1.154641
     4  H    0.112589
     5  N    0.817757
     6  H    0.204315
     7  H    0.438933
     8  N    2.768471
     9  O   -1.443823
    10  O   -1.760366
    11  C   -0.113385
    12  H    0.160176
    13  H    0.212886
    14  H    0.193053
    15  C   -0.118059
    16  H    0.155373
    17  H    0.131453
    18  H    0.218935
    19  H   -0.226232
 Sum of Mulliken charges =  -1.00000

 Dipole moment (field-independent basis, Debye):
    X=             -5.0091    Y=             -2.7136    Z=              3.0903  Tot=              6.4811

 Test job not archived.
 1\1\GINC-SE459\SP\RHF\Aug-CC-pVDZ\C4H10F1N2O2(1-)\OHZDE\09-Apr-2025\0\
 \#t hf aug-cc-pvdz iop(5/13=1,5/36=2,99/5=2) pseudo=read geom=check gu
 ess=(read,tcheck) scf=(maxcycle=1)\\title\\-1,1\C,0,0.004913,-0.019487
 ,-0.004561\C,0,-0.502213,-0.193202,-1.418276\F,0,1.33378,-0.379315,0.1
 30608\H,0,-1.596234,-0.378061,-1.287729\N,0,-0.122965,1.319853,0.48642
 \H,0,0.174529,1.282166,1.458876\H,0,-1.127482,1.477086,0.526687\N,0,-0
 .775549,-0.973341,0.885099\O,0,-1.961643,-0.505574,1.146064\O,0,-0.558
 926,-2.202161,0.738709\C,0,0.099851,-1.420847,-2.090314\H,0,-0.384443,

 Normal termination of Gaussian 16 at Wed Apr  9 02:58:00 2025.
