 Gaussian 16, Revision C.01,

 ----------------------------------------------------------------------
 #t hf aug-cc-pvdz symm=none int=(grid=ultrafine) guess=(read,tcheck) s
 table=(opt,rrhf)
 ----------------------------------------------------------------------
 -----
 title
 -----
 Symbolic Z-matrix:
 Charge = -1 Multiplicity = 1

 SCF Done:  E(RHF) =  -666.907925005     A.U. after   16 cycles
 Normal termination of Gaussian 16 at Wed Apr  9 03:00:02 2025.
 Gaussian 16:  ES64L-G16RevC.01  3-Jul-2019

 ----------------------------------------------------------------------
 #t hf aug-cc-pvdz iop(5/13=1,5/36=2,99/5=2) pseudo=read geom=check gue
 ss=(read,tcheck) scf=(maxcycle=1)
 ----------------------------------------------------------------------
 -----
 title
 -----
 Structure from the checkpoint file:  "E2SN2_402_mol2.chk"
 Charge = -1 Multiplicity = 1

                         Standard orientation:
 ---------------------------------------------------------------------
 Center     Atomic      Atomic             Coordinates (Angstroms)
 Number     Number       Type             X           Y           Z
 ---------------------------------------------------------------------
      1          6           0        0.795029    0.278062    0.645326
      2          6           0       -0.257423    0.064833   -0.457797
      3          9           0        0.186194    0.818446    1.784875
      4          1           0        0.347198   -0.442962   -1.264850
      5          7           0        1.303550   -1.021215    0.960624
      6          1           0        2.108377   -0.900731    1.567706
      7          1           0        1.639005   -1.367448    0.038445
      8          6           0        1.835765    1.269385    0.157321
      9          1           0        1.403925    2.251101   -0.051473
     10          1           0        2.273861    0.824565   -0.737884
     11          1           0        2.596462    1.380498    0.936226
     12          6           0       -0.891291    1.304025   -0.873338
     13          7           0       -1.368192    2.309685   -1.249667
     14          7           0       -1.321067   -0.873423    0.029357
     15          8           0       -2.208922   -0.404487    0.742097
     16          8           0       -1.230654   -2.048695   -0.309120
     17          9           0        1.808836   -1.098749   -1.669681
 ---------------------------------------------------------------------

 SCF Done:  E(RHF) =  -667.549401781     A.U. after    2 cycles

 The electronic state is 1-A.
 Alpha  occ. eigenvalues --  -26.32969 -26.12811 -20.47248 -20.46878 -15.66826
 Alpha  occ. eigenvalues --  -15.41657 -15.35694 -11.24930 -11.20287 -11.18810
 Alpha  occ. eigenvalues --  -11.11372  -1.54162  -1.45685  -1.38054  -1.19705
 Alpha  occ. eigenvalues --   -1.12231  -1.08948  -1.01228  -0.89594  -0.80151
 Alpha  occ. eigenvalues --   -0.73099  -0.68144  -0.65116  -0.63142  -0.59996
 Alpha  occ. eigenvalues --   -0.57498  -0.55059  -0.53126  -0.50908  -0.49708
 Alpha  occ. eigenvalues --   -0.46966  -0.45869  -0.42904  -0.41816  -0.40137
 Alpha  occ. eigenvalues --   -0.38614  -0.36710  -0.36423  -0.32880  -0.32076
 Alpha  occ. eigenvalues --   -0.29116  -0.28709  -0.28102
 Alpha virt. eigenvalues --    0.12344   0.13622   0.15217   0.15954   0.16714
 Alpha virt. eigenvalues --    0.17881   0.18455   0.19392   0.19636   0.22237
 Alpha virt. eigenvalues --    0.23506   0.24139   0.24605   0.24724   0.25250

 Mulliken charges:
               1
     1  C   -0.476929
     2  C    0.121767
     3  F   -1.059426
     4  H    0.329763
     5  N    0.543475
     6  H    0.287718
     7  H    0.350695
     8  C   -0.164222
     9  H    0.273155
    10  H    0.340119
    11  H    0.113479
    12  C   -1.653451
    13  N    1.014773
    14  N    2.926457
    15  O   -1.472107
    16  O   -1.449650
    17  F   -1.025613
 Sum of Mulliken charges =  -1.00000

 Dipole moment (field-independent basis, Debye):
    X=              0.8016    Y=              1.8599    Z=              3.6786  Tot=              4.1993

 Test job not archived.
 1\1\GINC-SE015\SP\RHF\Aug-CC-pVDZ\C4H6F2N3O2(1-)\OHZDE\09-Apr-2025\0\\
 #t hf aug-cc-pvdz iop(5/13=1,5/36=2,99/5=2) pseudo=read geom=check gue
 ss=(read,tcheck) scf=(maxcycle=1)\\title\\-1,1\C,0,-0.008234,-0.000981
 ,0.011322\C,0,-0.576106,0.006014,-1.419578\F,0,1.388961,0.084329,-0.03
 1527\H,0,-1.689206,0.018988,-1.230907\N,0,-0.527253,1.170887,0.646515\
 H,0,-0.302423,1.113704,1.634945\H,0,-1.555731,1.055347,0.538319\C,0,-0
 .375727,-1.309181,0.687758\H,0,0.058967,-2.172761,0.178723\H,0,-1.4664
 15,-1.348982,0.686219\H,0,0.000926,-1.282664,1.714952\C,0,-0.1149,-1.1

 Normal termination of Gaussian 16 at Wed Apr  9 03:00:12 2025.
