 Gaussian 16, Revision C.01,

 ----------------------------------------------------------------------
 #t hf aug-cc-pvdz symm=none int=(grid=ultrafine) guess=(read,tcheck) s
 table=(opt,rrhf)
 ----------------------------------------------------------------------
 -----
 title
 -----
 Symbolic Z-matrix:
 Charge = -1 Multiplicity = 1

 SCF Done:  E(RHF) =  -463.397434011     A.U. after   14 cycles
 Normal termination of Gaussian 16 at Wed Apr  9 02:40:59 2025.
 Gaussian 16:  ES64L-G16RevC.01  3-Jul-2019

 ----------------------------------------------------------------------
 #t hf aug-cc-pvdz iop(5/13=1,5/36=2,99/5=2) pseudo=read geom=check gue
 ss=(read,tcheck) scf=(maxcycle=1)
 ----------------------------------------------------------------------
 -----
 title
 -----
 Structure from the checkpoint file:  "E2SN2_191_mol2.chk"
 Charge = -1 Multiplicity = 1

                         Standard orientation:
 ---------------------------------------------------------------------
 Center     Atomic      Atomic             Coordinates (Angstroms)
 Number     Number       Type             X           Y           Z
 ---------------------------------------------------------------------
      1          6           0       -0.453792    0.753363   -0.201458
      2          6           0        0.501406   -0.052063    0.681708
      3          9           0        0.145878    2.021280   -0.381552
      4          1           0        0.714671    0.577124    1.560312
      5          1           0       -0.550671    0.262428   -1.167433
      6          6           0       -1.820947    0.900151    0.413067
      7          1           0       -2.304911   -0.065488    0.269188
      8          1           0       -1.768046    1.173239    1.470952
      9          1           0       -2.374526    1.670281   -0.132279
     10          6           0        1.797430   -0.204848   -0.023545
     11          7           0        2.849128   -0.364916   -0.523605
     12          7           0       -0.116492   -1.305613    1.074607
     13          1           0        0.601963   -1.980515    1.306305
     14          1           0       -0.688655   -1.638925    0.241874
     15          9           0       -1.579529   -1.652841   -1.021178
 ---------------------------------------------------------------------

 SCF Done:  E(RHF) =  -463.853042027     A.U. after    2 cycles

 The electronic state is 1-A.
 Alpha  occ. eigenvalues --  -26.31018 -26.09689 -15.38640 -15.33159 -11.17944
 Alpha  occ. eigenvalues --  -11.17075 -11.15697 -11.08802  -1.42866  -1.16380
 Alpha  occ. eigenvalues --   -1.09520  -1.04787  -0.90531  -0.82831  -0.69727
 Alpha  occ. eigenvalues --   -0.60821  -0.57846  -0.54532  -0.51628  -0.48910
 Alpha  occ. eigenvalues --   -0.47922  -0.46625  -0.43686  -0.41291  -0.38837
 Alpha  occ. eigenvalues --   -0.36720  -0.36300  -0.34334  -0.30616  -0.26007
 Alpha  occ. eigenvalues --   -0.25925  -0.25021
 Alpha virt. eigenvalues --    0.12939   0.13415   0.14930   0.14993   0.17430
 Alpha virt. eigenvalues --    0.18224   0.18846   0.19838   0.21067   0.23121
 Alpha virt. eigenvalues --    0.24021   0.25018   0.25806   0.26330   0.26680

 Mulliken charges:
               1
     1  C    1.124899
     2  C   -0.517687
     3  F   -0.905952
     4  H    0.087555
     5  H    0.165271
     6  C   -0.544116
     7  H    0.332091
     8  H    0.193321
     9  H    0.111710
    10  C   -1.700536
    11  N    0.906742
    12  N    0.280735
    13  H    0.197833
    14  H    0.312856
    15  F   -1.044721
 Sum of Mulliken charges =  -1.00000

 Dipole moment (field-independent basis, Debye):
    X=              0.6334    Y=              4.3057    Z=              4.0816  Tot=              5.9665

 Test job not archived.
 1\1\GINC-SE016\SP\RHF\Aug-CC-pVDZ\C4H7F2N2(1-)\OHZDE\09-Apr-2025\0\\#t
  hf aug-cc-pvdz iop(5/13=1,5/36=2,99/5=2) pseudo=read geom=check guess
 =(read,tcheck) scf=(maxcycle=1)\\title\\-1,1\C,0,-0.195954,0.034881,-0
 .003945\C,0,-0.39279,-0.036983,-1.519592\F,0,1.130098,0.480069,0.20352
 8\H,0,0.447044,-0.631646,-1.912476\H,0,-0.88781,0.762757,0.414436\C,0,
 -0.416434,-1.294219,0.669244\H,0,-1.497609,-1.428141,0.691702\H,0,0.08
 2027,-2.110563,0.138569\H,0,-0.034246,-1.241418,1.69301\C,0,-0.223024,
 1.320496,-2.093031\N,0,-0.102214,2.366869,-2.614817\N,0,-1.665719,-0.6

 Normal termination of Gaussian 16 at Wed Apr  9 02:41:05 2025.
