 Gaussian 16, Revision C.01,

 ----------------------------------------------------------------------
 #t hf aug-cc-pvdz symm=none int=(grid=ultrafine) guess=(read,tcheck) s
 table=(opt,rrhf)
 ----------------------------------------------------------------------
 -----
 title
 -----
 Symbolic Z-matrix:
 Charge = -1 Multiplicity = 1

 SCF Done:  E(RHF) =  -380.431499448     A.U. after   16 cycles
 Normal termination of Gaussian 16 at Wed Apr  9 02:37:40 2025.
 Gaussian 16:  ES64L-G16RevC.01  3-Jul-2019

 ----------------------------------------------------------------------
 #t hf aug-cc-pvdz iop(5/13=1,5/36=2,99/5=2) pseudo=read geom=check gue
 ss=(read,tcheck) scf=(maxcycle=1)
 ----------------------------------------------------------------------
 -----
 title
 -----
 Structure from the checkpoint file:  "E2SN2_154_mol2.chk"
 Charge = -1 Multiplicity = 1

                         Standard orientation:
 ---------------------------------------------------------------------
 Center     Atomic      Atomic             Coordinates (Angstroms)
 Number     Number       Type             X           Y           Z
 ---------------------------------------------------------------------
      1          6           0       -0.493545    0.422044   -0.595022
      2          6           0        0.957450    0.182803   -0.229575
      3          9           0       -0.903968    1.699591   -0.198518
      4          1           0        1.553687    0.932121   -0.772934
      5          1           0       -0.602084    0.355538   -1.680083
      6          6           0       -1.396117   -0.557155    0.035376
      7          7           0       -2.148433   -1.331484    0.494990
      8          7           0        1.351944   -1.107647   -0.748642
      9          1           0        2.383043   -1.066249   -0.662573
     10          1           0        1.054275   -1.791828   -0.056000
     11          7           0        1.142808    0.264171    1.211187
     12          1           0        2.162498    0.140358    1.299511
     13          1           0        0.935676    1.213285    1.513439
     14          1           0        3.817650   -0.140979    0.177877
 ---------------------------------------------------------------------

 SCF Done:  E(RHF) =  -380.814498208     A.U. after    2 cycles

 The electronic state is 1-A.
 Alpha  occ. eigenvalues --  -26.36601 -15.42131 -15.34818 -15.34545 -11.25367
 Alpha  occ. eigenvalues --  -11.18863 -11.16908  -1.48676  -1.12540  -1.10344
 Alpha  occ. eigenvalues --   -0.99480  -0.92097  -0.74607  -0.65276  -0.61755
 Alpha  occ. eigenvalues --   -0.59591  -0.56524  -0.52805  -0.51675  -0.50011
 Alpha  occ. eigenvalues --   -0.47120  -0.44732  -0.43297  -0.40040  -0.38003
 Alpha  occ. eigenvalues --   -0.33017  -0.31268  -0.09866
 Alpha virt. eigenvalues --    0.12807   0.14550   0.15166   0.16319   0.17309
 Alpha virt. eigenvalues --    0.18595   0.18689   0.20147   0.21371   0.22972
 Alpha virt. eigenvalues --    0.23717   0.24290   0.24867   0.25103   0.25935

 Mulliken charges:
               1
     1  C    1.439649
     2  C   -2.527755
     3  F   -0.825069
     4  H    0.048824
     5  H    0.153558
     6  C   -1.653193
     7  N    0.865214
     8  N    0.702924
     9  H    0.241491
    10  H    0.301706
    11  N    0.733551
    12  H    0.211224
    13  H    0.158444
    14  H   -0.850566
 Sum of Mulliken charges =  -1.00000

 Dipole moment (field-independent basis, Debye):
    X=            -10.0467    Y=              3.1608    Z=             -2.0087  Tot=             10.7220

 Test job not archived.
 1\1\GINC-SE252\SP\RHF\Aug-CC-pVDZ\C3H7F1N3(1-)\OHZDE\09-Apr-2025\0\\#t
  hf aug-cc-pvdz iop(5/13=1,5/36=2,99/5=2) pseudo=read geom=check guess
 =(read,tcheck) scf=(maxcycle=1)\\title\\-1,1\C,0,-0.738479,0.138494,-1
 .612995\C,0,0.097054,0.074274,-0.350484\F,0,-0.633876,1.396153,-2.2172
 63\H,0,1.143939,0.239081,-0.648954\H,0,-0.369366,-0.606804,-2.321408\C
 ,0,-2.165455,-0.118319,-1.350972\N,0,-3.306067,-0.343433,-1.192422\N,0
 ,0.028827,-1.271344,0.173897\H,0,0.798331,-1.269715,0.866823\H,0,-0.82
 5853,-1.31479,0.725349\N,0,-0.364755,1.055223,0.619695\H,0,0.318074,0.

 Normal termination of Gaussian 16 at Wed Apr  9 02:37:44 2025.
