 Gaussian 16, Revision C.01,

 ----------------------------------------------------------------------
 #t hf aug-cc-pvdz symm=none int=(grid=ultrafine) guess=(read,tcheck) s
 table=(opt,rrhf)
 ----------------------------------------------------------------------
 -----
 title
 -----
 Symbolic Z-matrix:
 Charge = -1 Multiplicity = 1

 SCF Done:  E(RHF) =  -778.676256892     A.U. after   16 cycles
 Normal termination of Gaussian 16 at Wed Apr  9 02:47:19 2025.
 Gaussian 16:  ES64L-G16RevC.01  3-Jul-2019

 ----------------------------------------------------------------------
 #t hf aug-cc-pvdz iop(5/13=1,5/36=2,99/5=2) pseudo=read geom=check gue
 ss=(read,tcheck) scf=(maxcycle=1)
 ----------------------------------------------------------------------
 -----
 title
 -----
 Structure from the checkpoint file:  "E2SN2_242_mol2.chk"
 Charge = -1 Multiplicity = 1

                         Standard orientation:
 ---------------------------------------------------------------------
 Center     Atomic      Atomic             Coordinates (Angstroms)
 Number     Number       Type             X           Y           Z
 ---------------------------------------------------------------------
      1          6           0       -0.393874   -0.183027   -0.505562
      2          6           0        0.647396   -0.156609    0.609998
      3          9           0       -0.386299   -1.391813   -1.188299
      4          1           0        0.408733    0.748817    1.176973
      5          7           0       -1.835448   -0.247047    0.148026
      6          8           0       -2.757285   -0.085086   -0.646593
      7          8           0       -1.976268   -0.474796    1.344950
      8          7           0       -0.262021    0.901958   -1.336211
      9          1           0       -1.019506    0.889687   -2.010231
     10          1           0       -0.376632    1.736178   -0.622652
     11          7           0        1.971718    0.105484   -0.050385
     12          8           0        2.547235    1.157457    0.214635
     13          8           0        2.427012   -0.780941   -0.773396
     14          6           0        0.806201   -1.434881    1.411909
     15          1           0       -0.083659   -1.607847    2.010739
     16          1           0        0.974731   -2.280003    0.744925
     17          1           0        1.666497   -1.339269    2.079971
     18          9           0       -0.610790    2.352225    0.641123
 ---------------------------------------------------------------------

 SCF Done:  E(RHF) =  -779.424278622     A.U. after    2 cycles

 The electronic state is 1-A.
 Alpha  occ. eigenvalues --  -26.36081 -26.12763 -20.47239 -20.46975 -20.46892
 Alpha  occ. eigenvalues --  -20.46420 -15.66172 -15.65669 -15.35221 -11.30612
 Alpha  occ. eigenvalues --  -11.18863 -11.13591  -1.54232  -1.53731  -1.48882
 Alpha  occ. eigenvalues --   -1.38032  -1.37591  -1.20330  -1.11069  -1.02005
 Alpha  occ. eigenvalues --   -0.91918  -0.86053  -0.77804  -0.71783  -0.68056
 Alpha  occ. eigenvalues --   -0.66564  -0.63206  -0.62416  -0.61387  -0.60906
 Alpha  occ. eigenvalues --   -0.58469  -0.57806  -0.53106  -0.50112  -0.48122
 Alpha  occ. eigenvalues --   -0.47125  -0.44516  -0.42143  -0.40075  -0.37439
 Alpha  occ. eigenvalues --   -0.36111  -0.35952  -0.33288  -0.32582  -0.32409
 Alpha  occ. eigenvalues --   -0.29362  -0.29076  -0.27986
 Alpha virt. eigenvalues --    0.12420   0.13773   0.14287   0.14841   0.17054
 Alpha virt. eigenvalues --    0.18204   0.18307   0.19132   0.20636   0.21875
 Alpha virt. eigenvalues --    0.22572   0.23834   0.23965   0.25257   0.25929

 Mulliken charges:
               1
     1  C   -0.352038
     2  C   -1.248115
     3  F   -1.105882
     4  H    0.214434
     5  N    3.217989
     6  O   -1.581065
     7  O   -1.574766
     8  N    0.605198
     9  H    0.414913
    10  H    0.520023
    11  N    3.260015
    12  O   -1.458180
    13  O   -1.589507
    14  C   -0.007113
    15  H    0.258341
    16  H    0.289290
    17  H    0.191591
    18  F   -1.055129
 Sum of Mulliken charges =  -1.00000

 Dipole moment (field-independent basis, Debye):
    X=              0.9843    Y=             -6.0744    Z=              0.1334  Tot=              6.1551

 Test job not archived.
 1\1\GINC-SE131\SP\RHF\Aug-CC-pVDZ\C3H6F2N3O4(1-)\OHZDE\09-Apr-2025\0\\
 #t hf aug-cc-pvdz iop(5/13=1,5/36=2,99/5=2) pseudo=read geom=check gue
 ss=(read,tcheck) scf=(maxcycle=1)\\title\\-1,1\C,0,-0.021347,-0.02161,
 -0.026761\C,0,-0.499757,0.096252,-1.471284\F,0,1.363253,-0.08309,0.053
 561\H,0,-1.566044,0.326955,-1.381696\N,0,-0.276818,1.359356,0.706094\O
 ,0,-0.103428,1.325361,1.92109\O,0,-0.587648,2.362295,0.072197\N,0,-0.6
 41958,-1.061016,0.620567\H,0,-0.359175,-1.053165,1.594327\H,0,-1.70395
 9,-0.780889,0.511447\N,0,-0.422935,-1.284872,-2.058841\O,0,-1.473438,-

 Normal termination of Gaussian 16 at Wed Apr  9 02:47:31 2025.
