 Gaussian 16, Revision C.01,

 ----------------------------------------------------------------------
 #t hf aug-cc-pvdz symm=none int=(grid=ultrafine) guess=(read,tcheck) s
 table=(opt,rrhf)
 ----------------------------------------------------------------------
 -----
 title
 -----
 Symbolic Z-matrix:
 Charge = -1 Multiplicity = 1

 SCF Done:  E(RHF) =  -583.909879458     A.U. after   16 cycles
 Normal termination of Gaussian 16 at Wed Apr  9 02:46:31 2025.
 Gaussian 16:  ES64L-G16RevC.01  3-Jul-2019

 ----------------------------------------------------------------------
 #t hf aug-cc-pvdz iop(5/13=1,5/36=2,99/5=2) pseudo=read geom=check gue
 ss=(read,tcheck) scf=(maxcycle=1)
 ----------------------------------------------------------------------
 -----
 title
 -----
 Structure from the checkpoint file:  "E2SN2_247_mol1.chk"
 Charge = -1 Multiplicity = 1

                         Standard orientation:
 ---------------------------------------------------------------------
 Center     Atomic      Atomic             Coordinates (Angstroms)
 Number     Number       Type             X           Y           Z
 ---------------------------------------------------------------------
      1          6           0        0.352901    0.378272    0.141278
      2          1           0       -0.725194   -0.225789   -1.589064
      3          9           0        0.106089   -0.619299    1.355839
      4          1           0        0.823395    1.338785   -1.324692
      5          6           0       -0.975209    0.239084   -0.635854
      6          7           0        1.520320   -0.405990   -0.374103
      7          8           0        1.290192   -1.353424   -1.124779
      8          8           0        2.627615   -0.130418    0.087482
      9          7           0        0.581888    1.533729    0.941339
     10          1           0        1.204391    2.151873    0.447151
     11          1           0        1.003357    1.218826    1.806451
     12          7           0       -1.653286    1.504482   -0.899149
     13          1           0       -0.952531    2.025478   -1.427122
     14          1           0       -1.718600    1.979410   -0.002261
     15          6           0       -1.954943   -0.644130    0.031562
     16          7           0       -2.801574   -1.329866    0.469549
 ---------------------------------------------------------------------

 SCF Done:  E(RHF) =  -584.480840741     A.U. after    2 cycles

 The electronic state is 1-A.
 Alpha  occ. eigenvalues --  -26.26560 -20.44279 -20.44222 -15.64920 -15.38304
 Alpha  occ. eigenvalues --  -15.37988 -15.37241 -11.29605 -11.18849 -11.15624
 Alpha  occ. eigenvalues --   -1.51784  -1.36875  -1.35531  -1.11344  -1.08747
 Alpha  occ. eigenvalues --   -1.06260  -0.94629  -0.85422  -0.71439  -0.66247
 Alpha  occ. eigenvalues --   -0.63983  -0.61010  -0.60428  -0.58233  -0.55130
 Alpha  occ. eigenvalues --   -0.52740  -0.48132  -0.47209  -0.45216  -0.42244
 Alpha  occ. eigenvalues --   -0.41851  -0.38954  -0.36831  -0.35730  -0.35047
 Alpha  occ. eigenvalues --   -0.33459  -0.32760  -0.30997  -0.16515
 Alpha virt. eigenvalues --    0.13161   0.14244   0.15167   0.15407   0.16534
 Alpha virt. eigenvalues --    0.17311   0.18815   0.20166   0.22241   0.23028
 Alpha virt. eigenvalues --    0.24154   0.24670   0.25565   0.26242   0.26689

 Mulliken charges:
               1
     1  C   -1.686249
     2  H    0.220081
     3  F   -0.984120
     4  H   -0.248291
     5  C   -0.439417
     6  N    3.442987
     7  O   -1.586371
     8  O   -1.556647
     9  N    0.737699
    10  H    0.398271
    11  H    0.345507
    12  N    0.513185
    13  H    0.194470
    14  H    0.302227
    15  C   -1.526741
    16  N    0.873409
 Sum of Mulliken charges =  -1.00000

 Dipole moment (field-independent basis, Debye):
    X=              1.4901    Y=              2.8668    Z=              1.0102  Tot=              3.3852

 Test job not archived.
 1\1\GINC-SE080\SP\RHF\Aug-CC-pVDZ\C3H6F1N4O2(1-)\OHZDE\09-Apr-2025\0\\
 #t hf aug-cc-pvdz iop(5/13=1,5/36=2,99/5=2) pseudo=read geom=check gue
 ss=(read,tcheck) scf=(maxcycle=1)\\title\\-1,1\C,0,0.45474687,-0.00624
 038,-0.08218898\H,0,1.4239341,1.69782717,-0.90565224\F,0,-0.94692884,-
 0.27271954,-0.78611812\H,0,2.16106914,0.16102883,0.51237226\C,0,0.5814
 1844,1.52586212,-0.23645983\N,0,1.20439709,-0.84695003,-1.0695004\O,0,
 1.56623011,-0.31621755,-2.11902617\O,0,1.30010813,-2.04903945,-0.82267
 377\N,0,0.09529156,-0.55871234,1.18002262\H,0,0.92252664,-0.92795964,1

 Normal termination of Gaussian 16 at Wed Apr  9 02:46:39 2025.
