 Gaussian 16, Revision C.01,

 ----------------------------------------------------------------------
 #t hf aug-cc-pvdz symm=none int=(grid=ultrafine) guess=(read,tcheck) s
 table=(opt,rrhf)
 ----------------------------------------------------------------------
 -----
 title
 -----
 Symbolic Z-matrix:
 Charge = -1 Multiplicity = 1

 SCF Done:  E(RHF) =  -508.813387641     A.U. after   18 cycles
 Normal termination of Gaussian 16 at Wed Apr  9 03:01:34 2025.
 Gaussian 16:  ES64L-G16RevC.01  3-Jul-2019

 ----------------------------------------------------------------------
 #t hf aug-cc-pvdz iop(5/13=1,5/36=2,99/5=2) pseudo=read geom=check gue
 ss=(read,tcheck) scf=(maxcycle=1)
 ----------------------------------------------------------------------
 -----
 title
 -----
 Structure from the checkpoint file:  "E2SN2_69_mol1.chk"
 Charge = -1 Multiplicity = 1

                         Standard orientation:
 ---------------------------------------------------------------------
 Center     Atomic      Atomic             Coordinates (Angstroms)
 Number     Number       Type             X           Y           Z
 ---------------------------------------------------------------------
      1          6           0        0.507263    0.388878   -0.061828
      2          6           0       -0.955355    0.339209   -0.430630
      3          9           0        0.943031    1.696885   -0.154235
      4          1           0        0.221405    0.245986   -2.421620
      5          1           0       -0.607730    0.361617   -1.712242
      6          6           0        0.795490   -0.076691    1.299880
      7          7           0        1.013034   -0.422278    2.402634
      8          6           0        1.335954   -0.435287   -1.069747
      9          7           0        2.221770   -1.220712   -1.188647
     10          7           0       -1.724824    1.511325   -0.082239
     11          1           0       -2.251854    1.372859    0.771842
     12          1           0       -2.375294    1.722004   -0.828511
     13          6           0       -1.556723   -0.935318   -0.151373
     14          7           0       -2.114776   -1.962504    0.019800
 ---------------------------------------------------------------------

 SCF Done:  E(RHF) =  -509.299455139     A.U. after    2 cycles

 The electronic state is 1-A.
 Alpha  occ. eigenvalues --  -26.35994 -15.41951 -15.39761 -15.39227 -15.36498
 Alpha  occ. eigenvalues --  -11.28577 -11.18697 -11.16524 -11.16380 -11.16072
 Alpha  occ. eigenvalues --   -1.48794  -1.12222  -1.10836  -1.07936  -1.07063
 Alpha  occ. eigenvalues --   -0.95942  -0.81670  -0.70872  -0.66295  -0.60310
 Alpha  occ. eigenvalues --   -0.59912  -0.56262  -0.51984  -0.50282  -0.49524
 Alpha  occ. eigenvalues --   -0.47742  -0.45511  -0.43538  -0.40490  -0.39306
 Alpha  occ. eigenvalues --   -0.38199  -0.36891  -0.35500  -0.34533  -0.33919
 Alpha  occ. eigenvalues --   -0.15942
 Alpha virt. eigenvalues --    0.11872   0.14354   0.16301   0.17072   0.17835
 Alpha virt. eigenvalues --    0.18592   0.19680   0.21256   0.21646   0.22448
 Alpha virt. eigenvalues --    0.23130   0.23786   0.24489   0.24701   0.25239

 Mulliken charges:
               1
     1  C    2.321817
     2  C   -1.177349
     3  F   -0.969827
     4  H    0.002111
     5  H    0.252058
     6  C   -1.969929
     7  N    1.014203
     8  C   -1.605049
     9  N    0.955857
    10  N    0.684319
    11  H    0.141692
    12  H    0.211551
    13  C   -1.829543
    14  N    0.968090
 Sum of Mulliken charges =  -1.00000

 Dipole moment (field-independent basis, Debye):
    X=             -3.9198    Y=              5.6719    Z=              1.2660  Tot=              7.0098

 Test job not archived.
 1\1\GINC-SE457\SP\RHF\Aug-CC-pVDZ\C5H4F1N4(1-)\OHZDE\09-Apr-2025\0\\#t
  hf aug-cc-pvdz iop(5/13=1,5/36=2,99/5=2) pseudo=read geom=check guess
 =(read,tcheck) scf=(maxcycle=1)\\title\\-1,1\C,0,-0.2383838,0.07235243
 ,-0.34848508\C,0,0.34599579,0.01945764,1.04199508\F,0,0.39999681,1.070
 54623,-1.05939466\H,0,-1.28150081,1.66479456,1.08217445\H,0,-0.4222777
 4,1.04952818,1.3775308\C,0,-0.08727936,-1.17490944,-1.10715667\N,0,0.0
 6571419,-2.16790396,-1.71820247\C,0,-1.73290997,0.4514265,-0.28086653\
 N,0,-2.81769868,0.21071277,-0.7062974\N,0,1.74569514,0.36321608,1.1419

 Normal termination of Gaussian 16 at Wed Apr  9 03:01:41 2025.
