 Gaussian 16, Revision C.01,

 ----------------------------------------------------------------------
 #t hf aug-cc-pvdz symm=none int=(grid=ultrafine) guess=(read,tcheck) s
 table=(opt,rrhf)
 ----------------------------------------------------------------------
 -----
 title
 -----
 Symbolic Z-matrix:
 Charge = -1 Multiplicity = 1

 SCF Done:  E(RHF) =  -860.171492839     A.U. after   15 cycles
 Normal termination of Gaussian 16 at Wed Apr  9 02:49:21 2025.
 Gaussian 16:  ES64L-G16RevC.01  3-Jul-2019

 ----------------------------------------------------------------------
 #t hf aug-cc-pvdz iop(5/13=1,5/36=2,99/5=2) pseudo=read geom=check gue
 ss=(read,tcheck) scf=(maxcycle=1)
 ----------------------------------------------------------------------
 -----
 title
 -----
 Structure from the checkpoint file:  "E2SN2_270_mol2.chk"
 Charge = -1 Multiplicity = 1

                         Standard orientation:
 ---------------------------------------------------------------------
 Center     Atomic      Atomic             Coordinates (Angstroms)
 Number     Number       Type             X           Y           Z
 ---------------------------------------------------------------------
      1          6           0        0.646736    0.418437    0.039036
      2          6           0        0.759377   -0.420336   -1.227787
      3          9           0        1.937165    0.928954    0.315554
      4          1           0        1.241849    0.230265   -1.965505
      5          1           0       -0.255506   -0.648711   -1.549690
      6          6           0       -0.206010    1.604087   -0.150198
      7          7           0       -0.672500    2.667543   -0.327879
      8          6           0        0.281746   -0.350871    1.241117
      9          7           0        0.290510   -0.921320    2.269066
     10          6           0        1.564088   -1.692526   -0.999600
     11          1           0        1.741626   -2.196643   -1.952878
     12          1           0        1.011662   -2.377918   -0.354092
     13          1           0        2.531789   -1.478788   -0.539631
     14         17           0       -2.312211   -0.674418   -0.204818
 ---------------------------------------------------------------------

 SCF Done:  E(RHF) =  -860.636438939     A.U. after    2 cycles

 The electronic state is 1-A.
 Alpha  occ. eigenvalues -- -105.28205 -26.37449 -15.41595 -15.41085 -11.30382
 Alpha  occ. eigenvalues --  -11.18734 -11.18474 -11.14456 -11.13379 -10.32838
 Alpha  occ. eigenvalues --   -7.49608  -7.49569  -7.49558  -1.49544  -1.11852
 Alpha  occ. eigenvalues --   -1.10857  -1.00597  -0.89949  -0.76767  -0.73828
 Alpha  occ. eigenvalues --   -0.71210  -0.63797  -0.58364  -0.53080  -0.52436
 Alpha  occ. eigenvalues --   -0.50601  -0.48977  -0.48499  -0.44491  -0.42085
 Alpha  occ. eigenvalues --   -0.41089  -0.39707  -0.38948  -0.38149  -0.37725
 Alpha  occ. eigenvalues --   -0.20997  -0.20635  -0.20497
 Alpha virt. eigenvalues --    0.11193   0.12922   0.13150   0.15803   0.17407
 Alpha virt. eigenvalues --    0.18522   0.19391   0.19727   0.22048   0.22788
 Alpha virt. eigenvalues --    0.22867   0.23519   0.23946   0.24416   0.25246

 Mulliken charges:
               1
     1  C    1.574264
     2  C   -0.035036
     3  F   -0.918010
     4  H    0.222591
     5  H    0.224220
     6  C   -1.743305
     7  N    1.014547
     8  C   -1.591735
     9  N    1.012330
    10  C   -0.342195
    11  H    0.084422
    12  H    0.238044
    13  H    0.190975
    14  Cl  -0.931113
 Sum of Mulliken charges =  -1.00000

 Dipole moment (field-independent basis, Debye):
    X=              9.0466    Y=             -0.3435    Z=             -3.0231  Tot=              9.5445

 Test job not archived.
 1\1\GINC-SE051\SP\RHF\Aug-CC-pVDZ\C5H5Cl1F1N2(1-)\OHZDE\09-Apr-2025\0\
 \#t hf aug-cc-pvdz iop(5/13=1,5/36=2,99/5=2) pseudo=read geom=check gu
 ess=(read,tcheck) scf=(maxcycle=1)\\title\\-1,1\C,0,-0.072587,0.008731
 ,-0.005938\C,0,-0.459093,0.160734,-1.471741\F,0,1.340979,-0.022863,0.0
 50003\H,0,0.105677,1.027158,-1.833171\H,0,-1.525011,0.38177,-1.498654\
 C,0,-0.46561,1.177416,0.799333\N,0,-0.544184,2.175263,1.414353\C,0,-0.
 500951,-1.262929,0.601874\N,0,-0.540243,-2.344345,1.061399\C,0,-0.1352
 69,-1.088698,-2.279302\H,0,-0.295336,-0.896142,-3.343113\H,0,-0.790895

 Normal termination of Gaussian 16 at Wed Apr  9 02:49:27 2025.
