 Gaussian 16, Revision C.01,

 ----------------------------------------------------------------------
 #t hf aug-cc-pvdz symm=none int=(grid=ultrafine) guess=(read,tcheck) s
 table=(opt,rrhf)
 ----------------------------------------------------------------------
 -----
 title
 -----
 Symbolic Z-matrix:
 Charge = -1 Multiplicity = 1

 SCF Done:  E(RHF) =  -1295.25172010     A.U. after   16 cycles
 Normal termination of Gaussian 16 at Wed Apr  9 02:33:13 2025.
 Gaussian 16:  ES64L-G16RevC.01  3-Jul-2019

 ----------------------------------------------------------------------
 #t hf aug-cc-pvdz iop(5/13=1,5/36=2,99/5=2) pseudo=read geom=check gue
 ss=(read,tcheck) scf=(maxcycle=1)
 ----------------------------------------------------------------------
 -----
 title
 -----
 Structure from the checkpoint file:  "E2SN2_106_mol1.chk"
 Charge = -1 Multiplicity = 1

                         Standard orientation:
 ---------------------------------------------------------------------
 Center     Atomic      Atomic             Coordinates (Angstroms)
 Number     Number       Type             X           Y           Z
 ---------------------------------------------------------------------
      1          6           0       -0.348633   -0.054003   -0.401457
      2          6           0        0.435325    1.092205   -0.277871
      3         17           0       -2.617961    0.576311   -0.459689
      4         17           0        3.158343   -0.094097   -0.265522
      5          1           0        1.734603    0.415924   -0.220564
      6          1           0        0.602332    1.574171   -1.240735
      7          6           0       -0.262800   -0.848271   -1.665467
      8          1           0       -0.270891   -0.161292   -2.512195
      9          1           0        0.665536   -1.430274   -1.678668
     10          1           0       -1.109896   -1.522396   -1.747811
     11          7           0        0.449992    2.025800    0.803820
     12          1           0       -0.362628    2.627500    0.684345
     13          1           0        0.309459    1.517183    1.665513
     14          7           0       -0.519301   -0.914122    0.798735
     15          8           0       -0.342060   -0.422185    1.915994
     16          8           0       -0.809591   -2.095288    0.612705
 ---------------------------------------------------------------------

 SCF Done:  E(RHF) =  -1295.78694922     A.U. after    2 cycles

 The electronic state is 1-A.
 Alpha  occ. eigenvalues -- -105.37882-105.34527 -20.48196 -20.47749 -15.67930
 Alpha  occ. eigenvalues --  -15.37202 -11.25226 -11.14345 -11.13758 -10.42670
 Alpha  occ. eigenvalues --  -10.39216  -7.59548  -7.59332  -7.59330  -7.56033
 Alpha  occ. eigenvalues --   -7.55883  -7.55879  -1.55052  -1.38737  -1.09138
 Alpha  occ. eigenvalues --   -1.02854  -0.88604  -0.86035  -0.81631  -0.80350
 Alpha  occ. eigenvalues --   -0.71994  -0.63804  -0.62631  -0.60999  -0.58057
 Alpha  occ. eigenvalues --   -0.51092  -0.50234  -0.48446  -0.45618  -0.43585
 Alpha  occ. eigenvalues --   -0.38790  -0.37546  -0.34699  -0.33572  -0.31473
 Alpha  occ. eigenvalues --   -0.29744  -0.29715  -0.26659  -0.26478  -0.19067
 Alpha virt. eigenvalues --    0.12993   0.13155   0.13617   0.14218   0.15656
 Alpha virt. eigenvalues --    0.16212   0.16818   0.18481   0.20375   0.22161
 Alpha virt. eigenvalues --    0.23689   0.24066   0.24857   0.25889   0.26040

 Mulliken charges:
               1
     1  C   -0.516395
     2  C   -1.840208
     3  Cl  -0.690066
     4  Cl  -0.580833
     5  H    0.917950
     6  H   -0.073555
     7  C   -0.032616
     8  H    0.256264
     9  H    0.271612
    10  H    0.202814
    11  N    0.667596
    12  H    0.252631
    13  H    0.146465
    14  N    2.991722
    15  O   -1.527074
    16  O   -1.446307
 Sum of Mulliken charges =  -1.00000

 Dipole moment (field-independent basis, Debye):
    X=              0.0267    Y=             -0.4310    Z=             -1.4716  Tot=              1.5337

 Test job not archived.
 1\1\GINC-SE366\SP\RHF\Aug-CC-pVDZ\C3H7Cl2N2O2(1-)\OHZDE\09-Apr-2025\0\
 \#t hf aug-cc-pvdz iop(5/13=1,5/36=2,99/5=2) pseudo=read geom=check gu
 ess=(read,tcheck) scf=(maxcycle=1)\\title\\-1,1\C,0,-0.37838819,-0.064
 71908,-0.14941494\C,0,-0.22073767,-0.08011168,1.2357078\Cl,0,1.7492421
 7,0.00493362,-1.15880873\Cl,0,-3.05483909,-0.19119837,2.11764942\H,0,-
 1.64586802,-0.0743533,1.57882836\H,0,-0.01971709,-1.08382638,1.6091197
 1\C,0,-0.94891428,-1.27368306,-0.81938236\H,0,-0.48265986,-2.16283445,
 -0.39397441\H,0,-2.03128514,-1.31660339,-0.6540363\H,0,-0.74998374,-1.

 Normal termination of Gaussian 16 at Wed Apr  9 02:33:20 2025.
