 Gaussian 16, Revision C.01,

 ----------------------------------------------------------------------
 #t hf aug-cc-pvdz symm=none int=(grid=ultrafine) guess=(read,tcheck) s
 table=(opt,rrhf)
 ----------------------------------------------------------------------
 -----
 title
 -----
 Symbolic Z-matrix:
 Charge = -1 Multiplicity = 1

 SCF Done:  E(RHF) =  -878.553195588     A.U. after   15 cycles
 Normal termination of Gaussian 16 at Wed Apr  9 02:53:49 2025.
 Gaussian 16:  ES64L-G16RevC.01  3-Jul-2019

 ----------------------------------------------------------------------
 #t hf aug-cc-pvdz iop(5/13=1,5/36=2,99/5=2) pseudo=read geom=check gue
 ss=(read,tcheck) scf=(maxcycle=1)
 ----------------------------------------------------------------------
 -----
 title
 -----
 Structure from the checkpoint file:  "E2SN2_319_mol2.chk"
 Charge = -1 Multiplicity = 1

                         Standard orientation:
 ---------------------------------------------------------------------
 Center     Atomic      Atomic             Coordinates (Angstroms)
 Number     Number       Type             X           Y           Z
 ---------------------------------------------------------------------
      1          6           0        1.009114   -0.135418   -0.404378
      2          6           0        0.460435    1.132281    0.284492
      3          9           0        1.610575    0.348019   -1.626376
      4          1           0        1.312074    1.824481    0.311542
      5          6           0        2.166583   -0.685755    0.338253
      6          7           0        3.070971   -1.122821    0.947790
      7          7           0        0.051181   -1.097799   -0.662295
      8          1           0        0.318756   -2.063285   -0.603355
      9          1           0       -0.929753   -0.909922   -0.444999
     10          6           0       -0.011430    0.845226    1.701618
     11          1           0        0.774289    0.381055    2.302854
     12          1           0       -0.887703    0.194920    1.680897
     13          1           0       -0.301773    1.787999    2.170072
     14          7           0       -0.610053    1.758110   -0.471158
     15          1           0       -1.468272    1.217674   -0.368199
     16          1           0       -0.364704    1.765759   -1.454299
     17         17           0       -3.075352   -0.648899    0.048389
 ---------------------------------------------------------------------

 SCF Done:  E(RHF) =  -879.052757050     A.U. after    2 cycles

 The electronic state is 1-A.
 Alpha  occ. eigenvalues -- -105.29421 -26.33479 -15.42908 -15.38004 -15.36196
 Alpha  occ. eigenvalues --  -11.28102 -11.19457 -11.16596 -11.11220 -10.34042
 Alpha  occ. eigenvalues --   -7.50818  -7.50778  -7.50765  -1.45318  -1.13797
 Alpha  occ. eigenvalues --   -1.11080  -1.06271  -0.91472  -0.84343  -0.75053
 Alpha  occ. eigenvalues --   -0.73580  -0.67215  -0.61653  -0.59925  -0.57749
 Alpha  occ. eigenvalues --   -0.54177  -0.52378  -0.50473  -0.48401  -0.46919
 Alpha  occ. eigenvalues --   -0.43025  -0.41812  -0.40629  -0.40371  -0.39765
 Alpha  occ. eigenvalues --   -0.34905  -0.31236  -0.22453  -0.21923  -0.21746
 Alpha virt. eigenvalues --    0.12499   0.13338   0.13842   0.14489   0.15150
 Alpha virt. eigenvalues --    0.17090   0.17731   0.18468   0.19807   0.20456
 Alpha virt. eigenvalues --    0.21997   0.22979   0.23703   0.24033   0.24603

 Mulliken charges:
               1
     1  C    1.686326
     2  C   -2.185798
     3  F   -1.007792
     4  H    0.055176
     5  C   -2.200449
     6  N    0.976152
     7  N    0.536638
     8  H    0.205026
     9  H    0.053394
    10  C    0.092621
    11  H    0.245350
    12  H    0.177900
    13  H    0.136604
    14  N    0.843239
    15  H    0.163540
    16  H    0.187098
    17  Cl  -0.965025
 Sum of Mulliken charges =  -1.00000

 Dipole moment (field-independent basis, Debye):
    X=              6.5156    Y=              1.9504    Z=             -0.2801  Tot=              6.8070

 Test job not archived.
 1\1\GINC-SE024\SP\RHF\Aug-CC-pVDZ\C4H8Cl1F1N3(1-)\OHZDE\09-Apr-2025\0\
 \#t hf aug-cc-pvdz iop(5/13=1,5/36=2,99/5=2) pseudo=read geom=check gu
 ess=(read,tcheck) scf=(maxcycle=1)\\title\\-1,1\C,0,-0.032707,0.04614,
 -0.003539\C,0,-0.374463,0.061004,-1.508741\F,0,1.216448,-0.67626,0.077
 055\H,0,0.531089,0.446026,-1.995462\C,0,0.337186,1.399552,0.471393\N,0
 ,0.609345,2.481773,0.839098\N,0,-1.002436,-0.53682,0.79026\H,0,-1.1498
 18,-0.165902,1.711092\H,0,-1.828897,-0.955522,0.358521\C,0,-1.5486,0.9
 79048,-1.811893\H,0,-1.376527,1.991704,-1.438781\H,0,-2.462544,0.57762

 Normal termination of Gaussian 16 at Wed Apr  9 02:53:57 2025.
