 Gaussian 16, Revision C.01,

 ----------------------------------------------------------------------
 #t hf aug-cc-pvdz symm=none int=(grid=ultrafine) guess=(read,tcheck) s
 table=(opt,rrhf)
 ----------------------------------------------------------------------
 -----
 title
 -----
 Symbolic Z-matrix:
 Charge = -1 Multiplicity = 1

 SCF Done:  E(RHF) =  -862.461985497     A.U. after   16 cycles
 Normal termination of Gaussian 16 at Wed Apr  9 02:55:59 2025.
 Gaussian 16:  ES64L-G16RevC.01  3-Jul-2019

 ----------------------------------------------------------------------
 #t hf aug-cc-pvdz iop(5/13=1,5/36=2,99/5=2) pseudo=read geom=check gue
 ss=(read,tcheck) scf=(maxcycle=1)
 ----------------------------------------------------------------------
 -----
 title
 -----
 Structure from the checkpoint file:  "E2SN2_347_mol1.chk"
 Charge = -1 Multiplicity = 1

                         Standard orientation:
 ---------------------------------------------------------------------
 Center     Atomic      Atomic             Coordinates (Angstroms)
 Number     Number       Type             X           Y           Z
 ---------------------------------------------------------------------
      1          6           0        0.737030    0.074961   -0.157478
      2          1           0        0.261935   -1.759343    0.660448
      3         17           0       -0.728288    1.876691   -0.161817
      4          9           0        1.940971   -1.614519   -0.099668
      5          6           0       -0.279540   -0.815526    0.567953
      6          6           0        1.796545    0.797342    0.634799
      7          1           0        1.947539    1.798484    0.231857
      8          1           0        1.490231    0.873495    1.676391
      9          1           0        2.703709    0.204082    0.556859
     10          6           0        0.836288    0.052621   -1.661894
     11          1           0        1.558603   -0.717773   -1.918670
     12          1           0       -0.129128   -0.161913   -2.119907
     13          1           0        1.166347    1.027697   -2.021652
     14          6           0       -1.477539   -1.082729   -0.251893
     15          7           0       -2.454251   -1.408237   -0.819682
     16          7           0       -0.608332   -0.341739    1.906580
     17          1           0       -1.162979   -1.050732    2.371186
     18          1           0       -1.162712    0.502746    1.814175
 ---------------------------------------------------------------------

 SCF Done:  E(RHF) =  -862.945560090     A.U. after    2 cycles

 The electronic state is 1-A.
 Alpha  occ. eigenvalues -- -105.33364 -26.13218 -15.38605 -15.37756 -11.22746
 Alpha  occ. eigenvalues --  -11.17754 -11.15900 -11.09869 -11.09452 -10.38215
 Alpha  occ. eigenvalues --   -7.55029  -7.54907  -7.54885  -1.20922  -1.10470
 Alpha  occ. eigenvalues --   -1.07389  -0.96044  -0.84563  -0.82357  -0.79732
 Alpha  occ. eigenvalues --   -0.65805  -0.60582  -0.58036  -0.52250  -0.48913
 Alpha  occ. eigenvalues --   -0.48350  -0.46782  -0.44445  -0.43709  -0.39908
 Alpha  occ. eigenvalues --   -0.39385  -0.37982  -0.35752  -0.33613  -0.29390
 Alpha  occ. eigenvalues --   -0.29321  -0.28639  -0.26068  -0.25679  -0.25491
 Alpha virt. eigenvalues --    0.12787   0.13620   0.13975   0.15277   0.15843
 Alpha virt. eigenvalues --    0.15996   0.16687   0.17384   0.17898   0.19553
 Alpha virt. eigenvalues --    0.22368   0.22989   0.23148   0.23651   0.24919

 Mulliken charges:
               1
     1  C   -0.670009
     2  H    0.375810
     3  Cl  -0.684101
     4  F   -0.917635
     5  C   -0.796040
     6  C   -0.366650
     7  H    0.230454
     8  H    0.238523
     9  H    0.386577
    10  C   -0.038169
    11  H    0.340885
    12  H    0.244568
    13  H    0.217245
    14  C   -1.609908
    15  N    1.012170
    16  N    0.570531
    17  H    0.186226
    18  H    0.279522
 Sum of Mulliken charges =  -1.00000

 Dipole moment (field-independent basis, Debye):
    X=              0.8935    Y=              0.8880    Z=              1.9595  Tot=              2.3295

 Test job not archived.
 1\1\GINC-SE023\SP\RHF\Aug-CC-pVDZ\C5H9Cl1F1N2(1-)\OHZDE\09-Apr-2025\0\
 \#t hf aug-cc-pvdz iop(5/13=1,5/36=2,99/5=2) pseudo=read geom=check gu
 ess=(read,tcheck) scf=(maxcycle=1)\\title\\-1,1\C,0,0.5540382,-0.07716
 567,-0.00474391\H,0,1.74014985,1.61174376,0.00585446\Cl,0,-1.76676337,
 0.00609781,-0.0235513\F,0,2.62807078,-0.00969691,0.02678969\C,0,0.6597
 7571,1.45301406,-0.00592262\C,0,0.64708143,-0.8332681,-1.30542064\H,0,
 -0.06511072,-1.65801166,-1.31050981\H,0,0.42719008,-0.16573175,-2.1364
 3556\H,0,1.66780519,-1.19823555,-1.38224228\C,0,0.59317829,-0.84502846

 Normal termination of Gaussian 16 at Wed Apr  9 02:56:08 2025.
