 Gaussian 16, Revision C.01,

 ----------------------------------------------------------------------
 #t hf aug-cc-pvdz symm=none int=(grid=ultrafine) guess=(read,tcheck) s
 table=(opt,rrhf)
 ----------------------------------------------------------------------
 -----
 title
 -----
 Symbolic Z-matrix:
 Charge = -1 Multiplicity = 1

 SCF Done:  E(RHF) =  -611.864105933     A.U. after   16 cycles
 Normal termination of Gaussian 16 at Wed Apr  9 02:45:16 2025.
 Gaussian 16:  ES64L-G16RevC.01  3-Jul-2019

 ----------------------------------------------------------------------
 #t hf aug-cc-pvdz iop(5/13=1,5/36=2,99/5=2) pseudo=read geom=check gue
 ss=(read,tcheck) scf=(maxcycle=1)
 ----------------------------------------------------------------------
 -----
 title
 -----
 Structure from the checkpoint file:  "E2SN2_231_mol2.chk"
 Charge = -1 Multiplicity = 1

                         Standard orientation:
 ---------------------------------------------------------------------
 Center     Atomic      Atomic             Coordinates (Angstroms)
 Number     Number       Type             X           Y           Z
 ---------------------------------------------------------------------
      1          6           0        0.019168   -0.437809    0.222874
      2          6           0       -0.896109    0.315796   -0.709367
      3          9           0       -0.158764   -1.819648    0.111810
      4          1           0       -0.702890    0.015233   -1.739488
      5          1           0       -0.519950    1.396927   -0.526726
      6          7           0        1.453144   -0.251731   -0.281234
      7          8           0        1.619948   -0.261824   -1.496791
      8          8           0        2.353415   -0.236356    0.549882
      9          6           0       -0.087110   -0.005424    1.653142
     10          1           0       -1.109363   -0.183186    1.994048
     11          1           0        0.611257   -0.564302    2.273842
     12          1           0        0.145415    1.062661    1.638311
     13          6           0       -2.287711    0.101263   -0.373142
     14          7           0       -3.423900   -0.048493   -0.108669
     15          9           0        0.502596    2.321504    0.099697
 ---------------------------------------------------------------------

 SCF Done:  E(RHF) =  -612.449448736     A.U. after    2 cycles

 The electronic state is 1-A.
 Alpha  occ. eigenvalues --  -26.36012 -26.11494 -20.46838 -20.46656 -15.66081
 Alpha  occ. eigenvalues --  -15.39443 -11.27822 -11.17271 -11.13185 -11.10988
 Alpha  occ. eigenvalues --   -1.54174  -1.48232  -1.37876  -1.18383  -1.10184
 Alpha  occ. eigenvalues --   -1.02198  -0.89676  -0.86149  -0.71891  -0.66198
 Alpha  occ. eigenvalues --   -0.63829  -0.62319  -0.58077  -0.55905  -0.54929
 Alpha  occ. eigenvalues --   -0.52119  -0.48142  -0.46484  -0.46400  -0.43549
 Alpha  occ. eigenvalues --   -0.41576  -0.37420  -0.37062  -0.35952  -0.35497
 Alpha  occ. eigenvalues --   -0.32286  -0.28137  -0.27670  -0.25348
 Alpha virt. eigenvalues --    0.13273   0.14066   0.15315   0.16860   0.17497
 Alpha virt. eigenvalues --    0.18187   0.18580   0.19402   0.22726   0.23702
 Alpha virt. eigenvalues --    0.24325   0.24787   0.25335   0.25896   0.26304

 Mulliken charges:
               1
     1  C   -0.098156
     2  C    0.314887
     3  F   -1.114209
     4  H    0.229592
     5  H    0.633838
     6  N    3.356325
     7  O   -1.635343
     8  O   -1.583020
     9  C   -0.193183
    10  H    0.256820
    11  H    0.200721
    12  H    0.352063
    13  C   -1.553214
    14  N    0.848373
    15  F   -1.015494
 Sum of Mulliken charges =  -1.00000

 Dipole moment (field-independent basis, Debye):
    X=              0.7496    Y=             -5.0790    Z=              0.4149  Tot=              5.1508

 Test job not archived.
 1\1\GINC-SE049\SP\RHF\Aug-CC-pVDZ\C4H5F2N2O2(1-)\OHZDE\09-Apr-2025\0\\
 #t hf aug-cc-pvdz iop(5/13=1,5/36=2,99/5=2) pseudo=read geom=check gue
 ss=(read,tcheck) scf=(maxcycle=1)\\title\\-1,1\C,0,-0.024157,-0.008832
 ,0.002717\C,0,-0.630754,0.06311,-1.376265\F,0,1.370565,0.068407,-0.044
 791\H,0,-0.343779,0.998407,-1.857604\H,0,-1.755926,0.080626,-1.098092\
 N,0,-0.397377,1.278497,0.743345\O,0,-0.39163,2.316713,0.08945\O,0,-0.5
 48797,1.215559,1.957671\C,0,-0.459747,-1.205171,0.79199\H,0,-0.148724,
 -2.105288,0.257322\H,0,-0.011495,-1.191903,1.784071\H,0,-1.549274,-1.1

 Normal termination of Gaussian 16 at Wed Apr  9 02:45:25 2025.
