 Gaussian 16, Revision C.01,

 ----------------------------------------------------------------------
 #t hf aug-cc-pvdz symm=none int=(grid=ultrafine) guess=(read,tcheck) s
 table=(opt,rrhf)
 ----------------------------------------------------------------------
 -----
 title
 -----
 Symbolic Z-matrix:
 Charge = -1 Multiplicity = 1

 SCF Done:  E(RHF) =  -932.860186938     A.U. after   16 cycles
 Normal termination of Gaussian 16 at Wed Apr  9 02:38:37 2025.
 Gaussian 16:  ES64L-G16RevC.01  3-Jul-2019

 ----------------------------------------------------------------------
 #t hf aug-cc-pvdz iop(5/13=1,5/36=2,99/5=2) pseudo=read geom=check gue
 ss=(read,tcheck) scf=(maxcycle=1)
 ----------------------------------------------------------------------
 -----
 title
 -----
 Structure from the checkpoint file:  "E2SN2_169_mol1.chk"
 Charge = -1 Multiplicity = 1

                         Standard orientation:
 ---------------------------------------------------------------------
 Center     Atomic      Atomic             Coordinates (Angstroms)
 Number     Number       Type             X           Y           Z
 ---------------------------------------------------------------------
      1          6           0       -0.046221    0.000094   -0.264399
      2          1           0        0.906513   -1.029840    1.312512
      3         17           0       -0.577096    2.007845   -0.156575
      4          9           0        0.372393   -1.877198   -0.609958
      5          6           0        1.024135   -0.079808    0.798605
      6          1           0        0.155292    0.016142   -1.316492
      7          1           0        0.956823    0.742733    1.511609
      8          7           0       -1.362817   -0.564750    0.092140
      9          8           0       -1.561898   -0.824715    1.275762
     10          8           0       -2.176333   -0.691266   -0.812519
     11          6           0        2.340820   -0.057001    0.170041
     12          7           0        3.424804   -0.009461   -0.276093
 ---------------------------------------------------------------------

 SCF Done:  E(RHF) =  -933.388893541     A.U. after    2 cycles

 The electronic state is 1-A.
 Alpha  occ. eigenvalues -- -105.39932 -26.15451 -20.46337 -20.46304 -15.66999
 Alpha  occ. eigenvalues --  -15.39970 -11.27966 -11.17708 -11.17599 -10.44746
 Alpha  occ. eigenvalues --   -7.61613  -7.61363  -7.61355  -1.53995  -1.37841
 Alpha  occ. eigenvalues --   -1.23379  -1.10682  -1.03245  -0.91900  -0.86236
 Alpha  occ. eigenvalues --   -0.73253  -0.66142  -0.63192  -0.61322  -0.59321
 Alpha  occ. eigenvalues --   -0.53417  -0.50934  -0.48451  -0.39832  -0.38832
 Alpha  occ. eigenvalues --   -0.37130  -0.36861  -0.35984  -0.32873  -0.31960
 Alpha  occ. eigenvalues --   -0.31659  -0.31115  -0.30383  -0.27600
 Alpha virt. eigenvalues --    0.13989   0.15437   0.15726   0.17173   0.17870
 Alpha virt. eigenvalues --    0.19599   0.21930   0.22900   0.23923   0.24279
 Alpha virt. eigenvalues --    0.24604   0.26530   0.26770   0.27368   0.28023

 Mulliken charges:
               1
     1  C   -0.258460
     2  H    0.476689
     3  Cl  -0.447926
     4  F   -0.881361
     5  C    0.295561
     6  H    0.020859
     7  H    0.260606
     8  N    3.123090
     9  O   -1.494597
    10  O   -1.533041
    11  C   -1.374676
    12  N    0.813255
 Sum of Mulliken charges =  -1.00000

 Dipole moment (field-independent basis, Debye):
    X=             -1.3199    Y=              2.2737    Z=              2.6881  Tot=              3.7600

 Test job not archived.
 1\1\GINC-SE339\SP\RHF\Aug-CC-pVDZ\C3H3Cl1F1N2O2(1-)\OHZDE\09-Apr-2025\
 0\\#t hf aug-cc-pvdz iop(5/13=1,5/36=2,99/5=2) pseudo=read geom=check
 guess=(read,tcheck) scf=(maxcycle=1)\\title\\-1,1\C,0,0.40170211,-0.04
 604263,0.02972318\H,0,1.27845022,1.77977708,0.62369985\Cl,0,-1.6153443
 9,-0.47908021,0.29149322\F,0,2.31179277,0.13620422,-0.34069787\C,0,0.3
 892568,1.4635179,0.08535833\H,0,0.4987497,-0.61070971,-0.87553771\H,0,
 -0.50406542,1.84880413,0.57831817\N,0,0.90326699,-0.73882705,1.2330841
 7\O,0,1.03512966,-0.06928402,2.2541135\O,0,1.10899128,-1.94075327,1.13

 Normal termination of Gaussian 16 at Wed Apr  9 02:38:43 2025.
