 Gaussian 16, Revision C.01,

 ----------------------------------------------------------------------
 #t hf aug-cc-pvdz symm=none int=(grid=ultrafine) guess=(read,tcheck) s
 table=(opt,rrhf)
 ----------------------------------------------------------------------
 -----
 title
 -----
 Symbolic Z-matrix:
 Charge = -1 Multiplicity = 1

 SCF Done:  E(RHF) =  -611.823294990     A.U. after   16 cycles
 Normal termination of Gaussian 16 at Wed Apr  9 02:45:17 2025.
 Gaussian 16:  ES64L-G16RevC.01  3-Jul-2019

 ----------------------------------------------------------------------
 #t hf aug-cc-pvdz iop(5/13=1,5/36=2,99/5=2) pseudo=read geom=check gue
 ss=(read,tcheck) scf=(maxcycle=1)
 ----------------------------------------------------------------------
 -----
 title
 -----
 Structure from the checkpoint file:  "E2SN2_231_mol1.chk"
 Charge = -1 Multiplicity = 1

                         Standard orientation:
 ---------------------------------------------------------------------
 Center     Atomic      Atomic             Coordinates (Angstroms)
 Number     Number       Type             X           Y           Z
 ---------------------------------------------------------------------
      1          6           0        0.109624    0.290606    0.055281
      2          1           0       -1.004909    0.645086   -1.734181
      3          9           0       -0.340384   -1.081405    1.095407
      4          9           0        0.834951    1.457508   -1.048448
      5          6           0       -0.964316   -0.099190   -0.940184
      6          1           0       -0.676817   -1.059247   -1.367626
      7          7           0        1.433531   -0.416698   -0.038132
      8          8           0        1.578434   -1.236693   -0.936901
      9          8           0        2.293300   -0.124172    0.781749
     10          6           0       -0.126394    1.322385    1.119461
     11          1           0        0.824479    1.526941    1.607853
     12          1           0       -0.482299    2.238984    0.651420
     13          1           0       -0.840839    0.948391    1.848513
     14          6           0       -2.284880   -0.217054   -0.324657
     15          7           0       -3.383360   -0.237395    0.088589
 ---------------------------------------------------------------------

 SCF Done:  E(RHF) =  -612.409223986     A.U. after    2 cycles

 The electronic state is 1-A.
 Alpha  occ. eigenvalues --  -26.20182 -26.19249 -20.44484 -20.44366 -15.65230
 Alpha  occ. eigenvalues --  -15.38940 -11.28480 -11.16887 -11.16013 -11.10732
 Alpha  occ. eigenvalues --   -1.52386  -1.36014  -1.29452  -1.27890  -1.09691
 Alpha  occ. eigenvalues --   -0.99379  -0.90402  -0.85695  -0.69878  -0.62729
 Alpha  occ. eigenvalues --   -0.60579  -0.59779  -0.57743  -0.52792  -0.48585
 Alpha  occ. eigenvalues --   -0.48278  -0.47292  -0.42697  -0.40038  -0.39014
 Alpha  occ. eigenvalues --   -0.37520  -0.35858  -0.35238  -0.35154  -0.34698
 Alpha  occ. eigenvalues --   -0.34231  -0.33587  -0.30370  -0.29894
 Alpha virt. eigenvalues --    0.13714   0.14004   0.14944   0.16100   0.16203
 Alpha virt. eigenvalues --    0.18445   0.20380   0.21041   0.22974   0.23855
 Alpha virt. eigenvalues --    0.24566   0.25475   0.25751   0.26055   0.27373

 Mulliken charges:
               1
     1  C   -0.211632
     2  H    0.302307
     3  F   -0.912514
     4  F   -0.934898
     5  C    0.038338
     6  H    0.404974
     7  N    3.597462
     8  O   -1.634457
     9  O   -1.676873
    10  C   -0.313032
    11  H    0.223307
    12  H    0.329463
    13  H    0.343098
    14  C   -1.457490
    15  N    0.901945
 Sum of Mulliken charges =  -1.00000

 Dipole moment (field-independent basis, Debye):
    X=              0.4068    Y=              1.4716    Z=             -1.1980  Tot=              1.9407

 Test job not archived.
 1\1\GINC-SE029\SP\RHF\Aug-CC-pVDZ\C4H5F2N2O2(1-)\OHZDE\09-Apr-2025\0\\
 #t hf aug-cc-pvdz iop(5/13=1,5/36=2,99/5=2) pseudo=read geom=check gue
 ss=(read,tcheck) scf=(maxcycle=1)\\title\\-1,1\C,0,0.70229918,-0.04711
 777,0.08288416\H,0,1.74499251,1.80469836,0.31435824\F,0,-1.05831145,-0
 .02048412,-0.17464965\F,0,2.45848501,-0.17292176,0.00566266\C,0,0.7341
 6941,1.46786927,0.0889494\H,0,0.46352291,1.8016487,-0.9122563\N,0,0.72
 963745,-0.73746854,-1.25293135\O,0,0.81568966,-0.03644909,-2.2541007\O
 ,0,0.67585659,-1.95976189,-1.2622295\C,0,0.61991353,-0.84786876,1.3496

 Normal termination of Gaussian 16 at Wed Apr  9 02:45:24 2025.
