 Gaussian 16, Revision C.01,

 ----------------------------------------------------------------------
 #t hf aug-cc-pvdz symm=none int=(grid=ultrafine) guess=(read,tcheck) s
 table=(opt,rrhf)
 ----------------------------------------------------------------------
 -----
 title
 -----
 Symbolic Z-matrix:
 Charge = -1 Multiplicity = 1

 SCF Done:  E(RHF) =  -531.255459055     A.U. after   16 cycles
 Normal termination of Gaussian 16 at Wed Apr  9 02:56:24 2025.
 Gaussian 16:  ES64L-G16RevC.01  3-Jul-2019

 ----------------------------------------------------------------------
 #t hf aug-cc-pvdz iop(5/13=1,5/36=2,99/5=2) pseudo=read geom=check gue
 ss=(read,tcheck) scf=(maxcycle=1)
 ----------------------------------------------------------------------
 -----
 title
 -----
 Structure from the checkpoint file:  "E2SN2_360_mol2.chk"
 Charge = -1 Multiplicity = 1

                         Standard orientation:
 ---------------------------------------------------------------------
 Center     Atomic      Atomic             Coordinates (Angstroms)
 Number     Number       Type             X           Y           Z
 ---------------------------------------------------------------------
      1          6           0       -0.945834   -0.367431   -0.042165
      2          6           0        0.185420    0.551728   -0.520912
      3          9           0       -0.512954   -1.683731   -0.312259
      4          1           0        0.282249    0.384562   -1.597640
      5          6           0       -1.238599   -0.297105    1.443557
      6          1           0       -0.349874   -0.488822    2.043236
      7          1           0       -1.644634    0.689126    1.674171
      8          1           0       -1.999916   -1.051837    1.665595
      9          7           0       -2.075408   -0.103465   -0.889261
     10          1           0       -2.828016   -0.713595   -0.579013
     11          1           0       -2.396611    0.864550   -0.672623
     12          7           0        1.521657   -0.009533   -0.010486
     13          8           0        2.269490   -0.501465   -0.859376
     14          8           0        1.788312    0.072643    1.184310
     15          7           0        0.023551    1.891495   -0.089703
     16          1           0       -0.984478    2.150619    0.049565
     17          1           0        0.392533    2.526849   -0.785986
     18          1           0       -2.611610    2.450077    0.056840
 ---------------------------------------------------------------------

 SCF Done:  E(RHF) =  -531.789541481     A.U. after    2 cycles

 The electronic state is 1-A.
 Alpha  occ. eigenvalues --  -26.32524 -20.46562 -20.46522 -15.65084 -15.36031
 Alpha  occ. eigenvalues --  -15.35470 -11.23550 -11.20596 -11.10344  -1.53302
 Alpha  occ. eigenvalues --   -1.45009  -1.37208  -1.10954  -1.05407  -0.93828
 Alpha  occ. eigenvalues --   -0.87812  -0.77755  -0.70296  -0.64085  -0.63328
 Alpha  occ. eigenvalues --   -0.62543  -0.58361  -0.56783  -0.55436  -0.53572
 Alpha  occ. eigenvalues --   -0.50806  -0.49021  -0.45803  -0.44655  -0.41645
 Alpha  occ. eigenvalues --   -0.39874  -0.36300  -0.35872  -0.33245  -0.31813
 Alpha  occ. eigenvalues --   -0.31743  -0.12194
 Alpha virt. eigenvalues --    0.12923   0.13839   0.14180   0.15202   0.16319
 Alpha virt. eigenvalues --    0.17223   0.18489   0.18786   0.20174   0.20920
 Alpha virt. eigenvalues --    0.21925   0.23169   0.23959   0.24871   0.25237

 Mulliken charges:
               1
     1  C   -0.360856
     2  C   -1.373802
     3  F   -1.060278
     4  H    0.081114
     5  C   -0.236310
     6  H    0.244276
     7  H    0.273426
     8  H    0.113175
     9  N    0.661043
    10  H    0.261014
    11  H    0.098721
    12  N    3.100373
    13  O   -1.483306
    14  O   -1.493516
    15  N    0.731065
    16  H   -0.077515
    17  H    0.247723
    18  H   -0.726348
 Sum of Mulliken charges =  -1.00000

 Dipole moment (field-independent basis, Debye):
    X=              4.2671    Y=             -5.4956    Z=             -0.1024  Tot=              6.9585

 Test job not archived.
 1\1\GINC-SE131\SP\RHF\Aug-CC-pVDZ\C3H9F1N3O2(1-)\OHZDE\09-Apr-2025\0\\
 #t hf aug-cc-pvdz iop(5/13=1,5/36=2,99/5=2) pseudo=read geom=check gue
 ss=(read,tcheck) scf=(maxcycle=1)\\title\\-1,1\C,0,-0.028059,-0.001289
 ,-0.029315\C,0,-0.344783,0.114002,-1.526039\F,0,1.373412,-0.147219,0.0
 57663\H,0,-0.019906,-0.825743,-1.982106\C,0,-0.395264,1.216437,0.79550
 7\H,0,0.062477,2.124906,0.406458\H,0,-1.481813,1.316193,0.808113\H,0,-
 0.046221,1.039496,1.817949\N,0,-0.617655,-1.231089,0.421414\H,0,-0.407
 159,-1.315136,1.41316\H,0,-1.651706,-1.108772,0.367247\N,0,0.63968,1.1

 Normal termination of Gaussian 16 at Wed Apr  9 02:56:33 2025.
