 Gaussian 16, Revision C.01,

 ----------------------------------------------------------------------
 #t hf aug-cc-pvdz symm=none int=(grid=ultrafine) guess=(read,tcheck) s
 table=(opt,rrhf)
 ----------------------------------------------------------------------
 -----
 title
 -----
 Symbolic Z-matrix:
 Charge = -1 Multiplicity = 1

 SCF Done:  E(RHF) =  -722.144242007     A.U. after   16 cycles
 Normal termination of Gaussian 16 at Wed Apr  9 03:02:42 2025.
 Gaussian 16:  ES64L-G16RevC.01  3-Jul-2019

 ----------------------------------------------------------------------
 #t hf aug-cc-pvdz iop(5/13=1,5/36=2,99/5=2) pseudo=read geom=check gue
 ss=(read,tcheck) scf=(maxcycle=1)
 ----------------------------------------------------------------------
 -----
 title
 -----
 Structure from the checkpoint file:  "E2SN2_96_mol1.chk"
 Charge = -1 Multiplicity = 1

                         Standard orientation:
 ---------------------------------------------------------------------
 Center     Atomic      Atomic             Coordinates (Angstroms)
 Number     Number       Type             X           Y           Z
 ---------------------------------------------------------------------
      1          6           0        0.532239    0.037205    0.615892
      2          6           0       -0.765706   -0.690156    0.872063
      3         17           0        1.666974   -0.833129   -0.488267
      4          1           0       -0.381590    0.085690    3.285171
      5          1           0       -0.979446   -0.295031    1.963535
      6          1           0        1.006324    0.100397    1.611220
      7          1           0       -0.557000   -1.751649    1.030020
      8          6           0       -1.794221   -0.514099   -0.124864
      9          7           0       -2.669126   -0.384302   -0.902229
     10          6           0        0.339490    1.390054    0.108135
     11          7           0        0.198033    2.482269   -0.300164
 ---------------------------------------------------------------------

 SCF Done:  E(RHF) =  -722.480266851     A.U. after    2 cycles

 The electronic state is 1-A.
 Alpha  occ. eigenvalues -- -105.46924 -15.41658 -15.39745 -11.23765 -11.18707
 Alpha  occ. eigenvalues --  -11.17336 -11.15183 -10.51754  -7.68697  -7.68322
 Alpha  occ. eigenvalues --   -7.68308  -1.12231  -1.10188  -1.04061  -0.92183
 Alpha  occ. eigenvalues --   -0.81643  -0.65494  -0.54596  -0.54264  -0.52535
 Alpha  occ. eigenvalues --   -0.49854  -0.47696  -0.44774  -0.39574  -0.39025
 Alpha  occ. eigenvalues --   -0.37362  -0.36578  -0.35093  -0.34796  -0.11701
 Alpha virt. eigenvalues --    0.13515   0.15194   0.16545   0.17533   0.18886
 Alpha virt. eigenvalues --    0.19463   0.20382   0.22779   0.23054   0.23554
 Alpha virt. eigenvalues --    0.24599   0.24760   0.25338   0.25784   0.27056

 Mulliken charges:
               1
     1  C   -0.465549
     2  C    0.377181
     3  Cl  -0.050386
     4  H   -0.577798
     5  H    0.256354
     6  H    0.338001
     7  H    0.227551
     8  C   -1.703141
     9  N    0.850109
    10  C   -1.028840
    11  N    0.776518
 Sum of Mulliken charges =  -1.00000

 Dipole moment (field-independent basis, Debye):
    X=              4.4311    Y=             -3.8169    Z=             -6.0172  Tot=              8.3911

 Test job not archived.
 1\1\GINC-SE024\SP\RHF\Aug-CC-pVDZ\C4H4Cl1N2(1-)\OHZDE\09-Apr-2025\0\\#
 t hf aug-cc-pvdz iop(5/13=1,5/36=2,99/5=2) pseudo=read geom=check gues
 s=(read,tcheck) scf=(maxcycle=1)\\title\\-1,1\C,0,-0.37026507,-0.00303
 758,-0.36021763\C,0,-0.09536779,-0.21236477,1.10946078\Cl,0,0.98097888
 ,0.78464715,-1.26463184\H,0,-2.52332878,0.56775581,1.3721205\H,0,-1.20
 161324,-0.12693997,1.51200616\H,0,-1.23656796,0.68155015,-0.3771454\H,
 0,0.38505839,0.68182895,1.51551937\C,0,0.65821249,-1.39584879,1.447373
 79\N,0,1.25351238,-2.35863008,1.77183103\C,0,-0.73717262,-1.23133747,-

 Normal termination of Gaussian 16 at Wed Apr  9 03:02:46 2025.
