 Gaussian 16, Revision C.01,

 ----------------------------------------------------------------------
 #t hf aug-cc-pvdz symm=none int=(grid=ultrafine) guess=(read,tcheck) s
 table=(opt,rrhf)
 ----------------------------------------------------------------------
 -----
 title
 -----
 Symbolic Z-matrix:
 Charge = -1 Multiplicity = 1

 SCF Done:  E(RHF) =  -403.417788038     A.U. after   17 cycles
 Normal termination of Gaussian 16 at Wed Apr  9 02:54:26 2025.
 Gaussian 16:  ES64L-G16RevC.01  3-Jul-2019

 ----------------------------------------------------------------------
 #t hf aug-cc-pvdz iop(5/13=1,5/36=2,99/5=2) pseudo=read geom=check gue
 ss=(read,tcheck) scf=(maxcycle=1)
 ----------------------------------------------------------------------
 -----
 title
 -----
 Structure from the checkpoint file:  "E2SN2_337_mol1.chk"
 Charge = -1 Multiplicity = 1

                         Standard orientation:
 ---------------------------------------------------------------------
 Center     Atomic      Atomic             Coordinates (Angstroms)
 Number     Number       Type             X           Y           Z
 ---------------------------------------------------------------------
      1          6           0       -0.329133    0.407560   -0.210181
      2          1           0        1.113874   -0.283348   -1.631337
      3          9           0       -0.074344    0.489526    1.439723
      4          1           0       -0.964814    0.085243   -1.975204
      5          6           0        0.972494   -0.340740   -0.554031
      6          6           0       -0.369562    1.895435   -0.522769
      7          1           0        0.125257    2.424023    0.293656
      8          1           0        0.143677    2.115939   -1.455670
      9          1           0       -1.404681    2.229969   -0.605920
     10          6           0       -1.564929   -0.326852   -0.202183
     11          7           0       -2.546739   -0.912943    0.115113
     12          6           0        0.868907   -1.804428   -0.136736
     13          1           0        0.637981   -1.860891    0.928818
     14          1           0        0.078160   -2.313121   -0.693645
     15          1           0        1.818007   -2.319157   -0.328546
     16          7           0        2.092941    0.382031    0.068019
     17          1           0        2.935942   -0.163542   -0.078306
     18          1           0        1.895620    0.409684    1.062122
 ---------------------------------------------------------------------

 SCF Done:  E(RHF) =  -403.828956243     A.U. after    2 cycles

 The electronic state is 1-A.
 Alpha  occ. eigenvalues --  -26.21669 -15.35190 -15.32145 -11.20705 -11.13263
 Alpha  occ. eigenvalues --  -11.12420 -11.09239 -11.09130  -1.30541  -1.05803
 Alpha  occ. eigenvalues --   -1.03031  -0.92048  -0.85740  -0.75625  -0.70025
 Alpha  occ. eigenvalues --   -0.59346  -0.51488  -0.50254  -0.48432  -0.46173
 Alpha  occ. eigenvalues --   -0.44758  -0.42759  -0.41615  -0.39913  -0.38681
 Alpha  occ. eigenvalues --   -0.37924  -0.35254  -0.34944  -0.31888  -0.30840
 Alpha  occ. eigenvalues --   -0.29262  -0.11464
 Alpha virt. eigenvalues --    0.11992   0.13175   0.14150   0.14293   0.15562
 Alpha virt. eigenvalues --    0.15993   0.16724   0.17051   0.17676   0.20559
 Alpha virt. eigenvalues --    0.21884   0.22598   0.24269   0.24669   0.25730

 Mulliken charges:
               1
     1  C    1.553752
     2  H   -0.026274
     3  F   -0.972874
     4  H   -0.296950
     5  C   -1.705534
     6  C   -0.169927
     7  H    0.311394
     8  H    0.208181
     9  H    0.154553
    10  C   -2.926799
    11  N    1.129468
    12  C    0.062262
    13  H    0.313378
    14  H    0.335076
    15  H    0.051223
    16  N    0.551144
    17  H    0.159105
    18  H    0.268823
 Sum of Mulliken charges =  -1.00000

 Dipole moment (field-independent basis, Debye):
    X=              7.1179    Y=              0.7071    Z=              1.2553  Tot=              7.2623

 Test job not archived.
 1\1\GINC-SE403\SP\RHF\Aug-CC-pVDZ\C5H10F1N2(1-)\OHZDE\09-Apr-2025\0\\#
 t hf aug-cc-pvdz iop(5/13=1,5/36=2,99/5=2) pseudo=read geom=check gues
 s=(read,tcheck) scf=(maxcycle=1)\\title\\-1,1\C,0,0.47310545,-0.037925
 49,-0.05064934\H,0,1.58239006,1.77253387,-0.31717195\F,0,-1.19472432,-
 0.14386808,-0.08127536\H,0,2.32919348,-0.11215614,0.3649395\C,0,0.5542
 1053,1.49973865,-0.08847975\C,0,0.78593221,-0.77463614,-1.34390709\H,0
 ,-0.11263168,-0.76341219,-1.96298457\H,0,1.5990088,-0.29503726,-1.8835
 6683\H,0,1.07130224,-1.80474293,-1.12540727\C,0,0.70985279,-0.71018342

 Normal termination of Gaussian 16 at Wed Apr  9 02:54:33 2025.
