 Gaussian 16, Revision C.01,

 ----------------------------------------------------------------------
 #t hf aug-cc-pvdz symm=none int=(grid=ultrafine) guess=(read,tcheck) s
 table=(opt,rrhf)
 ----------------------------------------------------------------------
 -----
 title
 -----
 Symbolic Z-matrix:
 Charge = -1 Multiplicity = 1

 SCF Done:  E(RHF) =  -1199.51072562     A.U. after   16 cycles
 Normal termination of Gaussian 16 at Wed Apr  9 03:00:48 2025.
 Gaussian 16:  ES64L-G16RevC.01  3-Jul-2019

 ----------------------------------------------------------------------
 #t hf aug-cc-pvdz iop(5/13=1,5/36=2,99/5=2) pseudo=read geom=check gue
 ss=(read,tcheck) scf=(maxcycle=1)
 ----------------------------------------------------------------------
 -----
 title
 -----
 Structure from the checkpoint file:  "E2SN2_52_mol1.chk"
 Charge = -1 Multiplicity = 1

                         Standard orientation:
 ---------------------------------------------------------------------
 Center     Atomic      Atomic             Coordinates (Angstroms)
 Number     Number       Type             X           Y           Z
 ---------------------------------------------------------------------
      1          6           0        0.302068    0.244336    0.477451
      2          6           0       -0.425361   -0.876305    0.111020
      3         17           0        2.851930   -0.553951    0.040623
      4         17           0       -3.252174   -0.059093    0.148547
      5          1           0       -1.773683   -0.360828    0.193905
      6          1           0       -0.527950   -1.638556    0.886696
      7          6           0        0.521584    1.252393   -0.528056
      8          7           0        0.578105    2.112534   -1.329898
      9          7           0       -0.336742   -1.377102   -1.230956
     10          1           0        0.636266   -1.322688   -1.522419
     11          1           0       -0.908865   -0.833631   -1.865241
     12          7           0        0.489116    0.649897    1.771507
     13          1           0        1.263008    1.292883    1.858576
     14          1           0        0.612270   -0.135273    2.395525
 ---------------------------------------------------------------------

 SCF Done:  E(RHF) =  -1199.95370959     A.U. after    2 cycles

 The electronic state is 1-A.
 Alpha  occ. eigenvalues -- -105.38540-105.31159 -15.44346 -15.42975 -15.37734
 Alpha  occ. eigenvalues --  -11.26452 -11.19664 -11.14688 -10.43328 -10.35807
 Alpha  occ. eigenvalues --   -7.60207  -7.59988  -7.59986  -7.52579  -7.52525
 Alpha  occ. eigenvalues --   -7.52515  -1.17470  -1.12050  -1.07960  -0.91923
 Alpha  occ. eigenvalues --   -0.86431  -0.78991  -0.76588  -0.67200  -0.63595
 Alpha  occ. eigenvalues --   -0.59030  -0.56000  -0.51805  -0.49706  -0.48962
 Alpha  occ. eigenvalues --   -0.43312  -0.40567  -0.40341  -0.33986  -0.30417
 Alpha  occ. eigenvalues --   -0.30336  -0.26442  -0.23741  -0.23476  -0.21159
 Alpha virt. eigenvalues --    0.12170   0.13487   0.14576   0.14983   0.15785
 Alpha virt. eigenvalues --    0.17064   0.18167   0.18789   0.21420   0.22445
 Alpha virt. eigenvalues --    0.23521   0.23931   0.24220   0.24954   0.25549

 Mulliken charges:
               1
     1  C    0.074697
     2  C   -1.354892
     3  Cl  -0.848496
     4  Cl  -0.553071
     5  H    0.887410
     6  H   -0.151018
     7  C   -2.033361
     8  N    0.990315
     9  N    0.432443
    10  H    0.229493
    11  H    0.250219
    12  N    0.732637
    13  H    0.151615
    14  H    0.192008
 Sum of Mulliken charges =  -1.00000

 Dipole moment (field-independent basis, Debye):
    X=             -1.9390    Y=              0.2631    Z=              3.4426  Tot=              3.9598

 Test job not archived.
 1\1\GINC-SE106\SP\RHF\Aug-CC-pVDZ\C3H6Cl2N3(1-)\OHZDE\09-Apr-2025\0\\#
 t hf aug-cc-pvdz iop(5/13=1,5/36=2,99/5=2) pseudo=read geom=check gues
 s=(read,tcheck) scf=(maxcycle=1)\\title\\-1,1\C,0,-0.58549591,0.092426
 71,-0.14155254\C,0,-0.22719489,0.09540844,1.19668174\Cl,0,1.80560003,-
 0.19239645,-1.37905493\Cl,0,-2.74725599,0.00366118,2.71358374\H,0,-1.5
 297562,0.07731415,1.8240285\H,0,0.09489663,1.06226065,1.5899735\C,0,-0
 .95775061,-1.17004394,-0.72721952\N,0,-1.37546748,-2.1885368,-1.144560
 3\N,0,0.43549402,-1.04588993,1.76044769\H,0,1.11836968,-1.37806456,1.0

 Normal termination of Gaussian 16 at Wed Apr  9 03:00:54 2025.
