 Gaussian 16, Revision C.01,

 ----------------------------------------------------------------------
 #t hf aug-cc-pvdz symm=none int=(grid=ultrafine) guess=(read,tcheck) s
 table=(opt,rrhf)
 ----------------------------------------------------------------------
 -----
 title
 -----
 Symbolic Z-matrix:
 Charge = -1 Multiplicity = 1

 SCF Done:  E(RHF) =  -627.885437501     A.U. after   16 cycles
 Normal termination of Gaussian 16 at Wed Apr  9 02:57:24 2025.
 Gaussian 16:  ES64L-G16RevC.01  3-Jul-2019

 ----------------------------------------------------------------------
 #t hf aug-cc-pvdz iop(5/13=1,5/36=2,99/5=2) pseudo=read geom=check gue
 ss=(read,tcheck) scf=(maxcycle=1)
 ----------------------------------------------------------------------
 -----
 title
 -----
 Structure from the checkpoint file:  "E2SN2_376_mol2.chk"
 Charge = -1 Multiplicity = 1

                         Standard orientation:
 ---------------------------------------------------------------------
 Center     Atomic      Atomic             Coordinates (Angstroms)
 Number     Number       Type             X           Y           Z
 ---------------------------------------------------------------------
      1          6           0        0.094001   -0.257748   -0.359267
      2          6           0       -0.897618   -0.002647    0.756315
      3          9           0       -0.001877   -1.563067   -0.843584
      4          1           0       -0.795888    1.090011    0.947595
      5          1           0       -0.637443   -0.593699    1.633533
      6          7           0        0.011229    0.681016   -1.350781
      7          1           0       -0.051261    1.629962   -0.842055
      8          1           0        0.807824    0.614429   -1.971244
      9          7           0        1.541707   -0.347712    0.291412
     10          8           0        2.478370   -0.039647   -0.440747
     11          8           0        1.660648   -0.773680    1.437679
     12          6           0       -2.248662   -0.333959    0.328180
     13          7           0       -3.352258   -0.611740    0.039345
     14          9           0       -0.167728    2.594298    0.293086
 ---------------------------------------------------------------------

 SCF Done:  E(RHF) =  -628.486225622     A.U. after    2 cycles

 The electronic state is 1-A.
 Alpha  occ. eigenvalues --  -26.36247 -26.13325 -20.48011 -20.47971 -15.66168
 Alpha  occ. eigenvalues --  -15.39718 -15.36002 -11.30914 -11.17467 -11.15360
 Alpha  occ. eigenvalues --   -1.54838  -1.48892  -1.38751  -1.20578  -1.11518
 Alpha  occ. eigenvalues --   -1.09898  -0.95601  -0.90050  -0.73632  -0.68809
 Alpha  occ. eigenvalues --   -0.65596  -0.63750  -0.60605  -0.59569  -0.56679
 Alpha  occ. eigenvalues --   -0.53364  -0.50361  -0.49491  -0.48349  -0.45877
 Alpha  occ. eigenvalues --   -0.40959  -0.38009  -0.36873  -0.36687  -0.34048
 Alpha  occ. eigenvalues --   -0.33331  -0.29810  -0.29033  -0.28653
 Alpha virt. eigenvalues --    0.13854   0.14646   0.17051   0.17528   0.17782
 Alpha virt. eigenvalues --    0.18726   0.19290   0.22193   0.22888   0.24296
 Alpha virt. eigenvalues --    0.24983   0.25602   0.26120   0.26751   0.27151

 Mulliken charges:
               1
     1  C   -0.430779
     2  C    0.291211
     3  F   -1.059301
     4  H    0.301683
     5  H    0.230003
     6  N    0.512593
     7  H    0.448719
     8  H    0.420881
     9  N    3.043766
    10  O   -1.524889
    11  O   -1.544012
    12  C   -1.488504
    13  N    0.842199
    14  F   -1.043571
 Sum of Mulliken charges =  -1.00000

 Dipole moment (field-independent basis, Debye):
    X=              2.9902    Y=             -4.5999    Z=              0.0272  Tot=              5.4864

 Test job not archived.
 1\1\GINC-SE344\SP\RHF\Aug-CC-pVDZ\C3H4F2N3O2(1-)\OHZDE\09-Apr-2025\0\\
 #t hf aug-cc-pvdz iop(5/13=1,5/36=2,99/5=2) pseudo=read geom=check gue
 ss=(read,tcheck) scf=(maxcycle=1)\\title\\-1,1\C,0,-0.020222,-0.008287
 ,0.014872\C,0,-0.576718,-0.016476,-1.393373\F,0,1.371049,0.101139,0.01
 7057\H,0,-1.678777,0.022436,-1.235926\H,0,-0.273235,-0.924651,-1.91266
 2\N,0,-0.625155,0.929827,0.805586\H,0,-1.680592,0.836329,0.604302\H,0,
 -0.391285,0.779413,1.778546\N,0,-0.146976,-1.483454,0.593788\O,0,-0.24
 0509,-1.573647,1.815023\O,0,-0.078157,-2.439374,-0.174981\C,0,-0.11409

 Normal termination of Gaussian 16 at Wed Apr  9 02:57:31 2025.
