 Gaussian 16, Revision C.01,

 ----------------------------------------------------------------------
 #t hf aug-cc-pvdz symm=none int=(grid=ultrafine) guess=(read,tcheck) s
 table=(opt,rrhf)
 ----------------------------------------------------------------------
 -----
 title
 -----
 Symbolic Z-matrix:
 Charge = -1 Multiplicity = 1

 SCF Done:  E(RHF) =  -364.392226767     A.U. after   17 cycles
 Normal termination of Gaussian 16 at Wed Apr  9 02:39:48 2025.
 Gaussian 16:  ES64L-G16RevC.01  3-Jul-2019

 ----------------------------------------------------------------------
 #t hf aug-cc-pvdz iop(5/13=1,5/36=2,99/5=2) pseudo=read geom=check gue
 ss=(read,tcheck) scf=(maxcycle=1)
 ----------------------------------------------------------------------
 -----
 title
 -----
 Structure from the checkpoint file:  "E2SN2_17_mol1.chk"
 Charge = -1 Multiplicity = 1

                         Standard orientation:
 ---------------------------------------------------------------------
 Center     Atomic      Atomic             Coordinates (Angstroms)
 Number     Number       Type             X           Y           Z
 ---------------------------------------------------------------------
      1          6           0        0.294762   -0.378063   -0.071543
      2          6           0       -1.080379   -0.528979    0.407869
      3          9           0        0.480498   -0.631291   -1.494478
      4          1           0       -0.534221   -0.531639    2.846420
      5          1           0       -0.850584   -0.458699    1.836369
      6          1           0       -1.372368   -1.584864    0.322221
      7          7           0        1.256265   -1.250614    0.584484
      8          1           0        0.943372   -2.193714    0.369568
      9          1           0        1.075485   -1.127578    1.586988
     10          6           0       -2.115289    0.427544   -0.145110
     11          1           0       -2.261977    0.362306   -1.234227
     12          1           0       -3.087615    0.244835    0.327956
     13          1           0       -1.846063    1.465618    0.082577
     14          6           0        0.755208    1.025135    0.089194
     15          7           0        1.098545    2.140833    0.219798
 ---------------------------------------------------------------------

 SCF Done:  E(RHF) =  -364.764075334     A.U. after    2 cycles

 The electronic state is 1-A.
 Alpha  occ. eigenvalues --  -26.29754 -15.38374 -15.36344 -11.23892 -11.15148
 Alpha  occ. eigenvalues --  -11.08687 -11.04477  -1.41042  -1.09245  -1.06504
 Alpha  occ. eigenvalues --   -0.90010  -0.80201  -0.69853  -0.61038  -0.55685
 Alpha  occ. eigenvalues --   -0.51880  -0.50138  -0.47996  -0.44788  -0.43253
 Alpha  occ. eigenvalues --   -0.42497  -0.41058  -0.36635  -0.36435  -0.35577
 Alpha  occ. eigenvalues --   -0.33451  -0.31635  -0.09940
 Alpha virt. eigenvalues --    0.13171   0.13583   0.14596   0.15099   0.17398
 Alpha virt. eigenvalues --    0.18056   0.19507   0.19609   0.20929   0.22658
 Alpha virt. eigenvalues --    0.23669   0.24614   0.25367   0.25871   0.26512

 Mulliken charges:
               1
     1  C   -0.157412
     2  C    0.036345
     3  F   -0.987827
     4  H   -0.781537
     5  H    0.567873
     6  H    0.003807
     7  N    0.561969
     8  H    0.241928
     9  H    0.220816
    10  C   -0.495800
    11  H    0.134674
    12  H    0.120419
    13  H    0.218762
    14  C   -1.580179
    15  N    0.896160
 Sum of Mulliken charges =  -1.00000

 Dipole moment (field-independent basis, Debye):
    X=             -1.1093    Y=             -2.3631    Z=             -5.2784  Tot=              5.8886

 Test job not archived.
 1\1\GINC-SE339\SP\RHF\Aug-CC-pVDZ\C4H8F1N2(1-)\OHZDE\09-Apr-2025\0\\#t
  hf aug-cc-pvdz iop(5/13=1,5/36=2,99/5=2) pseudo=read geom=check guess
 =(read,tcheck) scf=(maxcycle=1)\\title\\-1,1\C,0,-0.10969225,0.0412324
 7,-0.35603087\C,0,-0.12473922,-0.05049384,1.10512825\F,0,1.21753146,0.
 11106873,-0.9534977\H,0,-2.55662895,0.44471636,1.39753972\H,0,-1.53857
 904,0.15016004,1.3483359\H,0,0.2668079,0.88701241,1.52376866\N,0,-0.81
 329551,1.19697886,-0.89025621\H,0,-0.31937328,2.0016315,-0.51329093\H,
 0,-1.72196715,1.18982729,-0.41370691\C,0,0.48606738,-1.28796786,1.7274

 Normal termination of Gaussian 16 at Wed Apr  9 02:39:53 2025.
