 Gaussian 16, Revision C.01,

 ----------------------------------------------------------------------
 #t hf aug-cc-pvdz symm=none int=(grid=ultrafine) guess=(read,tcheck) s
 table=(opt,rrhf)
 ----------------------------------------------------------------------
 -----
 title
 -----
 Symbolic Z-matrix:
 Charge = -1 Multiplicity = 1

 SCF Done:  E(RHF) =  -664.538816596     A.U. after   18 cycles
 Normal termination of Gaussian 16 at Wed Apr  9 02:44:37 2025.
 Gaussian 16:  ES64L-G16RevC.01  3-Jul-2019

 ----------------------------------------------------------------------
 #t hf aug-cc-pvdz iop(5/13=1,5/36=2,99/5=2) pseudo=read geom=check gue
 ss=(read,tcheck) scf=(maxcycle=1)
 ----------------------------------------------------------------------
 -----
 title
 -----
 Structure from the checkpoint file:  "E2SN2_225_mol2.chk"
 Charge = -1 Multiplicity = 1

                         Standard orientation:
 ---------------------------------------------------------------------
 Center     Atomic      Atomic             Coordinates (Angstroms)
 Number     Number       Type             X           Y           Z
 ---------------------------------------------------------------------
      1          6           0       -0.028557   -0.031570   -0.302737
      2          6           0        0.915779   -0.827187    0.575049
      3          9           0        0.255241   -0.316320   -1.642616
      4          1           0        0.633118   -0.505451    1.587603
      5          1           0        0.691238   -1.885960    0.436093
      6          7           0       -1.461078   -0.507909   -0.158150
      7          8           0       -2.324083    0.255706   -0.565222
      8          8           0       -1.629075   -1.675318    0.173657
      9          6           0        0.051707    1.415363   -0.121360
     10          7           0        0.283105    2.561822   -0.247612
     11          6           0        2.307545   -0.563209    0.238713
     12          7           0        3.441932   -0.378178   -0.001519
     13          9           0       -0.813647    0.544964    1.822815
 ---------------------------------------------------------------------

 SCF Done:  E(RHF) =  -665.159032679     A.U. after    2 cycles

 The electronic state is 1-A.
 Alpha  occ. eigenvalues --  -26.38859 -26.13119 -20.47906 -20.47848 -15.68451
 Alpha  occ. eigenvalues --  -15.41871 -15.40366 -11.33345 -11.19275 -11.18347
 Alpha  occ. eigenvalues --  -11.17912  -1.55910  -1.51030  -1.39540  -1.20506
 Alpha  occ. eigenvalues --   -1.12413  -1.10466  -1.03770  -0.93159  -0.81023
 Alpha  occ. eigenvalues --   -0.71626  -0.67363  -0.65826  -0.62048  -0.60209
 Alpha  occ. eigenvalues --   -0.57594  -0.54352  -0.52859  -0.50379  -0.49342
 Alpha  occ. eigenvalues --   -0.47689  -0.40716  -0.39790  -0.39073  -0.38796
 Alpha  occ. eigenvalues --   -0.37478  -0.36503  -0.33676  -0.29740  -0.28942
 Alpha  occ. eigenvalues --   -0.28564
 Alpha virt. eigenvalues --    0.13053   0.15886   0.17075   0.17552   0.18494
 Alpha virt. eigenvalues --    0.18975   0.22222   0.22366   0.22973   0.23622
 Alpha virt. eigenvalues --    0.24101   0.24691   0.25029   0.25470   0.25914

 Mulliken charges:
               1
     1  C    0.986567
     2  C    0.321857
     3  F   -1.051098
     4  H    0.468558
     5  H    0.313053
     6  N    3.534334
     7  O   -1.600262
     8  O   -1.650789
     9  C   -1.837891
    10  N    1.043145
    11  C   -1.498322
    12  N    0.875866
    13  F   -0.905019
 Sum of Mulliken charges =  -1.00000

 Dipole moment (field-independent basis, Debye):
    X=             -0.0629    Y=             -5.1227    Z=             -2.7634  Tot=              5.8208

 Test job not archived.
 1\1\GINC-SE112\SP\RHF\Aug-CC-pVDZ\C4H2F2N3O2(1-)\OHZDE\09-Apr-2025\0\\
 #t hf aug-cc-pvdz iop(5/13=1,5/36=2,99/5=2) pseudo=read geom=check gue
 ss=(read,tcheck) scf=(maxcycle=1)\\title\\-1,1\C,0,-0.03735,-0.002854,
 -0.010995\C,0,-0.434518,-0.066657,-1.471636\F,0,1.358402,0.035629,0.07
 4428\H,0,-1.531032,-0.128291,-1.421292\H,0,-0.127639,0.867943,-1.94394
 5\N,0,-0.44529,1.313401,0.622235\O,0,-0.46125,1.338861,1.843992\O,0,-0
 .541066,2.282915,-0.120754\C,0,-0.508581,-1.12699,0.793501\N,0,-0.5842
 94,-2.126928,1.408517\C,0,0.189893,-1.195896,-2.145987\N,0,0.673724,-2

 Normal termination of Gaussian 16 at Wed Apr  9 02:44:44 2025.
